Title t= 131.00000 step= 65500
44469
    1GLY      N    1   5.481   5.421   4.251
    1GLY    HT1    2   5.580   5.425   4.220
    1GLY    HT2    3   5.473   5.353   4.330
    1GLY    HT3    4   5.465   5.515   4.292
    1GLY     CA    5   5.373   5.405   4.143
    1GLY    HA1    6   5.280   5.418   4.197
    1GLY    HA2    7   5.380   5.307   4.098
    1GLY      C    8   5.368   5.513   4.034
    1GLY      O    9   5.377   5.627   4.070
    2PRO      N   10   5.360   5.480   3.900
    2PRO     CD   11   5.338   5.347   3.841
    2PRO    HD1   12   5.240   5.297   3.854
    2PRO    HD2   13   5.413   5.277   3.882
    2PRO     CA   14   5.391   5.578   3.797
    2PRO     HA   15   5.470   5.642   3.836
    2PRO     CB   16   5.441   5.502   3.682
    2PRO    HB1   17   5.551   5.485   3.689
    2PRO    HB2   18   5.425   5.541   3.580
    2PRO     CG   19   5.365   5.367   3.688
    2PRO    HG1   20   5.276   5.374   3.622
    2PRO    HG2   21   5.436   5.289   3.651
    2PRO      C   22   5.272   5.668   3.766
    2PRO      O   23   5.275   5.769   3.696
    3GLY      N   24   5.167   5.633   3.837
    3GLY     HN   25   5.159   5.552   3.895
    3GLY     CA   26   5.043   5.711   3.844
    3GLY    HA1   27   4.963   5.640   3.836
    3GLY    HA2   28   5.041   5.773   3.755
    3GLY      C   29   5.026   5.802   3.960
    3GLY      O   30   4.944   5.887   3.960
    4ASN      N   31   5.101   5.776   4.070
    4ASN     HN   32   5.173   5.709   4.057
    4ASN     CA   33   5.108   5.873   4.181
    4ASN     HA   34   5.006   5.891   4.212
    4ASN     CB   35   5.175   5.805   4.306
    4ASN    HB1   36   5.203   5.879   4.385
    4ASN    HB2   37   5.263   5.748   4.269
    4ASN     CG   38   5.090   5.697   4.373
    4ASN    OD1   39   5.077   5.592   4.313
    4ASN    ND2   40   5.037   5.716   4.494
    4ASN   HD21   41   5.017   5.637   4.552
    4ASN   HD22   42   5.012   5.809   4.521
    4ASN      C   43   5.182   5.997   4.141
    4ASN      O   44   5.285   5.984   4.075
    5PRO      N   45   5.141   6.117   4.177
    5PRO     CD   46   5.010   6.135   4.231
    5PRO    HD1   47   5.013   6.100   4.336
    5PRO    HD2   48   4.930   6.074   4.183
    5PRO     CA   49   5.220   6.238   4.173
    5PRO     HA   50   5.217   6.259   4.068
    5PRO     CB   51   5.128   6.342   4.244
    5PRO    HB1   52   5.132   6.445   4.201
    5PRO    HB2   53   5.153   6.355   4.351
    5PRO     CG   54   4.987   6.284   4.227
    5PRO    HG1   55   4.922   6.315   4.312
    5PRO    HG2   56   4.939   6.308   4.130
    5PRO      C   57   5.366   6.237   4.208
    5PRO      O   58   5.396   6.173   4.308
    6GLY      N   59   5.457   6.301   4.132
    6GLY     HN   60   5.412   6.363   4.068
    6GLY     CA   61   5.604   6.306   4.159
    6GLY    HA1   62   5.641   6.330   4.060
    6GLY    HA2   63   5.625   6.205   4.191
    6GLY      C   64   5.653   6.393   4.268
    6GLY      O   65   5.578   6.419   4.361
    7PRO      N   66   5.778   6.436   4.263
    7PRO     CD   67   5.867   6.417   4.149
    7PRO    HD1   68   5.830   6.426   4.045
    7PRO    HD2   69   5.907   6.315   4.164
    7PRO     CA   70   5.827   6.544   4.358
    7PRO     HA   71   5.842   6.508   4.459
    7PRO     CB   72   5.966   6.569   4.307
    7PRO    HB1   73   6.039   6.502   4.360
    7PRO    HB2   74   5.996   6.675   4.321
    7PRO     CG   75   5.970   6.535   4.158
    7PRO    HG1   76   5.933   6.628   4.110
    7PRO    HG2   77   6.067   6.499   4.116
    7PRO      C   78   5.747   6.671   4.357
    7PRO      O   79   5.685   6.705   4.252
    8GLY      N   80   5.752   6.754   4.465
    8GLY     HN   81   5.802   6.724   4.546
    8GLY     CA   82   5.678   6.878   4.467
    8GLY    HA1   83   5.667   6.928   4.372
    8GLY    HA2   84   5.744   6.938   4.528
    8GLY      C   85   5.544   6.879   4.540
    8GLY      O   86   5.484   6.785   4.585
    9ASN      N   87   5.493   7.006   4.542
    9ASN     HN   88   5.533   7.076   4.482
    9ASN     CA   89   5.377   7.036   4.624
    9ASN     HA   90   5.406   6.997   4.721
    9ASN     CB   91   5.353   7.190   4.625
    9ASN    HB1   92   5.259   7.215   4.678
    9ASN    HB2   93   5.358   7.214   4.516
    9ASN     CG   94   5.460   7.254   4.711
    9ASN    OD1   95   5.535   7.183   4.777
    9ASN    ND2   96   5.476   7.390   4.703
    9ASN   HD21   97   5.560   7.436   4.734
    9ASN   HD22   98   5.406   7.440   4.653
    9ASN      C   99   5.251   6.967   4.571
    9ASN      O  100   5.236   6.969   4.444
   10PRO      N  101   5.164   6.907   4.649
   10PRO     CD  102   5.187   6.890   4.797
   10PRO    HD1  103   5.175   6.988   4.848
   10PRO    HD2  104   5.288   6.846   4.816
   10PRO     CA  105   5.034   6.853   4.606
   10PRO     HA  106   5.054   6.760   4.555
   10PRO     CB  107   4.961   6.808   4.740
   10PRO    HB1  108   4.908   6.712   4.724
   10PRO    HB2  109   4.903   6.897   4.774
   10PRO     CG  110   5.083   6.785   4.838
   10PRO    HG1  111   5.050   6.787   4.944
   10PRO    HG2  112   5.123   6.685   4.810
   10PRO      C  113   4.945   6.929   4.512
   10PRO      O  114   4.937   7.045   4.526
   11GLY      N  115   4.892   6.862   4.406
   11GLY     HN  116   4.897   6.762   4.400
   11GLY     CA  117   4.812   6.933   4.301
   11GLY    HA1  118   4.803   6.880   4.207
   11GLY    HA2  119   4.856   7.031   4.292
   11GLY      C  120   4.671   6.954   4.343
   11GLY      O  121   4.624   6.910   4.452
   12PRO      N  122   4.585   7.009   4.252
   12PRO     CD  123   4.629   7.062   4.123
   12PRO    HD1  124   4.677   6.988   4.056
   12PRO    HD2  125   4.693   7.151   4.140
   12PRO     CA  126   4.445   7.034   4.272
   12PRO     HA  127   4.424   7.068   4.372
   12PRO     CB  128   4.412   7.146   4.174
   12PRO    HB1  129   4.439   7.242   4.224
   12PRO    HB2  130   4.308   7.153   4.137
   12PRO     CG  131   4.505   7.114   4.057
   12PRO    HG1  132   4.470   7.044   3.978
   12PRO    HG2  133   4.522   7.209   4.003
   12PRO      C  134   4.353   6.914   4.259
   12PRO      O  135   4.235   6.935   4.232
   13GLY      N  136   4.395   6.793   4.284
   13GLY     HN  137   4.494   6.788   4.298
   13GLY     CA  138   4.308   6.674   4.286
   13GLY    HA1  139   4.206   6.710   4.291
   13GLY    HA2  140   4.332   6.614   4.373
   13GLY      C  141   4.317   6.586   4.165
   13GLY      O  142   4.400   6.605   4.082
   14ASN      N  143   4.231   6.488   4.148
   14ASN     HN  144   4.175   6.471   4.228
   14ASN     CA  145   4.219   6.390   4.046
   14ASN     HA  146   4.294   6.406   3.970
   14ASN     CB  147   4.229   6.250   4.116
   14ASN    HB1  148   4.199   6.175   4.040
   14ASN    HB2  149   4.155   6.245   4.199
   14ASN     CG  150   4.367   6.235   4.164
   14ASN    OD1  151   4.460   6.305   4.135
   14ASN    ND2  152   4.376   6.134   4.255
   14ASN   HD21  153   4.463   6.105   4.295
   14ASN   HD22  154   4.300   6.075   4.281
   14ASN      C  155   4.084   6.419   3.983
   14ASN      O  156   3.986   6.423   4.059
   15PRO      N  157   4.079   6.446   3.847
   15PRO     CD  158   4.185   6.503   3.768
   15PRO    HD1  159   4.240   6.418   3.722
   15PRO    HD2  160   4.256   6.564   3.829
   15PRO     CA  161   3.952   6.431   3.776
   15PRO     HA  162   3.871   6.494   3.810
   15PRO     CB  163   3.990   6.487   3.641
   15PRO    HB1  164   3.897   6.539   3.608
   15PRO    HB2  165   4.027   6.406   3.574
   15PRO     CG  166   4.097   6.586   3.670
   15PRO    HG1  167   4.149   6.622   3.579
   15PRO    HG2  168   4.051   6.675   3.718
   15PRO      C  169   3.903   6.287   3.774
   15PRO    OT1  170   3.781   6.258   3.794
   15PRO    OT2  171   3.993   6.196   3.754
   16LIT    LIT  172   2.218   5.612   1.992
   17LIT    LIT  173   7.059   3.467   6.495
   18LIT    LIT  174   4.618   2.698   6.762
   19LIT    LIT  175   1.067   6.860   4.467
   20LIT    LIT  176   2.210   1.930   3.144
   21LIT    LIT  177   0.945   6.492   5.796
   22LIT    LIT  178   6.776   7.843   3.996
   23LIT    LIT  179   3.888   2.061   4.697
   24LIT    LIT  180   3.691   5.263   2.974
   25LIT    LIT  181   8.260   6.487   4.458
   26LIT    LIT  182   6.433   7.137   0.351
   27LIT    LIT  183   2.952   5.332   1.728
   28LIT    LIT  184   0.149   4.709   5.528
   29LIT    LIT  185   0.056   4.829   6.671
   30LIT    LIT  186   4.754   1.906   2.833
   31LIT    LIT  187   0.396   2.229   0.366
   32LIT    LIT  188   6.139   0.695   4.490
   33LIT    LIT  189   0.778   5.423   3.301
   34LIT    LIT  190   1.222   0.845   2.253
   35LIT    LIT  191   5.872   4.515   3.232
   36LIT    LIT  192   2.821   1.118   6.503
   37LIT    LIT  193   2.386   1.872   6.074
   38LIT    LIT  194   1.625   3.446   2.928
   39LIT    LIT  195   4.046   6.927   5.282
   40LIT    LIT  196   6.375   1.441   6.576
   41LIT    LIT  197   1.204   5.627   4.981
   42LIT    LIT  198   2.293   2.537   4.866
   43LIT    LIT  199   3.856   6.074   3.848
   44LIT    LIT  200   3.917   4.226   4.563
   45LIT    LIT  201   1.858   3.410   4.804
   46LIT    LIT  202   2.632   1.518   1.292
   47LIT    LIT  203   7.257   2.991   5.172
   48LIT    LIT  204   6.284   1.166   1.121
   49LIT    LIT  205   0.471   1.324   4.734
   50LIT    LIT  206   5.148   4.797   2.213
   51LIT    LIT  207   5.300   1.340   1.850
   52LIT    LIT  208   5.828   3.290   2.555
   53LIT    LIT  209   7.313   7.283   1.395
   54LIT    LIT  210   4.943   6.716   1.440
   55LIT    LIT  211   1.531   3.997   1.335
   56LIT    LIT  212   1.138   3.358   0.124
   57LIT    LIT  213   6.383   2.959   5.015
   58CLA    CLA  214   2.178   3.010   2.381
   59CLA    CLA  215   1.969   7.608   1.492
   60CLA    CLA  216   8.193   1.113   4.141
   61CLA    CLA  217   4.978   2.318   4.034
   62CLA    CLA  218   2.938   2.316   6.736
   63CLA    CLA  219   7.842   6.986   4.288
   64CLA    CLA  220   1.038   6.011   6.009
   65CLA    CLA  221   7.109   6.724   0.508
   66CLA    CLA  222   0.789   6.843   0.752
   67CLA    CLA  223   6.933   3.342   1.486
   68CLA    CLA  224   1.108   5.752   0.873
   69CLA    CLA  225   6.126   4.330   4.795
   70CLA    CLA  226   3.115   6.029   4.178
   71CLA    CLA  227   7.008   4.071   4.896
   72CLA    CLA  228   6.057   5.122   1.938
   73CLA    CLA  229   0.582   4.520   2.133
   74CLA    CLA  230   2.605   5.147   5.160
   75CLA    CLA  231   1.628   3.761   5.425
   76CLA    CLA  232   4.072   1.757   3.788
   77CLA    CLA  233   5.713   4.843   6.762
   78CLA    CLA  234   5.864   7.732   4.936
   79CLA    CLA  235   3.633   5.365   3.457
   80CLA    CLA  236   0.890   4.692   3.093
   81CLA    CLA  237   6.658   6.917   6.636
   82CLA    CLA  238   8.051   1.697   3.767
   83CLA    CLA  239   4.956   6.601   2.081
   84CLA    CLA  240   2.115   5.189   4.083
   85CLA    CLA  241   3.194   6.445   6.117
   86CLA    CLA  242   6.308   1.539   2.359
   87CLA    CLA  243   6.711   0.990   1.294
   88CLA    CLA  244   2.974   7.378   5.778
   89CLA    CLA  245   7.058   4.909   1.088
   90CLA    CLA  246   5.689   2.884   0.251
   91CLA    CLA  247   2.882   0.933   3.329
   92CLA    CLA  248   8.257   4.777   6.473
   93CLA    CLA  249   4.545   3.354   3.876
   94CLA    CLA  250   4.355   4.355   3.307
   95CLA    CLA  251   3.101   1.928   5.189
   96CLA    CLA  252   0.772   3.804   5.699
   97CLA    CLA  253   7.561   6.078   0.253
   98CLA    CLA  254   0.282   5.878   5.039
   99CLA    CLA  255   5.015   0.081   6.465
  100TIP3   OH2  256   3.523   0.233   4.976
  100TIP3    H1  257   3.445   0.282   4.948
  100TIP3    H2  258   3.557   0.284   5.050
  101TIP3   OH2  259   0.693   4.293   3.440
  101TIP3    H1  260   0.618   4.233   3.439
  101TIP3    H2  261   0.765   4.240   3.476
  102TIP3   OH2  262   6.291   0.434   0.806
  102TIP3    H1  263   6.282   0.504   0.871
  102TIP3    H2  264   6.274   0.477   0.722
  103TIP3   OH2  265   1.541   3.223   6.717
  103TIP3    H1  266   1.616   3.200   6.771
  103TIP3    H2  267   1.520   3.143   6.669
  104TIP3   OH2  268   1.930   7.816   6.560
  104TIP3    H1  269   2.017   7.844   6.532
  104TIP3    H2  270   1.942   7.725   6.588
  105TIP3   OH2  271   8.260   5.538   0.059
  105TIP3    H1  272   8.205   5.577   0.128
  105TIP3    H2  273   8.200   5.523  -0.014
  106TIP3   OH2  274   4.630   5.645   5.044
  106TIP3    H1  275   4.648   5.737   5.061
  106TIP3    H2  276   4.568   5.619   5.112
  107TIP3   OH2  277   4.024   3.031   1.825
  107TIP3    H1  278   4.116   3.018   1.803
  107TIP3    H2  279   3.983   3.054   1.741
  108TIP3   OH2  280   3.352   2.787   0.347
  108TIP3    H1  281   3.258   2.800   0.361
  108TIP3    H2  282   3.394   2.854   0.402
  109TIP3   OH2  283   5.038   4.348   5.272
  109TIP3    H1  284   5.122   4.393   5.265
  109TIP3    H2  285   5.029   4.327   5.365
  110TIP3   OH2  286   6.385   5.611   6.364
  110TIP3    H1  287   6.465   5.625   6.415
  110TIP3    H2  288   6.315   5.610   6.430
  111TIP3   OH2  289   6.885   1.472   5.729
  111TIP3    H1  290   6.966   1.474   5.678
  111TIP3    H2  291   6.904   1.414   5.803
  112TIP3   OH2  292   5.605   1.041   5.734
  112TIP3    H1  293   5.664   1.069   5.804
  112TIP3    H2  294   5.643   0.959   5.702
  113TIP3   OH2  295   7.167   6.527   6.547
  113TIP3    H1  296   7.177   6.433   6.539
  113TIP3    H2  297   7.093   6.539   6.606
  114TIP3   OH2  298   5.804   3.380   0.576
  114TIP3    H1  299   5.718   3.384   0.618
  114TIP3    H2  300   5.809   3.460   0.524
  115TIP3   OH2  301   5.376   4.075   4.786
  115TIP3    H1  302   5.467   4.053   4.807
  115TIP3    H2  303   5.327   4.052   4.864
  116TIP3   OH2  304   7.477   2.607   2.310
  116TIP3    H1  305   7.561   2.652   2.308
  116TIP3    H2  306   7.487   2.541   2.379
  117TIP3   OH2  307   4.266   3.675   4.810
  117TIP3    H1  308   4.281   3.688   4.716
  117TIP3    H2  309   4.193   3.613   4.814
  118TIP3   OH2  310   2.981   5.529   4.713
  118TIP3    H1  311   3.041   5.464   4.677
  118TIP3    H2  312   2.977   5.509   4.807
  119TIP3   OH2  313   5.283   6.367   5.644
  119TIP3    H1  314   5.376   6.387   5.650
  119TIP3    H2  315   5.278   6.272   5.655
  120TIP3   OH2  316   1.146   0.466   4.436
  120TIP3    H1  317   1.218   0.405   4.417
  120TIP3    H2  318   1.180   0.551   4.409
  121TIP3   OH2  319   2.435   6.341   4.287
  121TIP3    H1  320   2.402   6.278   4.351
  121TIP3    H2  321   2.382   6.420   4.301
  122TIP3   OH2  322   1.097   2.963  -0.003
  122TIP3    H1  323   1.009   2.926   0.006
  122TIP3    H2  324   1.150   2.892  -0.038
  123TIP3   OH2  325   0.117   7.245   3.480
  123TIP3    H1  326   0.146   7.166   3.433
  123TIP3    H2  327   0.036   7.219   3.523
  124TIP3   OH2  328   8.031   5.405   3.414
  124TIP3    H1  329   7.948   5.444   3.441
  124TIP3    H2  330   8.096   5.472   3.432
  125TIP3   OH2  331   3.838   7.450   0.520
  125TIP3    H1  332   3.829   7.526   0.462
  125TIP3    H2  333   3.924   7.414   0.499
  126TIP3   OH2  334   1.767   0.379   4.278
  126TIP3    H1  335   1.774   0.411   4.368
  126TIP3    H2  336   1.848   0.330   4.263
  127TIP3   OH2  337   1.793   0.880   5.657
  127TIP3    H1  338   1.849   0.948   5.695
  127TIP3    H2  339   1.767   0.914   5.572
  128TIP3   OH2  340   1.439   3.249   5.704
  128TIP3    H1  341   1.412   3.340   5.691
  128TIP3    H2  342   1.466   3.245   5.796
  129TIP3   OH2  343   1.583   2.210   5.883
  129TIP3    H1  344   1.548   2.240   5.967
  129TIP3    H2  345   1.656   2.153   5.906
  130TIP3   OH2  346   1.669   0.893   1.223
  130TIP3    H1  347   1.680   0.865   1.314
  130TIP3    H2  348   1.728   0.836   1.173
  131TIP3   OH2  349   2.545   1.552   5.185
  131TIP3    H1  350   2.599   1.625   5.154
  131TIP3    H2  351   2.540   1.566   5.280
  132TIP3   OH2  352   1.306   4.991   1.976
  132TIP3    H1  353   1.358   5.060   1.934
  132TIP3    H2  354   1.292   4.927   1.906
  133TIP3   OH2  355   1.579   2.586   2.401
  133TIP3    H1  356   1.607   2.605   2.491
  133TIP3    H2  357   1.524   2.660   2.377
  134TIP3   OH2  358   3.330   1.355   4.613
  134TIP3    H1  359   3.329   1.402   4.696
  134TIP3    H2  360   3.395   1.286   4.625
  135TIP3   OH2  361   4.975   2.159   1.997
  135TIP3    H1  362   5.052   2.196   2.039
  135TIP3    H2  363   4.927   2.116   2.069
  136TIP3   OH2  364   1.771   3.175   5.815
  136TIP3    H1  365   1.840   3.222   5.861
  136TIP3    H2  366   1.690   3.215   5.846
  137TIP3   OH2  367   2.259   6.410   1.713
  137TIP3    H1  368   2.217   6.404   1.628
  137TIP3    H2  369   2.190   6.443   1.771
  138TIP3   OH2  370   5.790   2.935   1.190
  138TIP3    H1  371   5.725   2.912   1.123
  138TIP3    H2  372   5.743   2.995   1.248
  139TIP3   OH2  373   5.287   0.899   5.504
  139TIP3    H1  374   5.309   0.921   5.595
  139TIP3    H2  375   5.217   0.959   5.481
  140TIP3   OH2  376   8.128   2.865   4.400
  140TIP3    H1  377   8.156   2.805   4.330
  140TIP3    H2  378   8.045   2.828   4.430
  141TIP3   OH2  379   7.156   1.206   3.500
  141TIP3    H1  380   7.125   1.294   3.480
  141TIP3    H2  381   7.095   1.173   3.567
  142TIP3   OH2  382   6.348   6.088   6.033
  142TIP3    H1  383   6.398   6.108   6.112
  142TIP3    H2  384   6.267   6.048   6.066
  143TIP3   OH2  385   6.683   5.974   6.107
  143TIP3    H1  386   6.693   6.068   6.087
  143TIP3    H2  387   6.700   5.930   6.024
  144TIP3   OH2  388   4.486   6.711   2.131
  144TIP3    H1  389   4.471   6.708   2.226
  144TIP3    H2  390   4.555   6.646   2.116
  145TIP3   OH2  391   5.725   0.895   5.409
  145TIP3    H1  392   5.714   0.961   5.477
  145TIP3    H2  393   5.818   0.872   5.413
  146TIP3   OH2  394   2.090   3.605   3.825
  146TIP3    H1  395   2.057   3.661   3.895
  146TIP3    H2  396   2.180   3.634   3.811
  147TIP3   OH2  397   7.313   1.916   0.965
  147TIP3    H1  398   7.266   1.891   1.044
  147TIP3    H2  399   7.244   1.925   0.899
  148TIP3   OH2  400   5.850   0.562   0.692
  148TIP3    H1  401   5.927   0.601   0.734
  148TIP3    H2  402   5.873   0.469   0.684
  149TIP3   OH2  403   1.014   1.528   4.653
  149TIP3    H1  404   1.024   1.434   4.667
  149TIP3    H2  405   1.012   1.565   4.741
  150TIP3   OH2  406   5.480   0.795   1.012
  150TIP3    H1  407   5.396   0.797   0.967
  150TIP3    H2  408   5.543   0.769   0.944
  151TIP3   OH2  409   4.327   4.112   2.926
  151TIP3    H1  410   4.306   4.112   3.019
  151TIP3    H2  411   4.284   4.034   2.891
  152TIP3   OH2  412   5.619   0.310   1.379
  152TIP3    H1  413   5.657   0.234   1.335
  152TIP3    H2  414   5.533   0.320   1.340
  153TIP3   OH2  415   1.397   3.299   0.550
  153TIP3    H1  416   1.334   3.228   0.558
  153TIP3    H2  417   1.344   3.379   0.555
  154TIP3   OH2  418   5.924   5.351   5.226
  154TIP3    H1  419   6.019   5.344   5.217
  154TIP3    H2  420   5.910   5.381   5.316
  155TIP3   OH2  421   1.730   5.716   5.071
  155TIP3    H1  422   1.822   5.740   5.066
  155TIP3    H2  423   1.686   5.776   5.011
  156TIP3   OH2  424   6.750   7.283   4.568
  156TIP3    H1  425   6.716   7.194   4.558
  156TIP3    H2  426   6.719   7.311   4.654
  157TIP3   OH2  427   6.725   2.633   3.684
  157TIP3    H1  428   6.678   2.557   3.721
  157TIP3    H2  429   6.778   2.666   3.756
  158TIP3   OH2  430   8.194   2.381   5.705
  158TIP3    H1  431   8.154   2.404   5.620
  158TIP3    H2  432   8.279   2.424   5.703
  159TIP3   OH2  433   7.934   3.590   2.495
  159TIP3    H1  434   7.866   3.656   2.509
  159TIP3    H2  435   7.901   3.512   2.538
  160TIP3   OH2  436   1.931   0.119   6.547
  160TIP3    H1  437   1.885   0.076   6.475
  160TIP3    H2  438   1.882   0.094   6.625
  161TIP3   OH2  439   5.440   3.401   3.396
  161TIP3    H1  440   5.482   3.475   3.439
  161TIP3    H2  441   5.351   3.430   3.379
  162TIP3   OH2  442   0.927   4.947   3.259
  162TIP3    H1  443   0.971   4.992   3.187
  162TIP3    H2  444   0.908   4.860   3.225
  163TIP3   OH2  445   3.241   1.789   6.544
  163TIP3    H1  446   3.191   1.856   6.591
  163TIP3    H2  447   3.208   1.792   6.454
  164TIP3   OH2  448   3.280   3.494   0.463
  164TIP3    H1  449   3.357   3.532   0.505
  164TIP3    H2  450   3.220   3.474   0.535
  165TIP3   OH2  451   2.676   5.796   3.583
  165TIP3    H1  452   2.586   5.824   3.573
  165TIP3    H2  453   2.728   5.873   3.563
  166TIP3   OH2  454   7.896   3.585   5.220
  166TIP3    H1  455   7.964   3.601   5.285
  166TIP3    H2  456   7.944   3.558   5.141
  167TIP3   OH2  457   5.771   1.602   1.622
  167TIP3    H1  458   5.745   1.578   1.533
  167TIP3    H2  459   5.732   1.535   1.678
  168TIP3   OH2  460   6.729   0.848   0.520
  168TIP3    H1  461   6.824   0.834   0.523
  168TIP3    H2  462   6.705   0.868   0.610
  169TIP3   OH2  463   3.793   4.675   0.903
  169TIP3    H1  464   3.794   4.661   0.998
  169TIP3    H2  465   3.815   4.589   0.867
  170TIP3   OH2  466   7.697   2.397   1.214
  170TIP3    H1  467   7.748   2.327   1.254
  170TIP3    H2  468   7.725   2.397   1.122
  171TIP3   OH2  469   0.278   5.570   1.989
  171TIP3    H1  470   0.190   5.538   2.010
  171TIP3    H2  471   0.321   5.582   2.074
  172TIP3   OH2  472   3.196   2.250   3.619
  172TIP3    H1  473   3.278   2.263   3.667
  172TIP3    H2  474   3.224   2.221   3.532
  173TIP3   OH2  475   0.928   2.462   2.788
  173TIP3    H1  476   0.940   2.399   2.859
  173TIP3    H2  477   0.835   2.457   2.767
  174TIP3   OH2  478   0.673   4.415   4.205
  174TIP3    H1  479   0.594   4.433   4.156
  174TIP3    H2  480   0.688   4.494   4.257
  175TIP3   OH2  481   0.416   2.715   0.456
  175TIP3    H1  482   0.469   2.669   0.389
  175TIP3    H2  483   0.366   2.780   0.406
  176TIP3   OH2  484   2.735   0.015   5.217
  176TIP3    H1  485   2.768   0.071   5.287
  176TIP3    H2  486   2.813  -0.007   5.165
  177TIP3   OH2  487   5.564   3.954   0.135
  177TIP3    H1  488   5.540   3.863   0.150
  177TIP3    H2  489   5.542   3.999   0.217
  178TIP3   OH2  490   0.275   2.887   5.062
  178TIP3    H1  491   0.325   2.820   5.015
  178TIP3    H2  492   0.194   2.896   5.012
  179TIP3   OH2  493   1.164   4.018   4.376
  179TIP3    H1  494   1.152   4.112   4.362
  179TIP3    H2  495   1.077   3.981   4.367
  180TIP3   OH2  496   2.912   5.772   0.581
  180TIP3    H1  497   2.922   5.730   0.496
  180TIP3    H2  498   2.822   5.751   0.608
  181TIP3   OH2  499   3.009   1.187   4.622
  181TIP3    H1  500   3.079   1.146   4.674
  181TIP3    H2  501   2.985   1.265   4.671
  182TIP3   OH2  502   5.750   3.566   6.767
  182TIP3    H1  503   5.663   3.594   6.793
  182TIP3    H2  504   5.753   3.583   6.672
  183TIP3   OH2  505   0.354   1.045   2.621
  183TIP3    H1  506   0.435   1.089   2.594
  183TIP3    H2  507   0.325   0.998   2.542
  184TIP3   OH2  508   3.182   4.456   2.118
  184TIP3    H1  509   3.186   4.389   2.050
  184TIP3    H2  510   3.089   4.462   2.141
  185TIP3   OH2  511   1.673   2.832   2.204
  185TIP3    H1  512   1.690   2.740   2.185
  185TIP3    H2  513   1.703   2.879   2.126
  186TIP3   OH2  514   8.116   1.774   5.700
  186TIP3    H1  515   8.185   1.837   5.720
  186TIP3    H2  516   8.120   1.762   5.605
  187TIP3   OH2  517   5.922   0.125   0.867
  187TIP3    H1  518   5.889   0.186   0.801
  187TIP3    H2  519   6.013   0.151   0.880
  188TIP3   OH2  520   7.322   2.233   3.316
  188TIP3    H1  521   7.274   2.205   3.238
  188TIP3    H2  522   7.298   2.325   3.326
  189TIP3   OH2  523   5.958   4.213   4.360
  189TIP3    H1  524   5.962   4.160   4.440
  189TIP3    H2  525   6.039   4.190   4.313
  190TIP3   OH2  526   0.323   1.349   0.607
  190TIP3    H1  527   0.270   1.377   0.532
  190TIP3    H2  528   0.265   1.360   0.682
  191TIP3   OH2  529   4.551   5.433   5.972
  191TIP3    H1  530   4.520   5.504   6.028
  191TIP3    H2  531   4.484   5.365   5.980
  192TIP3   OH2  532   2.178   1.273   1.894
  192TIP3    H1  533   2.211   1.198   1.844
  192TIP3    H2  534   2.244   1.341   1.882
  193TIP3   OH2  535   4.612   3.494   4.480
  193TIP3    H1  536   4.597   3.508   4.386
  193TIP3    H2  537   4.704   3.467   4.485
  194TIP3   OH2  538   4.369   3.655   1.070
  194TIP3    H1  539   4.369   3.702   0.987
  194TIP3    H2  540   4.415   3.573   1.052
  195TIP3   OH2  541   4.324   0.489   5.774
  195TIP3    H1  542   4.238   0.529   5.784
  195TIP3    H2  543   4.378   0.532   5.841
  196TIP3   OH2  544   0.343   6.740   3.769
  196TIP3    H1  545   0.389   6.658   3.783
  196TIP3    H2  546   0.264   6.733   3.821
  197TIP3   OH2  547   1.529   6.304   0.180
  197TIP3    H1  548   1.593   6.252   0.130
  197TIP3    H2  549   1.545   6.394   0.152
  198TIP3   OH2  550   3.603   4.959   5.698
  198TIP3    H1  551   3.508   4.967   5.696
  198TIP3    H2  552   3.636   5.047   5.680
  199TIP3   OH2  553   7.116   2.510   3.178
  199TIP3    H1  554   7.106   2.415   3.179
  199TIP3    H2  555   7.054   2.541   3.245
  200TIP3   OH2  556   5.154   4.401   0.419
  200TIP3    H1  557   5.132   4.419   0.511
  200TIP3    H2  558   5.093   4.456   0.369
  201TIP3   OH2  559   4.592   4.656   5.159
  201TIP3    H1  560   4.568   4.718   5.091
  201TIP3    H2  561   4.533   4.676   5.232
  202TIP3   OH2  562   4.908   6.054   2.483
  202TIP3    H1  563   4.836   6.094   2.532
  202TIP3    H2  564   4.913   5.965   2.518
  203TIP3   OH2  565   1.455   2.438   5.068
  203TIP3    H1  566   1.444   2.533   5.059
  203TIP3    H2  567   1.549   2.425   5.068
  204TIP3   OH2  568   3.149   0.477   3.666
  204TIP3    H1  569   3.232   0.451   3.626
  204TIP3    H2  570   3.099   0.515   3.594
  205TIP3   OH2  571   5.885   3.288   4.473
  205TIP3    H1  572   5.815   3.263   4.532
  205TIP3    H2  573   5.893   3.382   4.483
  206TIP3   OH2  574   5.180   0.430   3.344
  206TIP3    H1  575   5.098   0.477   3.332
  206TIP3    H2  576   5.218   0.425   3.256
  207TIP3   OH2  577   7.851   1.902   5.368
  207TIP3    H1  578   7.774   1.851   5.394
  207TIP3    H2  579   7.922   1.864   5.420
  208TIP3   OH2  580   7.067   7.369   1.965
  208TIP3    H1  581   7.055   7.418   1.883
  208TIP3    H2  582   7.096   7.434   2.028
  209TIP3   OH2  583   7.303   6.317   1.719
  209TIP3    H1  584   7.349   6.236   1.697
  209TIP3    H2  585   7.222   6.288   1.761
  210TIP3   OH2  586   6.486   0.494   1.296
  210TIP3    H1  587   6.523   0.555   1.232
  210TIP3    H2  588   6.562   0.449   1.333
  211TIP3   OH2  589   2.214   0.803   5.937
  211TIP3    H1  590   2.167   0.735   5.987
  211TIP3    H2  591   2.278   0.754   5.885
  212TIP3   OH2  592   1.156   5.895   3.522
  212TIP3    H1  593   1.240   5.896   3.567
  212TIP3    H2  594   1.158   5.971   3.464
  213TIP3   OH2  595   1.090   6.893   3.175
  213TIP3    H1  596   1.174   6.848   3.179
  213TIP3    H2  597   1.042   6.849   3.104
  214TIP3   OH2  598   0.566   4.689   5.247
  214TIP3    H1  599   0.490   4.689   5.189
  214TIP3    H2  600   0.537   4.643   5.325
  215TIP3   OH2  601   7.885   6.335   6.294
  215TIP3    H1  602   7.904   6.257   6.347
  215TIP3    H2  603   7.947   6.401   6.327
  216TIP3   OH2  604   0.107   0.037   2.961
  216TIP3    H1  605   0.032  -0.019   2.981
  216TIP3    H2  606   0.108   0.043   2.866
  217TIP3   OH2  607   0.782   7.195   6.526
  217TIP3    H1  608   0.837   7.197   6.604
  217TIP3    H2  609   0.710   7.255   6.546
  218TIP3   OH2  610   1.099   6.719   1.923
  218TIP3    H1  611   1.035   6.768   1.974
  218TIP3    H2  612   1.137   6.785   1.864
  219TIP3   OH2  613   3.945   4.079   3.915
  219TIP3    H1  614   3.985   3.994   3.896
  219TIP3    H2  615   3.898   4.101   3.835
  220TIP3   OH2  616   4.243   3.421   5.865
  220TIP3    H1  617   4.233   3.470   5.783
  220TIP3    H2  618   4.244   3.488   5.933
  221TIP3   OH2  619   4.459   0.291   1.197
  221TIP3    H1  620   4.492   0.262   1.282
  221TIP3    H2  621   4.383   0.345   1.217
  222TIP3   OH2  622   2.062   2.751   6.389
  222TIP3    H1  623   2.050   2.658   6.367
  222TIP3    H2  624   1.977   2.779   6.423
  223TIP3   OH2  625   0.337   1.134   5.479
  223TIP3    H1  626   0.255   1.094   5.448
  223TIP3    H2  627   0.324   1.228   5.467
  224TIP3   OH2  628   1.029   1.628   4.944
  224TIP3    H1  629   1.000   1.587   5.025
  224TIP3    H2  630   1.114   1.665   4.966
  225TIP3   OH2  631   5.270   3.974   1.005
  225TIP3    H1  632   5.231   4.061   0.999
  225TIP3    H2  633   5.311   3.960   0.919
  226TIP3   OH2  634   0.221   6.874   1.694
  226TIP3    H1  635   0.262   6.948   1.649
  226TIP3    H2  636   0.277   6.799   1.672
  227TIP3   OH2  637   0.236   6.248   1.400
  227TIP3    H1  638   0.258   6.204   1.319
  227TIP3    H2  639   0.202   6.179   1.457
  228TIP3   OH2  640   0.153   1.921   6.756
  228TIP3    H1  641   0.125   1.936   6.666
  228TIP3    H2  642   0.230   1.977   6.767
  229TIP3   OH2  643   6.399   1.074   5.621
  229TIP3    H1  644   6.433   1.038   5.539
  229TIP3    H2  645   6.360   0.999   5.666
  230TIP3   OH2  646   1.012   5.181   6.225
  230TIP3    H1  647   0.962   5.157   6.303
  230TIP3    H2  648   0.946   5.185   6.155
  231TIP3   OH2  649   6.334   0.181   5.916
  231TIP3    H1  650   6.306   0.236   5.989
  231TIP3    H2  651   6.257   0.130   5.893
  232TIP3   OH2  652   0.606   6.286   4.518
  232TIP3    H1  653   0.639   6.278   4.607
  232TIP3    H2  654   0.604   6.196   4.485
  233TIP3   OH2  655   4.282   2.978   6.642
  233TIP3    H1  656   4.285   3.069   6.611
  233TIP3    H2  657   4.227   2.981   6.720
  234TIP3   OH2  658   4.328   3.480   3.496
  234TIP3    H1  659   4.297   3.541   3.563
  234TIP3    H2  660   4.419   3.461   3.522
  235TIP3   OH2  661   8.304   7.572   0.873
  235TIP3    H1  662   8.329   7.660   0.848
  235TIP3    H2  663   8.228   7.552   0.817
  236TIP3   OH2  664   8.248   7.622   4.009
  236TIP3    H1  665   8.283   7.543   3.968
  236TIP3    H2  666   8.247   7.687   3.938
  237TIP3   OH2  667   2.405   6.863   1.019
  237TIP3    H1  668   2.444   6.870   1.106
  237TIP3    H2  669   2.363   6.777   1.018
  238TIP3   OH2  670   1.417   0.531   1.715
  238TIP3    H1  671   1.327   0.512   1.689
  238TIP3    H2  672   1.453   0.584   1.644
  239TIP3   OH2  673   6.665   6.504   2.218
  239TIP3    H1  674   6.688   6.494   2.311
  239TIP3    H2  675   6.743   6.545   2.179
  240TIP3   OH2  676   3.315   3.996   0.660
  240TIP3    H1  677   3.360   3.958   0.585
  240TIP3    H2  678   3.292   3.921   0.715
  241TIP3   OH2  679   5.243   0.001   5.152
  241TIP3    H1  680   5.263  -0.001   5.058
  241TIP3    H2  681   5.150   0.024   5.156
  242TIP3   OH2  682   1.195   4.497   3.297
  242TIP3    H1  683   1.255   4.566   3.267
  242TIP3    H2  684   1.249   4.418   3.299
  243TIP3   OH2  685   4.664   5.928   1.071
  243TIP3    H1  686   4.758   5.909   1.080
  243TIP3    H2  687   4.636   5.951   1.159
  244TIP3   OH2  688   5.709   4.792   2.663
  244TIP3    H1  689   5.702   4.696   2.667
  244TIP3    H2  690   5.761   4.816   2.739
  245TIP3   OH2  691   2.720   4.427   4.379
  245TIP3    H1  692   2.644   4.376   4.411
  245TIP3    H2  693   2.750   4.475   4.456
  246TIP3   OH2  694   5.831   7.232   0.478
  246TIP3    H1  695   5.781   7.248   0.398
  246TIP3    H2  696   5.867   7.317   0.501
  247TIP3   OH2  697   3.443   3.106   2.528
  247TIP3    H1  698   3.473   3.150   2.448
  247TIP3    H2  699   3.477   3.160   2.599
  248TIP3   OH2  700   7.534   5.126   4.828
  248TIP3    H1  701   7.444   5.102   4.807
  248TIP3    H2  702   7.540   5.117   4.923
  249TIP3   OH2  703   6.338   1.274   6.178
  249TIP3    H1  704   6.264   1.332   6.197
  249TIP3    H2  705   6.387   1.319   6.110
  250TIP3   OH2  706   4.561   5.414   0.641
  250TIP3    H1  707   4.478   5.399   0.597
  250TIP3    H2  708   4.589   5.500   0.610
  251TIP3   OH2  709   3.400   2.858   2.009
  251TIP3    H1  710   3.381   2.858   2.103
  251TIP3    H2  711   3.349   2.931   1.975
  252TIP3   OH2  712   0.633   5.529   6.651
  252TIP3    H1  713   0.577   5.606   6.658
  252TIP3    H2  714   0.677   5.538   6.567
  253TIP3   OH2  715   1.228   2.799   2.212
  253TIP3    H1  716   1.136   2.772   2.219
  253TIP3    H2  717   1.277   2.718   2.222
  254TIP3   OH2  718   1.191   5.938   2.915
  254TIP3    H1  719   1.167   5.863   2.969
  254TIP3    H2  720   1.118   5.999   2.926
  255TIP3   OH2  721   6.098   7.014   1.790
  255TIP3    H1  722   6.033   7.074   1.753
  255TIP3    H2  723   6.166   7.071   1.825
  256TIP3   OH2  724   6.948   1.479   1.318
  256TIP3    H1  725   6.861   1.475   1.359
  256TIP3    H2  726   6.964   1.390   1.287
  257TIP3   OH2  727   6.853   6.263   6.207
  257TIP3    H1  728   6.831   6.244   6.116
  257TIP3    H2  729   6.794   6.334   6.232
  258TIP3   OH2  730   0.885   5.779   4.477
  258TIP3    H1  731   0.888   5.684   4.490
  258TIP3    H2  732   0.906   5.792   4.385
  259TIP3   OH2  733   5.267   0.580   4.147
  259TIP3    H1  734   5.297   0.496   4.183
  259TIP3    H2  735   5.219   0.621   4.218
  260TIP3   OH2  736   5.312   3.596   5.620
  260TIP3    H1  737   5.321   3.683   5.657
  260TIP3    H2  738   5.255   3.607   5.544
  261TIP3   OH2  739   4.026   6.715   1.685
  261TIP3    H1  740   4.010   6.626   1.718
  261TIP3    H2  741   4.090   6.752   1.745
  262TIP3   OH2  742   6.849   0.109   0.271
  262TIP3    H1  743   6.841   0.204   0.261
  262TIP3    H2  744   6.770   0.074   0.229
  263TIP3   OH2  745   3.955   0.325   3.828
  263TIP3    H1  746   3.863   0.340   3.810
  263TIP3    H2  747   3.985   0.406   3.868
  264TIP3   OH2  748   5.326   0.550   3.850
  264TIP3    H1  749   5.243   0.544   3.803
  264TIP3    H2  750   5.302   0.549   3.943
  265TIP3   OH2  751   2.300   4.285   0.619
  265TIP3    H1  752   2.364   4.330   0.675
  265TIP3    H2  753   2.311   4.325   0.533
  266TIP3   OH2  754   7.105   7.812   5.866
  266TIP3    H1  755   7.012   7.835   5.863
  266TIP3    H2  756   7.121   7.791   5.958
  267TIP3   OH2  757   6.848   1.004   6.319
  267TIP3    H1  758   6.773   1.028   6.374
  267TIP3    H2  759   6.901   0.948   6.375
  268TIP3   OH2  760   5.735   1.451   1.923
  268TIP3    H1  761   5.766   1.361   1.938
  268TIP3    H2  762   5.815   1.503   1.918
  269TIP3   OH2  763   5.965   4.749   6.601
  269TIP3    H1  764   5.969   4.816   6.532
  269TIP3    H2  765   5.884   4.768   6.648
  270TIP3   OH2  766   3.000   5.507   1.797
  270TIP3    H1  767   3.036   5.554   1.872
  270TIP3    H2  768   2.974   5.576   1.735
  271TIP3   OH2  769   3.990   3.418   4.308
  271TIP3    H1  770   4.064   3.440   4.364
  271TIP3    H2  771   3.924   3.384   4.368
  272TIP3   OH2  772   0.392   2.509   1.144
  272TIP3    H1  773   0.388   2.583   1.084
  272TIP3    H2  774   0.417   2.547   1.228
  273TIP3   OH2  775   1.108   1.252   1.421
  273TIP3    H1  776   1.100   1.250   1.516
  273TIP3    H2  777   1.032   1.303   1.391
  274TIP3   OH2  778   1.892   7.005   2.897
  274TIP3    H1  779   1.943   7.008   2.977
  274TIP3    H2  780   1.845   6.921   2.902
  275TIP3   OH2  781   2.735   0.775   2.632
  275TIP3    H1  782   2.708   0.866   2.644
  275TIP3    H2  783   2.670   0.723   2.679
  276TIP3   OH2  784   6.382   6.582   5.670
  276TIP3    H1  785   6.322   6.537   5.610
  276TIP3    H2  786   6.398   6.667   5.629
  277TIP3   OH2  787   5.370   2.716   5.521
  277TIP3    H1  788   5.387   2.788   5.460
  277TIP3    H2  789   5.361   2.758   5.606
  278TIP3   OH2  790   8.202   4.783   0.536
  278TIP3    H1  791   8.170   4.825   0.616
  278TIP3    H2  792   8.296   4.801   0.536
  279TIP3   OH2  793   1.316   5.491   2.956
  279TIP3    H1  794   1.268   5.555   2.903
  279TIP3    H2  795   1.332   5.418   2.896
  280TIP3   OH2  796   8.299   2.363   2.943
  280TIP3    H1  797   8.345   2.294   2.991
  280TIP3    H2  798   8.325   2.351   2.852
  281TIP3   OH2  799   1.549   2.182   3.327
  281TIP3    H1  800   1.609   2.175   3.401
  281TIP3    H2  801   1.492   2.105   3.335
  282TIP3   OH2  802   0.124   2.628   1.703
  282TIP3    H1  803   0.178   2.705   1.718
  282TIP3    H2  804   0.087   2.642   1.616
  283TIP3   OH2  805   1.755   6.911   6.517
  283TIP3    H1  806   1.715   6.833   6.479
  283TIP3    H2  807   1.706   6.926   6.598
  284TIP3   OH2  808   3.519   5.429   0.101
  284TIP3    H1  809   3.559   5.421   0.015
  284TIP3    H2  810   3.432   5.466   0.084
  285TIP3   OH2  811   2.349   7.704   2.048
  285TIP3    H1  812   2.375   7.742   1.965
  285TIP3    H2  813   2.284   7.765   2.084
  286TIP3   OH2  814   4.866   1.934   5.937
  286TIP3    H1  815   4.853   1.844   5.967
  286TIP3    H2  816   4.778   1.973   5.940
  287TIP3   OH2  817   5.707   0.602   6.313
  287TIP3    H1  818   5.726   0.601   6.219
  287TIP3    H2  819   5.693   0.510   6.335
  288TIP3   OH2  820   6.962   1.917   5.370
  288TIP3    H1  821   6.892   1.853   5.385
  288TIP3    H2  822   6.964   1.969   5.450
  289TIP3   OH2  823   1.151   0.780   0.350
  289TIP3    H1  824   1.159   0.729   0.269
  289TIP3    H2  825   1.086   0.847   0.329
  290TIP3   OH2  826   6.038   6.965   1.498
  290TIP3    H1  827   6.083   6.881   1.488
  290TIP3    H2  828   5.945   6.943   1.494
  291TIP3   OH2  829   3.830   1.655   2.098
  291TIP3    H1  830   3.894   1.720   2.069
  291TIP3    H2  831   3.882   1.579   2.123
  292TIP3   OH2  832   5.723   2.566   6.551
  292TIP3    H1  833   5.688   2.577   6.640
  292TIP3    H2  834   5.653   2.599   6.494
  293TIP3   OH2  835   2.652   0.543   3.537
  293TIP3    H1  836   2.722   0.479   3.529
  293TIP3    H2  837   2.582   0.510   3.481
  294TIP3   OH2  838   3.734   7.764   3.576
  294TIP3    H1  839   3.825   7.735   3.571
  294TIP3    H2  840   3.694   7.731   3.496
  295TIP3   OH2  841   0.672   3.825   2.694
  295TIP3    H1  842   0.687   3.919   2.707
  295TIP3    H2  843   0.583   3.820   2.658
  296TIP3   OH2  844   1.087   1.717   5.321
  296TIP3    H1  845   1.131   1.633   5.334
  296TIP3    H2  846   1.079   1.754   5.409
  297TIP3   OH2  847   2.487   5.191   3.336
  297TIP3    H1  848   2.543   5.168   3.262
  297TIP3    H2  849   2.546   5.191   3.412
  298TIP3   OH2  850   3.502   5.906   6.108
  298TIP3    H1  851   3.417   5.947   6.090
  298TIP3    H2  852   3.490   5.864   6.193
  299TIP3   OH2  853   0.885   4.683   0.137
  299TIP3    H1  854   0.850   4.601   0.173
  299TIP3    H2  855   0.979   4.679   0.156
  300TIP3   OH2  856   5.001   0.006   1.151
  300TIP3    H1  857   4.990  -0.081   1.112
  300TIP3    H2  858   4.911   0.034   1.169
  301TIP3   OH2  859   0.238   5.446   0.103
  301TIP3    H1  860   0.144   5.463   0.102
  301TIP3    H2  861   0.269   5.486   0.184
  302TIP3   OH2  862   6.830   1.989   5.837
  302TIP3    H1  863   6.880   1.944   5.770
  302TIP3    H2  864   6.788   1.918   5.887
  303TIP3   OH2  865   0.586   6.699   1.197
  303TIP3    H1  866   0.584   6.790   1.227
  303TIP3    H2  867   0.495   6.677   1.181
  304TIP3   OH2  868   4.952   5.071   5.200
  304TIP3    H1  869   4.969   5.015   5.124
  304TIP3    H2  870   4.893   5.020   5.255
  305TIP3   OH2  871   6.788   2.092   0.760
  305TIP3    H1  872   6.830   2.177   0.774
  305TIP3    H2  873   6.715   2.111   0.700
  306TIP3   OH2  874   1.055   1.338   0.664
  306TIP3    H1  875   1.075   1.253   0.626
  306TIP3    H2  876   0.960   1.338   0.675
  307TIP3   OH2  877   0.680   2.674   6.056
  307TIP3    H1  878   0.645   2.746   6.003
  307TIP3    H2  879   0.729   2.717   6.126
  308TIP3   OH2  880   7.945   3.802   2.262
  308TIP3    H1  881   8.004   3.828   2.332
  308TIP3    H2  882   7.877   3.869   2.261
  309TIP3   OH2  883   5.586   5.460   1.381
  309TIP3    H1  884   5.573   5.365   1.374
  309TIP3    H2  885   5.557   5.494   1.296
  310TIP3   OH2  886   1.364   3.816   4.420
  310TIP3    H1  887   1.386   3.827   4.512
  310TIP3    H2  888   1.302   3.887   4.402
  311TIP3   OH2  889   1.294   3.837   0.046
  311TIP3    H1  890   1.235   3.870  -0.022
  311TIP3    H2  891   1.378   3.825   0.000
  312TIP3   OH2  892   1.614   7.088   2.075
  312TIP3    H1  893   1.549   7.078   2.006
  312TIP3    H2  894   1.644   6.999   2.094
  313TIP3   OH2  895   4.544   7.794   6.569
  313TIP3    H1  896   4.598   7.802   6.647
  313TIP3    H2  897   4.606   7.791   6.497
  314TIP3   OH2  898   4.751   5.728   6.594
  314TIP3    H1  899   4.842   5.739   6.568
  314TIP3    H2  900   4.742   5.635   6.612
  315TIP3   OH2  901   0.489   0.766   2.256
  315TIP3    H1  902   0.525   0.785   2.169
  315TIP3    H2  903   0.491   0.671   2.262
  316TIP3   OH2  904   6.066   5.671   5.540
  316TIP3    H1  905   6.117   5.668   5.621
  316TIP3    H2  906   6.019   5.587   5.538
  317TIP3   OH2  907   1.405   4.301   6.396
  317TIP3    H1  908   1.368   4.329   6.313
  317TIP3    H2  909   1.496   4.279   6.376
  318TIP3   OH2  910   2.080   5.407   4.308
  318TIP3    H1  911   2.079   5.445   4.220
  318TIP3    H2  912   2.084   5.312   4.293
  319TIP3   OH2  913   3.503   0.110   3.690
  319TIP3    H1  914   3.538   0.185   3.642
  319TIP3    H2  915   3.429   0.080   3.637
  320TIP3   OH2  916   7.991   1.455   0.844
  320TIP3    H1  917   7.908   1.434   0.800
  320TIP3    H2  918   7.965   1.500   0.924
  321TIP3   OH2  919   5.777   2.337   5.579
  321TIP3    H1  920   5.727   2.417   5.597
  321TIP3    H2  921   5.719   2.266   5.605
  322TIP3   OH2  922   0.520   7.270   0.655
  322TIP3    H1  923   0.531   7.216   0.733
  322TIP3    H2  924   0.426   7.287   0.651
  323TIP3   OH2  925   2.300   4.326   4.674
  323TIP3    H1  926   2.278   4.355   4.585
  323TIP3    H2  927   2.369   4.386   4.703
  324TIP3   OH2  928   0.126   2.184   6.475
  324TIP3    H1  929   0.168   2.191   6.390
  324TIP3    H2  930   0.052   2.245   6.470
  325TIP3   OH2  931   2.335   3.702   3.755
  325TIP3    H1  932   2.358   3.677   3.666
  325TIP3    H2  933   2.326   3.797   3.752
  326TIP3   OH2  934   2.152   4.809   2.716
  326TIP3    H1  935   2.060   4.829   2.701
  326TIP3    H2  936   2.179   4.760   2.638
  327TIP3   OH2  937   7.844   2.547   6.107
  327TIP3    H1  938   7.758   2.588   6.109
  327TIP3    H2  939   7.890   2.584   6.182
  328TIP3   OH2  940   2.060   3.452   6.412
  328TIP3    H1  941   2.003   3.396   6.464
  328TIP3    H2  942   2.132   3.395   6.386
  329TIP3   OH2  943   7.844   7.468   6.419
  329TIP3    H1  944   7.803   7.381   6.415
  329TIP3    H2  945   7.831   7.497   6.509
  330TIP3   OH2  946   6.067   0.348   4.243
  330TIP3    H1  947   6.110   0.266   4.267
  330TIP3    H2  948   5.985   0.347   4.292
  331TIP3   OH2  949   5.714   6.267   6.106
  331TIP3    H1  950   5.635   6.232   6.065
  331TIP3    H2  951   5.725   6.216   6.186
  332TIP3   OH2  952   7.469   3.860   0.221
  332TIP3    H1  953   7.389   3.910   0.234
  332TIP3    H2  954   7.536   3.927   0.203
  333TIP3   OH2  955   3.695   4.801   6.212
  333TIP3    H1  956   3.774   4.829   6.257
  333TIP3    H2  957   3.713   4.814   6.119
  334TIP3   OH2  958   6.587   1.150   4.273
  334TIP3    H1  959   6.514   1.103   4.233
  334TIP3    H2  960   6.624   1.201   4.201
  335TIP3   OH2  961   7.950   1.806   6.108
  335TIP3    H1  962   7.979   1.739   6.046
  335TIP3    H2  963   7.913   1.876   6.053
  336TIP3   OH2  964   4.561   7.541   5.972
  336TIP3    H1  965   4.513   7.600   5.914
  336TIP3    H2  966   4.512   7.458   5.967
  337TIP3   OH2  967   2.572   1.730   0.320
  337TIP3    H1  968   2.500   1.791   0.328
  337TIP3    H2  969   2.543   1.652   0.367
  338TIP3   OH2  970   0.568   6.958   1.677
  338TIP3    H1  971   0.531   6.892   1.736
  338TIP3    H2  972   0.499   6.975   1.613
  339TIP3   OH2  973   1.608   6.078   1.504
  339TIP3    H1  974   1.604   6.150   1.568
  339TIP3    H2  975   1.694   6.087   1.463
  340TIP3   OH2  976   7.904   2.245   4.983
  340TIP3    H1  977   7.920   2.311   4.915
  340TIP3    H2  978   7.820   2.269   5.021
  341TIP3   OH2  979   0.640   6.620   4.255
  341TIP3    H1  980   0.602   6.651   4.172
  341TIP3    H2  981   0.660   6.528   4.239
  342TIP3   OH2  982   7.691   5.511   1.363
  342TIP3    H1  983   7.668   5.463   1.284
  342TIP3    H2  984   7.787   5.514   1.362
  343TIP3   OH2  985   6.273   4.083   5.607
  343TIP3    H1  986   6.260   3.989   5.621
  343TIP3    H2  987   6.231   4.125   5.682
  344TIP3   OH2  988   7.167   5.457   3.995
  344TIP3    H1  989   7.253   5.496   4.010
  344TIP3    H2  990   7.177   5.404   3.917
  345TIP3   OH2  991   7.597   1.243   6.240
  345TIP3    H1  992   7.535   1.225   6.311
  345TIP3    H2  993   7.672   1.187   6.258
  346TIP3   OH2  994   1.677   2.385   1.787
  346TIP3    H1  995   1.745   2.350   1.729
  346TIP3    H2  996   1.688   2.337   1.869
  347TIP3   OH2  997   6.616   6.642   3.355
  347TIP3    H1  998   6.632   6.735   3.341
  347TIP3    H2  999   6.522   6.636   3.375
  348TIP3   OH2 1000   5.301   2.770   6.529
  348TIP3    H1 1001   5.301   2.857   6.490
  348TIP3    H2 1002   5.382   2.768   6.581
  349TIP3   OH2 1003   6.059   1.732   6.597
  349TIP3    H1 1004   6.042   1.826   6.586
  349TIP3    H2 1005   5.973   1.691   6.588
  350TIP3   OH2 1006   0.514   7.029   5.759
  350TIP3    H1 1007   0.559   7.109   5.730
  350TIP3    H2 1008   0.546   6.962   5.698
  351TIP3   OH2 1009   6.597   5.244   2.392
  351TIP3    H1 1010   6.557   5.265   2.477
  351TIP3    H2 1011   6.585   5.150   2.383
  352TIP3   OH2 1012   6.889   7.135   1.972
  352TIP3    H1 1013   6.929   7.212   1.933
  352TIP3    H2 1014   6.907   7.064   1.910
  353TIP3   OH2 1015   6.195   3.771   3.181
  353TIP3    H1 1016   6.221   3.707   3.247
  353TIP3    H2 1017   6.196   3.855   3.227
  354TIP3   OH2 1018   6.442   3.708   3.511
  354TIP3    H1 1019   6.426   3.786   3.565
  354TIP3    H2 1020   6.513   3.735   3.452
  355TIP3   OH2 1021   1.189   2.713   3.953
  355TIP3    H1 1022   1.269   2.663   3.970
  355TIP3    H2 1023   1.132   2.694   4.028
  356TIP3   OH2 1024   2.652   1.222   3.890
  356TIP3    H1 1025   2.649   1.310   3.851
  356TIP3    H2 1026   2.738   1.216   3.930
  357TIP3   OH2 1027   0.890   2.618   0.476
  357TIP3    H1 1028   0.965   2.559   0.469
  357TIP3    H2 1029   0.897   2.654   0.565
  358TIP3   OH2 1030   5.528   1.603   3.574
  358TIP3    H1 1031   5.456   1.589   3.512
  358TIP3    H2 1032   5.571   1.683   3.543
  359TIP3   OH2 1033   3.911   3.171   3.041
  359TIP3    H1 1034   3.916   3.097   2.981
  359TIP3    H2 1035   4.002   3.191   3.063
  360TIP3   OH2 1036   6.297   6.772   4.194
  360TIP3    H1 1037   6.267   6.797   4.281
  360TIP3    H2 1038   6.303   6.676   4.198
  361TIP3   OH2 1039   7.711   4.026   6.438
  361TIP3    H1 1040   7.646   4.095   6.427
  361TIP3    H2 1041   7.714   3.981   6.353
  362TIP3   OH2 1042   3.276   4.274   5.522
  362TIP3    H1 1043   3.230   4.250   5.441
  362TIP3    H2 1044   3.293   4.190   5.566
  363TIP3   OH2 1045   3.722   3.906   0.751
  363TIP3    H1 1046   3.766   3.868   0.827
  363TIP3    H2 1047   3.630   3.884   0.762
  364TIP3   OH2 1048   4.126   6.994   5.453
  364TIP3    H1 1049   4.181   7.043   5.513
  364TIP3    H2 1050   4.095   6.919   5.505
  365TIP3   OH2 1051   6.665   7.003   2.554
  365TIP3    H1 1052   6.648   7.092   2.524
  365TIP3    H2 1053   6.581   6.973   2.590
  366TIP3   OH2 1054   4.052   0.426   0.268
  366TIP3    H1 1055   3.962   0.399   0.254
  366TIP3    H2 1056   4.104   0.347   0.254
  367TIP3   OH2 1057   1.666   4.720   5.267
  367TIP3    H1 1058   1.739   4.658   5.263
  367TIP3    H2 1059   1.655   4.749   5.176
  368TIP3   OH2 1060   6.857   5.179   2.054
  368TIP3    H1 1061   6.768   5.213   2.064
  368TIP3    H2 1062   6.847   5.099   2.003
  369TIP3   OH2 1063   0.232   1.807   1.005
  369TIP3    H1 1064   0.227   1.838   1.095
  369TIP3    H2 1065   0.144   1.819   0.970
  370TIP3   OH2 1066   3.499   1.226   2.134
  370TIP3    H1 1067   3.519   1.157   2.197
  370TIP3    H2 1068   3.577   1.234   2.080
  371TIP3   OH2 1069   2.734   5.055   4.086
  371TIP3    H1 1070   2.739   5.134   4.032
  371TIP3    H2 1071   2.658   5.068   4.141
  372TIP3   OH2 1072   5.261   6.026   6.464
  372TIP3    H1 1073   5.174   6.011   6.427
  372TIP3    H2 1074   5.303   5.940   6.462
  373TIP3   OH2 1075   6.648   2.340   1.101
  373TIP3    H1 1076   6.553   2.355   1.095
  373TIP3    H2 1077   6.662   2.317   1.193
  374TIP3   OH2 1078   0.859   7.150   5.789
  374TIP3    H1 1079   0.812   7.221   5.745
  374TIP3    H2 1080   0.855   7.173   5.882
  375TIP3   OH2 1081   2.341   7.307   1.464
  375TIP3    H1 1082   2.322   7.249   1.538
  375TIP3    H2 1083   2.267   7.367   1.461
  376TIP3   OH2 1084   5.994   2.181   1.359
  376TIP3    H1 1085   5.932   2.177   1.432
  376TIP3    H2 1086   6.000   2.275   1.338
  377TIP3   OH2 1087   0.961   1.508   2.500
  377TIP3    H1 1088   1.036   1.451   2.519
  377TIP3    H2 1089   0.947   1.498   2.405
  378TIP3   OH2 1090   6.140   6.031   5.737
  378TIP3    H1 1091   6.153   6.080   5.656
  378TIP3    H2 1092   6.133   6.099   5.805
  379TIP3   OH2 1093   6.463   4.016   3.273
  379TIP3    H1 1094   6.431   4.006   3.362
  379TIP3    H2 1095   6.396   3.974   3.219
  380TIP3   OH2 1096   3.076   1.877   3.525
  380TIP3    H1 1097   3.060   1.930   3.603
  380TIP3    H2 1098   3.170   1.859   3.527
  381TIP3   OH2 1099   3.857   1.814   1.731
  381TIP3    H1 1100   3.775   1.771   1.758
  381TIP3    H2 1101   3.829   1.882   1.670
  382TIP3   OH2 1102   6.602   7.042  -0.059
  382TIP3    H1 1103   6.508   7.023  -0.060
  382TIP3    H2 1104   6.642   6.963  -0.023
  383TIP3   OH2 1105   7.013   0.635   2.589
  383TIP3    H1 1106   7.087   0.590   2.630
  383TIP3    H2 1107   6.968   0.567   2.539
  384TIP3   OH2 1108   3.700   4.606   4.261
  384TIP3    H1 1109   3.726   4.571   4.176
  384TIP3    H2 1110   3.628   4.549   4.289
  385TIP3   OH2 1111   7.218   3.831   2.712
  385TIP3    H1 1112   7.184   3.803   2.797
  385TIP3    H2 1113   7.188   3.763   2.651
  386TIP3   OH2 1114   1.975   7.383   4.849
  386TIP3    H1 1115   1.965   7.331   4.769
  386TIP3    H2 1116   2.046   7.339   4.897
  387TIP3   OH2 1117   2.464   6.835   3.876
  387TIP3    H1 1118   2.441   6.787   3.797
  387TIP3    H2 1119   2.497   6.768   3.936
  388TIP3   OH2 1120   2.076   5.640   1.631
  388TIP3    H1 1121   2.038   5.651   1.718
  388TIP3    H2 1122   2.096   5.730   1.603
  389TIP3   OH2 1123   1.824   1.089   3.140
  389TIP3    H1 1124   1.788   1.039   3.067
  389TIP3    H2 1125   1.830   1.026   3.212
  390TIP3   OH2 1126   7.458   4.675   2.461
  390TIP3    H1 1127   7.409   4.615   2.516
  390TIP3    H2 1128   7.430   4.653   2.372
  391TIP3   OH2 1129   5.991   4.517   1.182
  391TIP3    H1 1130   5.899   4.517   1.209
  391TIP3    H2 1131   5.994   4.454   1.109
  392TIP3   OH2 1132   2.198   5.634   2.962
  392TIP3    H1 1133   2.223   5.726   2.957
  392TIP3    H2 1134   2.221   5.607   3.051
  393TIP3   OH2 1135   0.857   4.095   3.550
  393TIP3    H1 1136   0.916   4.104   3.624
  393TIP3    H2 1137   0.769   4.089   3.589
  394TIP3   OH2 1138   1.204   5.034   6.066
  394TIP3    H1 1139   1.128   5.051   6.121
  394TIP3    H2 1140   1.200   4.940   6.048
  395TIP3   OH2 1141   6.283   3.415   6.147
  395TIP3    H1 1142   6.362   3.467   6.162
  395TIP3    H2 1143   6.226   3.472   6.096
  396TIP3   OH2 1144   4.589   1.925   1.252
  396TIP3    H1 1145   4.637   1.912   1.333
  396TIP3    H2 1146   4.517   1.983   1.276
  397TIP3   OH2 1147   0.068   3.920   1.721
  397TIP3    H1 1148   0.011   3.974   1.665
  397TIP3    H2 1149   0.008   3.867   1.772
  398TIP3   OH2 1150   4.665   0.756   2.792
  398TIP3    H1 1151   4.607   0.751   2.716
  398TIP3    H2 1152   4.643   0.679   2.844
  399TIP3   OH2 1153   6.484   0.581   6.179
  399TIP3    H1 1154   6.451   0.671   6.176
  399TIP3    H2 1155   6.468   0.552   6.269
  400TIP3   OH2 1156   2.417   0.214   0.890
  400TIP3    H1 1157   2.440   0.191   0.980
  400TIP3    H2 1158   2.501   0.216   0.844
  401TIP3   OH2 1159   6.425   0.958   4.190
  401TIP3    H1 1160   6.446   0.869   4.162
  401TIP3    H2 1161   6.330   0.962   4.188
  402TIP3   OH2 1162   1.013   0.875   6.162
  402TIP3    H1 1163   0.919   0.857   6.150
  402TIP3    H2 1164   1.017   0.967   6.188
  403TIP3   OH2 1165   4.908   2.468   3.761
  403TIP3    H1 1166   4.973   2.423   3.708
  403TIP3    H2 1167   4.900   2.414   3.840
  404TIP3   OH2 1168   1.772   6.864   6.215
  404TIP3    H1 1169   1.844   6.833   6.270
  404TIP3    H2 1170   1.693   6.830   6.257
  405TIP3   OH2 1171   3.087   6.936   5.355
  405TIP3    H1 1172   3.047   6.943   5.442
  405TIP3    H2 1173   3.014   6.942   5.294
  406TIP3   OH2 1174   0.057   4.253   2.073
  406TIP3    H1 1175   0.036   4.273   1.981
  406TIP3    H2 1176   0.146   4.284   2.084
  407TIP3   OH2 1177   4.994   4.804   6.457
  407TIP3    H1 1178   4.957   4.892   6.448
  407TIP3    H2 1179   5.067   4.802   6.394
  408TIP3   OH2 1180   7.857   7.593   3.956
  408TIP3    H1 1181   7.798   7.571   3.884
  408TIP3    H2 1182   7.914   7.661   3.921
  409TIP3   OH2 1183   7.556   4.719   3.157
  409TIP3    H1 1184   7.649   4.699   3.164
  409TIP3    H2 1185   7.553   4.810   3.128
  410TIP3   OH2 1186   1.332   5.531   0.999
  410TIP3    H1 1187   1.259   5.586   0.969
  410TIP3    H2 1188   1.400   5.543   0.932
  411TIP3   OH2 1189   6.568   4.987   4.399
  411TIP3    H1 1190   6.571   4.938   4.481
  411TIP3    H2 1191   6.643   5.046   4.403
  412TIP3   OH2 1192   2.299   7.029   0.451
  412TIP3    H1 1193   2.384   6.994   0.476
  412TIP3    H2 1194   2.314   7.122   0.439
  413TIP3   OH2 1195   3.318   3.902   6.219
  413TIP3    H1 1196   3.269   3.984   6.216
  413TIP3    H2 1197   3.277   3.847   6.152
  414TIP3   OH2 1198   3.437   4.725   4.594
  414TIP3    H1 1199   3.405   4.698   4.680
  414TIP3    H2 1200   3.513   4.670   4.578
  415TIP3   OH2 1201   6.604   0.046   3.240
  415TIP3    H1 1202   6.645   0.024   3.323
  415TIP3    H2 1203   6.545   0.118   3.261
  416TIP3   OH2 1204   2.171   1.631   2.395
  416TIP3    H1 1205   2.250   1.580   2.409
  416TIP3    H2 1206   2.199   1.722   2.406
  417TIP3   OH2 1207   1.763   7.104   0.332
  417TIP3    H1 1208   1.752   7.079   0.240
  417TIP3    H2 1209   1.851   7.074   0.354
  418TIP3   OH2 1210   5.647   1.176   2.471
  418TIP3    H1 1211   5.692   1.258   2.488
  418TIP3    H2 1212   5.664   1.123   2.549
  419TIP3   OH2 1213   3.928   2.729   4.008
  419TIP3    H1 1214   3.939   2.662   4.077
  419TIP3    H2 1215   3.849   2.776   4.034
  420TIP3   OH2 1216   6.693   5.790   3.601
  420TIP3    H1 1217   6.734   5.745   3.527
  420TIP3    H2 1218   6.608   5.820   3.568
  421TIP3   OH2 1219   0.464   5.936   2.258
  421TIP3    H1 1220   0.507   6.012   2.217
  421TIP3    H2 1221   0.372   5.961   2.263
  422TIP3   OH2 1222   1.736   3.756   6.173
  422TIP3    H1 1223   1.729   3.740   6.267
  422TIP3    H2 1224   1.649   3.788   6.148
  423TIP3   OH2 1225   0.248   4.331   5.605
  423TIP3    H1 1226   0.322   4.391   5.596
  423TIP3    H2 1227   0.228   4.303   5.516
  424TIP3   OH2 1228   5.705   3.976   0.410
  424TIP3    H1 1229   5.760   4.025   0.349
  424TIP3    H2 1230   5.634   4.036   0.432
  425TIP3   OH2 1231   2.800   5.634   2.877
  425TIP3    H1 1232   2.831   5.721   2.853
  425TIP3    H2 1233   2.773   5.644   2.969
  426TIP3   OH2 1234   1.897   3.450   0.436
  426TIP3    H1 1235   1.916   3.360   0.410
  426TIP3    H2 1236   1.801   3.453   0.443
  427TIP3   OH2 1237   0.729   6.730   1.738
  427TIP3    H1 1238   0.765   6.684   1.662
  427TIP3    H2 1239   0.774   6.814   1.739
  428TIP3   OH2 1240   2.467   5.217   4.709
  428TIP3    H1 1241   2.445   5.140   4.656
  428TIP3    H2 1242   2.522   5.271   4.652
  429TIP3   OH2 1243   6.645   3.192   1.881
  429TIP3    H1 1244   6.643   3.157   1.792
  429TIP3    H2 1245   6.652   3.115   1.937
  430TIP3   OH2 1246   7.363   6.272   4.766
  430TIP3    H1 1247   7.376   6.217   4.843
  430TIP3    H2 1248   7.349   6.210   4.694
  431TIP3   OH2 1249   1.445   4.675   6.204
  431TIP3    H1 1250   1.429   4.603   6.143
  431TIP3    H2 1251   1.403   4.646   6.286
  432TIP3   OH2 1252   0.731   3.705   0.241
  432TIP3    H1 1253   0.644   3.736   0.217
  432TIP3    H2 1254   0.731   3.612   0.217
  433TIP3   OH2 1255   7.959   7.476   6.711
  433TIP3    H1 1256   7.867   7.503   6.716
  433TIP3    H2 1257   7.957   7.382   6.724
  434TIP3   OH2 1258   1.176   2.934   4.274
  434TIP3    H1 1259   1.213   2.970   4.193
  434TIP3    H2 1260   1.178   2.839   4.260
  435TIP3   OH2 1261   5.044   1.896   3.056
  435TIP3    H1 1262   5.076   1.805   3.059
  435TIP3    H2 1263   5.121   1.947   3.030
  436TIP3   OH2 1264   2.135   3.814   1.862
  436TIP3    H1 1265   2.180   3.878   1.918
  436TIP3    H2 1266   2.049   3.804   1.902
  437TIP3   OH2 1267   0.796   0.059   3.563
  437TIP3    H1 1268   0.797  -0.037   3.561
  437TIP3    H2 1269   0.784   0.086   3.472
  438TIP3   OH2 1270   0.397   4.458   4.171
  438TIP3    H1 1271   0.403   4.384   4.232
  438TIP3    H2 1272   0.315   4.501   4.193
  439TIP3   OH2 1273   3.149   1.439   1.415
  439TIP3    H1 1274   3.232   1.403   1.383
  439TIP3    H2 1275   3.135   1.518   1.363
  440TIP3   OH2 1276   1.453   6.754   6.047
  440TIP3    H1 1277   1.419   6.817   6.111
  440TIP3    H2 1278   1.428   6.668   6.082
  441TIP3   OH2 1279   7.979   2.248   6.064
  441TIP3    H1 1280   7.967   2.293   5.981
  441TIP3    H2 1281   7.931   2.300   6.127
  442TIP3   OH2 1282   0.315   4.731   5.623
  442TIP3    H1 1283   0.328   4.794   5.694
  442TIP3    H2 1284   0.383   4.665   5.636
  443TIP3   OH2 1285   5.616   0.289   1.078
  443TIP3    H1 1286   5.617   0.196   1.101
  443TIP3    H2 1287   5.533   0.321   1.113
  444TIP3   OH2 1288   3.605   7.411   4.861
  444TIP3    H1 1289   3.585   7.419   4.955
  444TIP3    H2 1290   3.684   7.463   4.849
  445TIP3   OH2 1291   7.631   6.741   0.660
  445TIP3    H1 1292   7.542   6.775   0.650
  445TIP3    H2 1293   7.620   6.657   0.704
  446TIP3   OH2 1294   4.014   4.911   4.631
  446TIP3    H1 1295   4.101   4.909   4.592
  446TIP3    H2 1296   3.958   4.867   4.568
  447TIP3   OH2 1297   0.122   1.806   4.937
  447TIP3    H1 1298   0.087   1.816   4.848
  447TIP3    H2 1299   0.202   1.859   4.937
  448TIP3   OH2 1300   2.507   6.664   1.691
  448TIP3    H1 1301   2.495   6.607   1.615
  448TIP3    H2 1302   2.601   6.679   1.695
  449TIP3   OH2 1303   0.472   2.429   0.726
  449TIP3    H1 1304   0.564   2.427   0.703
  449TIP3    H2 1305   0.451   2.522   0.735
  450TIP3   OH2 1306   0.709   1.554   4.968
  450TIP3    H1 1307   0.705   1.522   5.058
  450TIP3    H2 1308   0.758   1.487   4.920
  451TIP3   OH2 1309   3.039   6.531   4.666
  451TIP3    H1 1310   3.046   6.523   4.571
  451TIP3    H2 1311   3.025   6.625   4.681
  452TIP3   OH2 1312   6.105   2.005   3.270
  452TIP3    H1 1313   6.076   1.931   3.217
  452TIP3    H2 1314   6.164   1.967   3.335
  453TIP3   OH2 1315   2.340   0.009   3.279
  453TIP3    H1 1316   2.260   0.041   3.321
  453TIP3    H2 1317   2.310  -0.064   3.223
  454TIP3   OH2 1318   7.340   5.299   1.365
  454TIP3    H1 1319   7.310   5.337   1.282
  454TIP3    H2 1320   7.287   5.221   1.377
  455TIP3   OH2 1321   3.466   3.509   2.119
  455TIP3    H1 1322   3.482   3.501   2.213
  455TIP3    H2 1323   3.402   3.439   2.101
  456TIP3   OH2 1324   0.503   5.031   1.018
  456TIP3    H1 1325   0.569   5.011   1.084
  456TIP3    H2 1326   0.430   4.972   1.038
  457TIP3   OH2 1327   1.673   4.410   0.238
  457TIP3    H1 1328   1.679   4.431   0.145
  457TIP3    H2 1329   1.624   4.482   0.276
  458TIP3   OH2 1330   3.511   1.055   6.734
  458TIP3    H1 1331   3.591   1.074   6.685
  458TIP3    H2 1332   3.519   0.962   6.756
  459TIP3   OH2 1333   3.316   2.165   3.020
  459TIP3    H1 1334   3.252   2.168   2.949
  459TIP3    H2 1335   3.296   2.242   3.074
  460TIP3   OH2 1336   3.504   6.290   1.133
  460TIP3    H1 1337   3.500   6.239   1.213
  460TIP3    H2 1338   3.417   6.329   1.124
  461TIP3   OH2 1339   7.120   0.073   3.473
  461TIP3    H1 1340   7.196   0.047   3.421
  461TIP3    H2 1341   7.154   0.081   3.562
  462TIP3   OH2 1342   4.298   2.957   5.087
  462TIP3    H1 1343   4.371   2.900   5.062
  462TIP3    H2 1344   4.333   3.011   5.159
  463TIP3   OH2 1345   0.527   0.958   6.718
  463TIP3    H1 1346   0.466   0.894   6.755
  463TIP3    H2 1347   0.474   1.007   6.655
  464TIP3   OH2 1348   7.603   7.677   6.313
  464TIP3    H1 1349   7.619   7.744   6.247
  464TIP3    H2 1350   7.655   7.602   6.284
  465TIP3   OH2 1351   8.162   2.092   5.312
  465TIP3    H1 1352   8.240   2.037   5.322
  465TIP3    H2 1353   8.147   2.096   5.217
  466TIP3   OH2 1354   1.781   6.558   5.811
  466TIP3    H1 1355   1.773   6.556   5.715
  466TIP3    H2 1356   1.836   6.483   5.831
  467TIP3   OH2 1357   6.766   7.535   2.220
  467TIP3    H1 1358   6.710   7.535   2.298
  467TIP3    H2 1359   6.717   7.483   2.156
  468TIP3   OH2 1360   8.152   6.031  -0.023
  468TIP3    H1 1361   8.096   5.974   0.029
  468TIP3    H2 1362   8.239   6.022   0.017
  469TIP3   OH2 1363   8.056   4.580   6.668
  469TIP3    H1 1364   8.102   4.619   6.595
  469TIP3    H2 1365   8.122   4.528   6.714
  470TIP3   OH2 1366   5.270   6.956   0.150
  470TIP3    H1 1367   5.305   7.027   0.096
  470TIP3    H2 1368   5.334   6.945   0.220
  471TIP3   OH2 1369   0.634   3.716   1.773
  471TIP3    H1 1370   0.713   3.734   1.823
  471TIP3    H2 1371   0.563   3.720   1.837
  472TIP3   OH2 1372   6.301   0.084   4.576
  472TIP3    H1 1373   6.313  -0.011   4.586
  472TIP3    H2 1374   6.321   0.119   4.663
  473TIP3   OH2 1375   7.004   3.464   1.843
  473TIP3    H1 1376   7.006   3.435   1.752
  473TIP3    H2 1377   6.996   3.384   1.894
  474TIP3   OH2 1378   4.520   4.686   4.692
  474TIP3    H1 1379   4.489   4.669   4.603
  474TIP3    H2 1380   4.539   4.600   4.729
  475TIP3   OH2 1381   0.260   3.757   3.995
  475TIP3    H1 1382   0.293   3.694   3.930
  475TIP3    H2 1383   0.262   3.841   3.950
  476TIP3   OH2 1384   0.751   2.356   5.660
  476TIP3    H1 1385   0.680   2.379   5.601
  476TIP3    H2 1386   0.708   2.322   5.739
  477TIP3   OH2 1387   1.139   1.270   5.408
  477TIP3    H1 1388   1.047   1.258   5.385
  477TIP3    H2 1389   1.147   1.230   5.494
  478TIP3   OH2 1390   3.723   0.847   2.196
  478TIP3    H1 1391   3.707   0.921   2.254
  478TIP3    H2 1392   3.742   0.887   2.111
  479TIP3   OH2 1393   2.027   4.756   2.307
  479TIP3    H1 1394   2.060   4.778   2.220
  479TIP3    H2 1395   1.977   4.834   2.333
  480TIP3   OH2 1396   0.785   4.159   4.249
  480TIP3    H1 1397   0.736   4.149   4.331
  480TIP3    H2 1398   0.768   4.250   4.223
  481TIP3   OH2 1399   5.159   2.050   0.436
  481TIP3    H1 1400   5.135   1.986   0.503
  481TIP3    H2 1401   5.107   2.128   0.457
  482TIP3   OH2 1402   3.627   0.554   3.093
  482TIP3    H1 1403   3.712   0.574   3.054
  482TIP3    H2 1404   3.568   0.621   3.057
  483TIP3   OH2 1405   4.414   7.357   1.816
  483TIP3    H1 1406   4.333   7.309   1.800
  483TIP3    H2 1407   4.393   7.417   1.887
  484TIP3   OH2 1408   0.365   6.452   0.272
  484TIP3    H1 1409   0.381   6.434   0.180
  484TIP3    H2 1410   0.289   6.511   0.272
  485TIP3   OH2 1411   4.090   6.686   6.040
  485TIP3    H1 1412   4.023   6.622   6.065
  485TIP3    H2 1413   4.145   6.695   6.117
  486TIP3   OH2 1414   6.934   7.652   3.578
  486TIP3    H1 1415   7.019   7.636   3.619
  486TIP3    H2 1416   6.922   7.579   3.518
  487TIP3   OH2 1417   2.141   7.291   5.828
  487TIP3    H1 1418   2.215   7.250   5.873
  487TIP3    H2 1419   2.149   7.263   5.737
  488TIP3   OH2 1420   6.212   2.304   3.494
  488TIP3    H1 1421   6.279   2.286   3.427
  488TIP3    H2 1422   6.260   2.305   3.576
  489TIP3   OH2 1423   1.887   0.190   2.336
  489TIP3    H1 1424   1.958   0.252   2.320
  489TIP3    H2 1425   1.817   0.218   2.277
  490TIP3   OH2 1426   2.583   0.853   3.420
  490TIP3    H1 1427   2.677   0.862   3.407
  490TIP3    H2 1428   2.562   0.916   3.489
  491TIP3   OH2 1429   1.927   0.280   2.008
  491TIP3    H1 1430   1.968   0.345   1.951
  491TIP3    H2 1431   1.902   0.209   1.949
  492TIP3   OH2 1432   4.610   7.515   2.099
  492TIP3    H1 1433   4.591   7.601   2.137
  492TIP3    H2 1434   4.642   7.534   2.011
  493TIP3   OH2 1435   2.263   5.894   3.008
  493TIP3    H1 1436   2.356   5.897   2.984
  493TIP3    H2 1437   2.228   5.978   2.977
  494TIP3   OH2 1438   7.079   2.267   0.944
  494TIP3    H1 1439   7.056   2.306   1.029
  494TIP3    H2 1440   7.025   2.314   0.881
  495TIP3   OH2 1441   2.358   2.544   1.469
  495TIP3    H1 1442   2.300   2.509   1.402
  495TIP3    H2 1443   2.303   2.605   1.519
  496TIP3   OH2 1444   1.466   2.805   5.888
  496TIP3    H1 1445   1.383   2.841   5.859
  496TIP3    H2 1446   1.529   2.833   5.822
  497TIP3   OH2 1447   4.567   2.147   2.010
  497TIP3    H1 1448   4.482   2.188   2.022
  497TIP3    H2 1449   4.551   2.053   2.024
  498TIP3   OH2 1450   7.189   0.302   2.140
  498TIP3    H1 1451   7.247   0.357   2.192
  498TIP3    H2 1452   7.130   0.262   2.204
  499TIP3   OH2 1453   6.456   6.000   5.002
  499TIP3    H1 1454   6.458   5.926   5.063
  499TIP3    H2 1455   6.364   6.011   4.981
  500TIP3   OH2 1456   0.294   3.026   4.460
  500TIP3    H1 1457   0.234   2.954   4.445
  500TIP3    H2 1458   0.255   3.101   4.415
  501TIP3   OH2 1459   7.368   0.682   0.988
  501TIP3    H1 1460   7.397   0.591   0.984
  501TIP3    H2 1461   7.433   0.730   0.938
  502TIP3   OH2 1462   1.235   7.222   3.013
  502TIP3    H1 1463   1.259   7.265   3.095
  502TIP3    H2 1464   1.318   7.190   2.977
  503TIP3   OH2 1465   5.804   0.294   4.383
  503TIP3    H1 1466   5.789   0.239   4.460
  503TIP3    H2 1467   5.772   0.380   4.408
  504TIP3   OH2 1468   4.154   4.477   3.082
  504TIP3    H1 1469   4.214   4.446   3.150
  504TIP3    H2 1470   4.102   4.400   3.059
  505TIP3   OH2 1471   1.258   0.420   6.138
  505TIP3    H1 1472   1.351   0.406   6.156
  505TIP3    H2 1473   1.215   0.402   6.222
  506TIP3   OH2 1474   5.822   2.082   1.566
  506TIP3    H1 1475   5.730   2.064   1.583
  506TIP3    H2 1476   5.862   1.995   1.560
  507TIP3   OH2 1477   3.704   1.255   1.321
  507TIP3    H1 1478   3.698   1.321   1.252
  507TIP3    H2 1479   3.671   1.299   1.400
  508TIP3   OH2 1480   4.363   0.272   4.888
  508TIP3    H1 1481   4.444   0.230   4.916
  508TIP3    H2 1482   4.301   0.200   4.878
  509TIP3   OH2 1483   8.088   5.747   6.025
  509TIP3    H1 1484   8.030   5.672   6.039
  509TIP3    H2 1485   8.031   5.823   6.036
  510TIP3   OH2 1486   7.345  -0.027   0.484
  510TIP3    H1 1487   7.257   0.010   0.484
  510TIP3    H2 1488   7.382  -0.001   0.400
  511TIP3   OH2 1489   4.299   0.035   3.784
  511TIP3    H1 1490   4.270  -0.008   3.703
  511TIP3    H2 1491   4.230   0.014   3.847
  512TIP3   OH2 1492   1.599   7.352   2.121
  512TIP3    H1 1493   1.652   7.386   2.193
  512TIP3    H2 1494   1.628   7.261   2.110
  513TIP3   OH2 1495   5.004   2.903   3.465
  513TIP3    H1 1496   4.938   2.970   3.449
  513TIP3    H2 1497   5.087   2.951   3.471
  514TIP3   OH2 1498   5.511   3.951   6.636
  514TIP3    H1 1499   5.561   4.008   6.578
  514TIP3    H2 1500   5.425   3.992   6.642
  515TIP3   OH2 1501   2.625   4.296   5.155
  515TIP3    H1 1502   2.618   4.390   5.136
  515TIP3    H2 1503   2.665   4.292   5.242
  516TIP3   OH2 1504   5.694   0.253   6.103
  516TIP3    H1 1505   5.617   0.298   6.139
  516TIP3    H2 1506   5.658   0.195   6.035
  517TIP3   OH2 1507   1.714   2.668   1.911
  517TIP3    H1 1508   1.676   2.741   1.862
  517TIP3    H2 1509   1.685   2.589   1.864
  518TIP3   OH2 1510   0.352   7.552   1.637
  518TIP3    H1 1511   0.271   7.519   1.599
  518TIP3    H2 1512   0.336   7.552   1.732
  519TIP3   OH2 1513   0.417   5.632   3.115
  519TIP3    H1 1514   0.412   5.699   3.047
  519TIP3    H2 1515   0.388   5.677   3.194
  520TIP3   OH2 1516   1.385   4.490   6.005
  520TIP3    H1 1517   1.411   4.521   5.918
  520TIP3    H2 1518   1.396   4.395   6.002
  521TIP3   OH2 1519   5.854   5.885   6.170
  521TIP3    H1 1520   5.950   5.893   6.174
  521TIP3    H2 1521   5.835   5.877   6.077
  522TIP3   OH2 1522   0.062   6.796   1.035
  522TIP3    H1 1523   0.082   6.835   0.950
  522TIP3    H2 1524   0.001   6.725   1.015
  523TIP3   OH2 1525   3.335   5.562   6.446
  523TIP3    H1 1526   3.282   5.619   6.501
  523TIP3    H2 1527   3.374   5.621   6.381
  524TIP3   OH2 1528   8.092   2.947   1.311
  524TIP3    H1 1529   8.143   2.933   1.231
  524TIP3    H2 1530   8.036   2.870   1.318
  525TIP3   OH2 1531   6.634   2.673   5.996
  525TIP3    H1 1532   6.564   2.684   6.059
  525TIP3    H2 1533   6.712   2.655   6.049
  526TIP3   OH2 1534   3.149   1.977   0.365
  526TIP3    H1 1535   3.218   2.005   0.304
  526TIP3    H2 1536   3.079   1.944   0.308
  527TIP3   OH2 1537   3.549   5.366   6.215
  527TIP3    H1 1538   3.555   5.436   6.150
  527TIP3    H2 1539   3.600   5.398   6.289
  528TIP3   OH2 1540   7.115   2.700   1.691
  528TIP3    H1 1541   7.057   2.624   1.691
  528TIP3    H2 1542   7.146   2.705   1.600
  529TIP3   OH2 1543   2.324   5.405   3.406
  529TIP3    H1 1544   2.371   5.457   3.470
  529TIP3    H2 1545   2.373   5.323   3.401
  530TIP3   OH2 1546   7.593   1.223   2.722
  530TIP3    H1 1547   7.552   1.310   2.721
  530TIP3    H2 1548   7.612   1.207   2.814
  531TIP3   OH2 1549   7.800   3.349   3.737
  531TIP3    H1 1550   7.893   3.360   3.754
  531TIP3    H2 1551   7.775   3.426   3.686
  532TIP3   OH2 1552   5.261   5.839   2.260
  532TIP3    H1 1553   5.259   5.825   2.355
  532TIP3    H2 1554   5.212   5.920   2.247
  533TIP3   OH2 1555   5.851   6.850   6.094
  533TIP3    H1 1556   5.782   6.783   6.093
  533TIP3    H2 1557   5.925   6.809   6.049
  534TIP3   OH2 1558   4.463   1.542   2.138
  534TIP3    H1 1559   4.415   1.482   2.081
  534TIP3    H2 1560   4.449   1.508   2.226
  535TIP3   OH2 1561   6.323   3.196   4.137
  535TIP3    H1 1562   6.358   3.202   4.048
  535TIP3    H2 1563   6.401   3.199   4.193
  536TIP3   OH2 1564   4.577   1.652   3.874
  536TIP3    H1 1565   4.492   1.696   3.888
  536TIP3    H2 1566   4.634   1.688   3.941
  537TIP3   OH2 1567   7.946   7.152   0.050
  537TIP3    H1 1568   8.029   7.195   0.028
  537TIP3    H2 1569   7.918   7.193   0.132
  538TIP3   OH2 1570   5.639   6.506   3.537
  538TIP3    H1 1571   5.603   6.424   3.503
  538TIP3    H2 1572   5.726   6.512   3.499
  539TIP3   OH2 1573   2.653   1.187   2.075
  539TIP3    H1 1574   2.740   1.213   2.046
  539TIP3    H2 1575   2.610   1.154   1.996
  540TIP3   OH2 1576   5.666   3.497   3.783
  540TIP3    H1 1577   5.601   3.435   3.749
  540TIP3    H2 1578   5.701   3.541   3.705
  541TIP3   OH2 1579   7.577   3.152   0.288
  541TIP3    H1 1580   7.514   3.084   0.264
  541TIP3    H2 1581   7.572   3.216   0.217
  542TIP3   OH2 1582   0.070   0.526   6.570
  542TIP3    H1 1583   0.149   0.486   6.604
  542TIP3    H2 1584   0.059   0.489   6.483
  543TIP3   OH2 1585   4.876   4.525   5.085
  543TIP3    H1 1586   4.922   4.450   5.123
  543TIP3    H2 1587   4.842   4.493   5.001
  544TIP3   OH2 1588   3.636   5.042   3.578
  544TIP3    H1 1589   3.645   5.100   3.653
  544TIP3    H2 1590   3.654   5.098   3.502
  545TIP3   OH2 1591   7.370   6.144   0.034
  545TIP3    H1 1592   7.413   6.116   0.114
  545TIP3    H2 1593   7.351   6.063  -0.013
  546TIP3   OH2 1594   4.337   0.861   4.110
  546TIP3    H1 1595   4.280   0.902   4.174
  546TIP3    H2 1596   4.331   0.919   4.033
  547TIP3   OH2 1597   4.613   4.889   0.215
  547TIP3    H1 1598   4.589   4.974   0.180
  547TIP3    H2 1599   4.532   4.838   0.216
  548TIP3   OH2 1600   4.216   3.936   1.887
  548TIP3    H1 1601   4.210   3.908   1.978
  548TIP3    H2 1602   4.255   4.023   1.891
  549TIP3   OH2 1603   4.052   5.480   5.831
  549TIP3    H1 1604   3.993   5.498   5.905
  549TIP3    H2 1605   4.084   5.567   5.804
  550TIP3   OH2 1606   6.836   3.022   3.464
  550TIP3    H1 1607   6.755   2.985   3.499
  550TIP3    H2 1608   6.807   3.091   3.405
  551TIP3   OH2 1609   5.739   4.392   1.072
  551TIP3    H1 1610   5.715   4.307   1.036
  551TIP3    H2 1611   5.716   4.386   1.165
  552TIP3   OH2 1612   2.300   1.386   2.628
  552TIP3    H1 1613   2.339   1.452   2.571
  552TIP3    H2 1614   2.364   1.316   2.631
  553TIP3   OH2 1615   7.161   2.613   2.490
  553TIP3    H1 1616   7.251   2.589   2.513
  553TIP3    H2 1617   7.107   2.570   2.556
  554TIP3   OH2 1618   1.119   0.746   1.187
  554TIP3    H1 1619   1.107   0.824   1.134
  554TIP3    H2 1620   1.143   0.779   1.274
  555TIP3   OH2 1621   6.476   3.974   2.408
  555TIP3    H1 1622   6.422   3.905   2.369
  555TIP3    H2 1623   6.546   3.989   2.344
  556TIP3   OH2 1624   5.283   1.162   6.461
  556TIP3    H1 1625   5.250   1.085   6.506
  556TIP3    H2 1626   5.234   1.165   6.378
  557TIP3   OH2 1627   2.160   6.159   4.216
  557TIP3    H1 1628   2.200   6.190   4.297
  557TIP3    H2 1629   2.208   6.080   4.194
  558TIP3   OH2 1630   3.736   1.305   2.008
  558TIP3    H1 1631   3.758   1.347   1.925
  558TIP3    H2 1632   3.815   1.258   2.033
  559TIP3   OH2 1633   4.113   1.167   4.566
  559TIP3    H1 1634   4.186   1.171   4.628
  559TIP3    H2 1635   4.050   1.232   4.598
  560TIP3   OH2 1636   5.529   5.910   2.468
  560TIP3    H1 1637   5.564   5.985   2.420
  560TIP3    H2 1638   5.434   5.916   2.459
  561TIP3   OH2 1639   2.179   4.093   6.049
  561TIP3    H1 1640   2.267   4.063   6.025
  561TIP3    H2 1641   2.165   4.170   5.993
  562TIP3   OH2 1642   2.270   2.790   3.409
  562TIP3    H1 1643   2.278   2.880   3.439
  562TIP3    H2 1644   2.258   2.739   3.489
  563TIP3   OH2 1645   6.506   3.190   5.608
  563TIP3    H1 1646   6.572   3.202   5.540
  563TIP3    H2 1647   6.452   3.118   5.576
  564TIP3   OH2 1648   3.894   7.509   5.992
  564TIP3    H1 1649   3.839   7.438   6.025
  564TIP3    H2 1650   3.983   7.485   6.019
  565TIP3   OH2 1651   3.909   3.890   2.741
  565TIP3    H1 1652   3.974   3.841   2.791
  565TIP3    H2 1653   3.825   3.864   2.780
  566TIP3   OH2 1654   0.035   5.901   0.273
  566TIP3    H1 1655   0.078   5.955   0.206
  566TIP3    H2 1656   0.044   5.811   0.240
  567TIP3   OH2 1657   3.009   4.353   3.642
  567TIP3    H1 1658   2.938   4.396   3.690
  567TIP3    H2 1659   3.044   4.289   3.703
  568TIP3   OH2 1660   1.235   4.401   6.233
  568TIP3    H1 1661   1.262   4.406   6.142
  568TIP3    H2 1662   1.140   4.390   6.230
  569TIP3   OH2 1663   6.685   0.109   4.914
  569TIP3    H1 1664   6.761   0.096   4.858
  569TIP3    H2 1665   6.721   0.123   5.001
  570TIP3   OH2 1666   2.739   5.162   2.965
  570TIP3    H1 1667   2.680   5.204   3.027
  570TIP3    H2 1668   2.786   5.235   2.924
  571TIP3   OH2 1669   1.861   6.245   5.619
  571TIP3    H1 1670   1.796   6.315   5.627
  571TIP3    H2 1671   1.882   6.243   5.525
  572TIP3   OH2 1672   3.297   4.541   3.132
  572TIP3    H1 1673   3.259   4.455   3.113
  572TIP3    H2 1674   3.236   4.604   3.094
  573TIP3   OH2 1675   7.626   3.794   1.164
  573TIP3    H1 1676   7.551   3.808   1.222
  573TIP3    H2 1677   7.597   3.829   1.080
  574TIP3   OH2 1678   2.564   4.788   2.283
  574TIP3    H1 1679   2.592   4.852   2.217
  574TIP3    H2 1680   2.484   4.750   2.247
  575TIP3   OH2 1681   0.545   1.778   1.769
  575TIP3    H1 1682   0.625   1.741   1.733
  575TIP3    H2 1683   0.570   1.810   1.856
  576TIP3   OH2 1684   6.442   4.615   6.234
  576TIP3    H1 1685   6.376   4.637   6.168
  576TIP3    H2 1686   6.516   4.671   6.213
  577TIP3   OH2 1687   7.693   1.650   1.960
  577TIP3    H1 1688   7.696   1.592   2.036
  577TIP3    H2 1689   7.768   1.708   1.971
  578TIP3   OH2 1690   1.021   4.202   4.826
  578TIP3    H1 1691   0.973   4.132   4.871
  578TIP3    H2 1692   1.110   4.196   4.861
  579TIP3   OH2 1693   3.544   2.910   0.084
  579TIP3    H1 1694   3.564   2.961   0.005
  579TIP3    H2 1695   3.557   2.819   0.057
  580TIP3   OH2 1696   0.466   4.091   1.314
  580TIP3    H1 1697   0.415   4.168   1.288
  580TIP3    H2 1698   0.408   4.017   1.296
  581TIP3   OH2 1699   8.120   1.357   3.095
  581TIP3    H1 1700   8.036   1.360   3.050
  581TIP3    H2 1701   8.136   1.447   3.123
  582TIP3   OH2 1702   8.148   3.250   2.469
  582TIP3    H1 1703   8.084   3.256   2.399
  582TIP3    H2 1704   8.184   3.161   2.462
  583TIP3   OH2 1705   2.567   6.982   0.838
  583TIP3    H1 1706   2.648   7.009   0.882
  583TIP3    H2 1707   2.517   6.936   0.906
  584TIP3   OH2 1708   1.567   7.274   6.618
  584TIP3    H1 1709   1.508   7.349   6.628
  584TIP3    H2 1710   1.545   7.216   6.691
  585TIP3   OH2 1711   7.842   6.018   3.762
  585TIP3    H1 1712   7.841   6.001   3.856
  585TIP3    H2 1713   7.857   6.112   3.754
  586TIP3   OH2 1714   3.753   1.187   5.712
  586TIP3    H1 1715   3.681   1.128   5.690
  586TIP3    H2 1716   3.722   1.274   5.687
  587TIP3   OH2 1717   2.956   2.101   3.016
  587TIP3    H1 1718   2.866   2.103   3.049
  587TIP3    H2 1719   3.000   2.036   3.071
  588TIP3   OH2 1720   7.885   7.547   0.938
  588TIP3    H1 1721   7.848   7.627   0.901
  588TIP3    H2 1722   7.958   7.526   0.879
  589TIP3   OH2 1723   5.991   1.415   1.382
  589TIP3    H1 1724   5.998   1.472   1.305
  589TIP3    H2 1725   5.956   1.333   1.347
  590TIP3   OH2 1726   5.132  -0.021   3.068
  590TIP3    H1 1727   5.083   0.035   3.008
  590TIP3    H2 1728   5.162   0.038   3.137
  591TIP3   OH2 1729   8.254   6.269   0.929
  591TIP3    H1 1730   8.286   6.183   0.958
  591TIP3    H2 1731   8.230   6.256   0.838
  592TIP3   OH2 1732   3.403   2.594   1.994
  592TIP3    H1 1733   3.350   2.564   2.068
  592TIP3    H2 1734   3.394   2.689   1.995
  593TIP3   OH2 1735   5.283   2.828   0.494
  593TIP3    H1 1736   5.316   2.857   0.410
  593TIP3    H2 1737   5.349   2.856   0.557
  594TIP3   OH2 1738   5.661   1.148   1.416
  594TIP3    H1 1739   5.656   1.079   1.482
  594TIP3    H2 1740   5.638   1.105   1.334
  595TIP3   OH2 1741   7.871   6.191   0.289
  595TIP3    H1 1742   7.788   6.146   0.305
  595TIP3    H2 1743   7.860   6.231   0.202
  596TIP3   OH2 1744   1.187   0.152   0.434
  596TIP3    H1 1745   1.275   0.164   0.399
  596TIP3    H2 1746   1.149   0.240   0.436
  597TIP3   OH2 1747   8.090   6.679   2.018
  597TIP3    H1 1748   8.178   6.667   1.983
  597TIP3    H2 1749   8.049   6.743   1.960
  598TIP3   OH2 1750   3.149   2.686   2.934
  598TIP3    H1 1751   3.144   2.770   2.887
  598TIP3    H2 1752   3.101   2.625   2.878
  599TIP3   OH2 1753   0.009   5.081   4.333
  599TIP3    H1 1754  -0.019   5.139   4.403
  599TIP3    H2 1755  -0.029   5.118   4.253
  600TIP3   OH2 1756   6.124   6.240   5.921
  600TIP3    H1 1757   6.071   6.318   5.938
  600TIP3    H2 1758   6.205   6.257   5.969
  601TIP3   OH2 1759   7.002   0.328   5.719
  601TIP3    H1 1760   6.951   0.409   5.719
  601TIP3    H2 1761   6.947   0.265   5.671
  602TIP3   OH2 1762   3.114   6.420   2.610
  602TIP3    H1 1763   3.100   6.329   2.639
  602TIP3    H2 1764   3.179   6.413   2.540
  603TIP3   OH2 1765   0.699   0.888   6.231
  603TIP3    H1 1766   0.673   0.862   6.143
  603TIP3    H2 1767   0.698   0.806   6.281
  604TIP3   OH2 1768   0.033   5.467   3.370
  604TIP3    H1 1769   0.022   5.383   3.328
  604TIP3    H2 1770   0.053   5.446   3.462
  605TIP3   OH2 1771   6.097   7.059   2.499
  605TIP3    H1 1772   6.191   7.042   2.501
  605TIP3    H2 1773   6.075   7.082   2.589
  606TIP3   OH2 1774   7.286   0.935   1.834
  606TIP3    H1 1775   7.376   0.944   1.866
  606TIP3    H2 1776   7.232   0.946   1.912
  607TIP3   OH2 1777   5.984   7.214   1.620
  607TIP3    H1 1778   6.032   7.172   1.550
  607TIP3    H2 1779   5.905   7.248   1.579
  608TIP3   OH2 1780   6.439   4.439   0.139
  608TIP3    H1 1781   6.463   4.440   0.046
  608TIP3    H2 1782   6.427   4.531   0.162
  609TIP3   OH2 1783   0.506   2.693   4.555
  609TIP3    H1 1784   0.414   2.675   4.537
  609TIP3    H2 1785   0.537   2.615   4.602
  610TIP3   OH2 1786   3.956   2.733  -0.003
  610TIP3    H1 1787   3.934   2.825  -0.022
  610TIP3    H2 1788   3.898   2.710   0.070
  611TIP3   OH2 1789   2.872   6.807   4.188
  611TIP3    H1 1790   2.809   6.835   4.255
  611TIP3    H2 1791   2.817   6.769   4.119
  612TIP3   OH2 1792   4.013   1.080   1.687
  612TIP3    H1 1793   4.086   1.021   1.670
  612TIP3    H2 1794   3.964   1.081   1.605
  613TIP3   OH2 1795   2.612   3.426   0.717
  613TIP3    H1 1796   2.590   3.481   0.793
  613TIP3    H2 1797   2.527   3.397   0.684
  614TIP3   OH2 1798   6.187   4.681   5.814
  614TIP3    H1 1799   6.177   4.776   5.814
  614TIP3    H2 1800   6.270   4.665   5.858
  615TIP3   OH2 1801   6.855   7.496   3.370
  615TIP3    H1 1802   6.853   7.445   3.289
  615TIP3    H2 1803   6.763   7.507   3.394
  616TIP3   OH2 1804   6.494   4.024   5.769
  616TIP3    H1 1805   6.499   4.107   5.817
  616TIP3    H2 1806   6.426   4.038   5.704
  617TIP3   OH2 1807   6.371   6.403   5.037
  617TIP3    H1 1808   6.441   6.438   5.093
  617TIP3    H2 1809   6.300   6.382   5.098
  618TIP3   OH2 1810   3.345   0.863   6.193
  618TIP3    H1 1811   3.346   0.781   6.244
  618TIP3    H2 1812   3.316   0.929   6.256
  619TIP3   OH2 1813   1.887   4.725   3.186
  619TIP3    H1 1814   1.886   4.757   3.096
  619TIP3    H2 1815   1.803   4.754   3.222
  620TIP3   OH2 1816   3.325   1.562   5.716
  620TIP3    H1 1817   3.282   1.566   5.631
  620TIP3    H2 1818   3.411   1.603   5.701
  621TIP3   OH2 1819   7.827   1.139   6.362
  621TIP3    H1 1820   7.902   1.143   6.302
  621TIP3    H2 1821   7.854   1.191   6.437
  622TIP3   OH2 1822   4.301   1.082   3.963
  622TIP3    H1 1823   4.330   1.173   3.963
  622TIP3    H2 1824   4.265   1.068   3.876
  623TIP3   OH2 1825   5.617   3.899   5.002
  623TIP3    H1 1826   5.635   3.813   5.040
  623TIP3    H2 1827   5.560   3.942   5.066
  624TIP3   OH2 1828   4.421   5.932   2.054
  624TIP3    H1 1829   4.356   5.912   1.987
  624TIP3    H2 1830   4.498   5.961   2.006
  625TIP3   OH2 1831   5.222   6.631   2.580
  625TIP3    H1 1832   5.314   6.629   2.552
  625TIP3    H2 1833   5.209   6.721   2.610
  626TIP3   OH2 1834   2.673   1.782   3.209
  626TIP3    H1 1835   2.670   1.731   3.128
  626TIP3    H2 1836   2.742   1.741   3.261
  627TIP3   OH2 1837   3.293   0.621   5.625
  627TIP3    H1 1838   3.375   0.574   5.642
  627TIP3    H2 1839   3.319   0.713   5.617
  628TIP3   OH2 1840   1.596   1.827   0.919
  628TIP3    H1 1841   1.570   1.835   0.827
  628TIP3    H2 1842   1.653   1.902   0.934
  629TIP3   OH2 1843   5.567   0.946   2.872
  629TIP3    H1 1844   5.580   0.863   2.827
  629TIP3    H2 1845   5.627   1.007   2.829
  630TIP3   OH2 1846   7.399   1.679   5.248
  630TIP3    H1 1847   7.397   1.656   5.155
  630TIP3    H2 1848   7.310   1.709   5.268
  631TIP3   OH2 1849   5.259   7.048   6.574
  631TIP3    H1 1850   5.327   7.088   6.628
  631TIP3    H2 1851   5.307   6.999   6.507
  632TIP3   OH2 1852   6.110   4.062   4.938
  632TIP3    H1 1853   6.144   3.986   4.891
  632TIP3    H2 1854   6.139   4.137   4.887
  633TIP3   OH2 1855   0.179   5.883   5.719
  633TIP3    H1 1856   0.237   5.932   5.778
  633TIP3    H2 1857   0.091   5.911   5.744
  634TIP3   OH2 1858   7.446   5.991   4.290
  634TIP3    H1 1859   7.512   5.945   4.238
  634TIP3    H2 1860   7.398   6.044   4.226
  635TIP3   OH2 1861   7.703   5.506   5.403
  635TIP3    H1 1862   7.673   5.583   5.356
  635TIP3    H2 1863   7.733   5.539   5.487
  636TIP3   OH2 1864   1.635   0.878   4.003
  636TIP3    H1 1865   1.647   0.850   3.912
  636TIP3    H2 1866   1.703   0.832   4.052
  637TIP3   OH2 1867   0.854   5.796   3.834
  637TIP3    H1 1868   0.814   5.841   3.908
  637TIP3    H2 1869   0.900   5.721   3.873
  638TIP3   OH2 1870   4.715   0.830   3.612
  638TIP3    H1 1871   4.663   0.753   3.588
  638TIP3    H2 1872   4.793   0.794   3.653
  639TIP3   OH2 1873   1.944   7.673   2.237
  639TIP3    H1 1874   1.877   7.712   2.293
  639TIP3    H2 1875   1.907   7.675   2.149
  640TIP3   OH2 1876   3.097   4.720   1.858
  640TIP3    H1 1877   3.024   4.688   1.910
  640TIP3    H2 1878   3.066   4.714   1.767
  641TIP3   OH2 1879   6.049   5.541   1.111
  641TIP3    H1 1880   6.004   5.599   1.049
  641TIP3    H2 1881   6.043   5.586   1.195
  642TIP3   OH2 1882   7.774   2.946   3.144
  642TIP3    H1 1883   7.858   2.902   3.152
  642TIP3    H2 1884   7.787   3.032   3.184
  643TIP3   OH2 1885   0.665   2.859   0.432
  643TIP3    H1 1886   0.588   2.808   0.456
  643TIP3    H2 1887   0.738   2.797   0.438
  644TIP3   OH2 1888   3.360   0.758   0.039
  644TIP3    H1 1889   3.452   0.747   0.017
  644TIP3    H2 1890   3.315   0.766  -0.045
  645TIP3   OH2 1891   2.899   3.372   2.916
  645TIP3    H1 1892   2.969   3.420   2.871
  645TIP3    H2 1893   2.939   3.342   2.997
  646TIP3   OH2 1894   0.516   2.521   5.607
  646TIP3    H1 1895   0.438   2.575   5.598
  646TIP3    H2 1896   0.586   2.574   5.568
  647TIP3   OH2 1897   1.985   5.299   1.884
  647TIP3    H1 1898   1.960   5.234   1.819
  647TIP3    H2 1899   1.928   5.282   1.959
  648TIP3   OH2 1900   6.155   2.975   4.641
  648TIP3    H1 1901   6.125   2.905   4.583
  648TIP3    H2 1902   6.184   3.044   4.582
  649TIP3   OH2 1903   2.589   7.064   3.427
  649TIP3    H1 1904   2.559   7.131   3.366
  649TIP3    H2 1905   2.514   7.006   3.439
  650TIP3   OH2 1906   0.236   6.504   3.309
  650TIP3    H1 1907   0.247   6.511   3.214
  650TIP3    H2 1908   0.230   6.410   3.326
  651TIP3   OH2 1909   5.928   4.571   3.779
  651TIP3    H1 1910   5.889   4.526   3.703
  651TIP3    H2 1911   5.853   4.596   3.833
  652TIP3   OH2 1912   3.711   4.387   6.578
  652TIP3    H1 1913   3.685   4.364   6.489
  652TIP3    H2 1914   3.647   4.342   6.635
  653TIP3   OH2 1915   1.639   1.853   4.438
  653TIP3    H1 1916   1.727   1.889   4.452
  653TIP3    H2 1917   1.633   1.780   4.499
  654TIP3   OH2 1918   5.958   1.225   6.631
  654TIP3    H1 1919   6.002   1.195   6.710
  654TIP3    H2 1920   5.883   1.276   6.663
  655TIP3   OH2 1921   6.223   0.558   4.386
  655TIP3    H1 1922   6.171   0.514   4.319
  655TIP3    H2 1923   6.282   0.491   4.419
  656TIP3   OH2 1924   0.447   2.074   0.238
  656TIP3    H1 1925   0.513   2.065   0.169
  656TIP3    H2 1926   0.377   2.014   0.212
  657TIP3   OH2 1927   1.111   4.739   6.271
  657TIP3    H1 1928   1.161   4.731   6.189
  657TIP3    H2 1929   1.038   4.796   6.248
  658TIP3   OH2 1930   7.568   1.786   6.214
  658TIP3    H1 1931   7.631   1.850   6.181
  658TIP3    H2 1932   7.552   1.813   6.304
  659TIP3   OH2 1933   6.910   2.516   3.461
  659TIP3    H1 1934   6.861   2.535   3.541
  659TIP3    H2 1935   6.842   2.494   3.397
  660TIP3   OH2 1936   5.420   7.506   5.580
  660TIP3    H1 1937   5.394   7.511   5.672
  660TIP3    H2 1938   5.420   7.412   5.560
  661TIP3   OH2 1939   7.343   1.628   6.308
  661TIP3    H1 1940   7.289   1.707   6.317
  661TIP3    H2 1941   7.429   1.661   6.281
  662TIP3   OH2 1942   8.197   2.138   0.242
  662TIP3    H1 1943   8.197   2.214   0.184
  662TIP3    H2 1944   8.213   2.174   0.329
  663TIP3   OH2 1945   5.868   3.634   0.462
  663TIP3    H1 1946   5.826   3.718   0.475
  663TIP3    H2 1947   5.951   3.641   0.510
  664TIP3   OH2 1948   3.519   4.074   4.434
  664TIP3    H1 1949   3.520   4.062   4.339
  664TIP3    H2 1950   3.475   3.996   4.468
  665TIP3   OH2 1951   4.933   2.494   1.804
  665TIP3    H1 1952   4.902   2.404   1.815
  665TIP3    H2 1953   4.854   2.548   1.809
  666TIP3   OH2 1954   7.359   0.146   3.628
  666TIP3    H1 1955   7.386   0.188   3.546
  666TIP3    H2 1956   7.410   0.190   3.696
  667TIP3   OH2 1957   1.234   4.268   4.617
  667TIP3    H1 1958   1.230   4.243   4.709
  667TIP3    H2 1959   1.153   4.233   4.580
  668TIP3   OH2 1960   1.729   2.939   2.443
  668TIP3    H1 1961   1.680   2.887   2.506
  668TIP3    H2 1962   1.690   2.919   2.358
  669TIP3   OH2 1963   6.024   4.071   4.597
  669TIP3    H1 1964   6.043   3.979   4.614
  669TIP3    H2 1965   6.072   4.119   4.664
  670TIP3   OH2 1966   4.028   3.134   6.123
  670TIP3    H1 1967   4.018   3.171   6.035
  670TIP3    H2 1968   4.102   3.073   6.115
  671TIP3   OH2 1969   6.579   6.970   3.372
  671TIP3    H1 1970   6.536   7.011   3.297
  671TIP3    H2 1971   6.634   7.039   3.409
  672TIP3   OH2 1972   6.215   4.139   4.231
  672TIP3    H1 1973   6.254   4.181   4.154
  672TIP3    H2 1974   6.289   4.099   4.276
  673TIP3   OH2 1975   4.948   1.286   4.953
  673TIP3    H1 1976   4.946   1.332   4.869
  673TIP3    H2 1977   5.012   1.216   4.941
  674TIP3   OH2 1978   5.546   6.714   0.823
  674TIP3    H1 1979   5.612   6.779   0.798
  674TIP3    H2 1980   5.596   6.643   0.862
  675TIP3   OH2 1981   6.417   0.244   3.272
  675TIP3    H1 1982   6.335   0.235   3.321
  675TIP3    H2 1983   6.445   0.334   3.290
  676TIP3   OH2 1984   3.350   5.418   6.696
  676TIP3    H1 1985   3.434   5.373   6.687
  676TIP3    H2 1986   3.336   5.459   6.611
  677TIP3   OH2 1987   1.424   7.805   2.191
  677TIP3    H1 1988   1.391   7.715   2.202
  677TIP3    H2 1989   1.478   7.801   2.112
  678TIP3   OH2 1990   2.944   6.040   5.382
  678TIP3    H1 1991   2.997   6.112   5.348
  678TIP3    H2 1992   3.000   5.998   5.447
  679TIP3   OH2 1993   3.972   5.398   4.869
  679TIP3    H1 1994   3.980   5.379   4.962
  679TIP3    H2 1995   3.934   5.319   4.830
  680TIP3   OH2 1996   1.891   4.118   5.539
  680TIP3    H1 1997   1.975   4.158   5.561
  680TIP3    H2 1998   1.833   4.193   5.523
  681TIP3   OH2 1999   4.532   1.571   0.491
  681TIP3    H1 2000   4.494   1.532   0.569
  681TIP3    H2 2001   4.569   1.497   0.443
  682TIP3   OH2 2002   5.641   1.467   3.086
  682TIP3    H1 2003   5.727   1.509   3.091
  682TIP3    H2 2004   5.660   1.374   3.078
  683TIP3   OH2 2005   1.850   6.560   3.993
  683TIP3    H1 2006   1.900   6.549   4.074
  683TIP3    H2 2007   1.879   6.645   3.958
  684TIP3   OH2 2008   3.656   1.945   3.824
  684TIP3    H1 2009   3.646   1.950   3.919
  684TIP3    H2 2010   3.647   1.852   3.804
  685TIP3   OH2 2011   6.420   2.872   6.181
  685TIP3    H1 2012   6.463   2.823   6.251
  685TIP3    H2 2013   6.426   2.964   6.207
  686TIP3   OH2 2014   3.128   3.512   4.150
  686TIP3    H1 2015   3.157   3.422   4.166
  686TIP3    H2 2016   3.186   3.566   4.203
  687TIP3   OH2 2017   4.052   6.818   1.022
  687TIP3    H1 2018   4.032   6.727   1.043
  687TIP3    H2 2019   4.102   6.849   1.097
  688TIP3   OH2 2020   1.531   1.394   0.385
  688TIP3    H1 2021   1.452   1.340   0.374
  688TIP3    H2 2022   1.551   1.425   0.296
  689TIP3   OH2 2023   4.968   4.745   3.004
  689TIP3    H1 2024   4.994   4.741   3.096
  689TIP3    H2 2025   4.964   4.838   2.984
  690TIP3   OH2 2026   6.709   5.166   3.649
  690TIP3    H1 2027   6.647   5.093   3.653
  690TIP3    H2 2028   6.720   5.194   3.741
  691TIP3   OH2 2029   0.853   1.041   4.209
  691TIP3    H1 2030   0.769   1.086   4.212
  691TIP3    H2 2031   0.911   1.093   4.264
  692TIP3   OH2 2032   0.475   4.658   3.977
  692TIP3    H1 2033   0.425   4.739   3.983
  692TIP3    H2 2034   0.440   4.603   4.048
  693TIP3   OH2 2035   6.983   1.926   0.188
  693TIP3    H1 2036   7.049   1.874   0.143
  693TIP3    H2 2037   6.971   2.003   0.132
  694TIP3   OH2 2038   1.232   7.627   2.022
  694TIP3    H1 2039   1.263   7.541   1.994
  694TIP3    H2 2040   1.257   7.686   1.951
  695TIP3   OH2 2041   4.635   0.043   2.752
  695TIP3    H1 2042   4.639   0.101   2.676
  695TIP3    H2 2043   4.559  -0.012   2.737
  696TIP3   OH2 2044   1.463   3.997   4.661
  696TIP3    H1 2045   1.457   3.918   4.714
  696TIP3    H2 2046   1.463   4.069   4.724
  697TIP3   OH2 2047   0.718   6.769   2.880
  697TIP3    H1 2048   0.767   6.848   2.858
  697TIP3    H2 2049   0.642   6.772   2.822
  698TIP3   OH2 2050   5.719   0.550   5.093
  698TIP3    H1 2051   5.655   0.556   5.022
  698TIP3    H2 2052   5.668   0.521   5.169
  699TIP3   OH2 2053   5.070   7.447   4.064
  699TIP3    H1 2054   5.017   7.515   4.107
  699TIP3    H2 2055   5.020   7.366   4.076
  700TIP3   OH2 2056   6.361   0.461   3.628
  700TIP3    H1 2057   6.330   0.432   3.714
  700TIP3    H2 2058   6.395   0.382   3.587
  701TIP3   OH2 2059   4.419   4.963   3.478
  701TIP3    H1 2060   4.330   4.933   3.457
  701TIP3    H2 2061   4.409   5.013   3.559
  702TIP3   OH2 2062   3.817   3.312   0.327
  702TIP3    H1 2063   3.814   3.219   0.347
  702TIP3    H2 2064   3.842   3.315   0.234
  703TIP3   OH2 2065   6.966   5.746   5.899
  703TIP3    H1 2066   7.014   5.824   5.928
  703TIP3    H2 2067   6.961   5.755   5.804
  704TIP3   OH2 2068   5.519   1.700   0.269
  704TIP3    H1 2069   5.473   1.707   0.353
  704TIP3    H2 2070   5.517   1.789   0.233
  705TIP3   OH2 2071   7.569   5.418   0.255
  705TIP3    H1 2072   7.498   5.354   0.258
  705TIP3    H2 2073   7.526   5.502   0.271
  706TIP3   OH2 2074   4.452   2.726   6.251
  706TIP3    H1 2075   4.385   2.660   6.231
  706TIP3    H2 2076   4.515   2.719   6.180
  707TIP3   OH2 2077   7.511   0.265   2.995
  707TIP3    H1 2078   7.555   0.302   2.918
  707TIP3    H2 2079   7.433   0.224   2.960
  708TIP3   OH2 2080   7.111   4.674   6.607
  708TIP3    H1 2081   7.035   4.659   6.662
  708TIP3    H2 2082   7.142   4.761   6.632
  709TIP3   OH2 2083   1.813   4.430   4.614
  709TIP3    H1 2084   1.746   4.372   4.580
  709TIP3    H2 2085   1.876   4.372   4.656
  710TIP3   OH2 2086   2.165   4.104   2.765
  710TIP3    H1 2087   2.180   4.064   2.851
  710TIP3    H2 2088   2.242   4.159   2.750
  711TIP3   OH2 2089   6.688   2.410   5.346
  711TIP3    H1 2090   6.622   2.443   5.407
  711TIP3    H2 2091   6.727   2.335   5.392
  712TIP3   OH2 2092   5.852   2.591   5.362
  712TIP3    H1 2093   5.821   2.501   5.354
  712TIP3    H2 2094   5.889   2.596   5.450
  713TIP3   OH2 2095   7.026   3.806   5.101
  713TIP3    H1 2096   7.028   3.874   5.032
  713TIP3    H2 2097   6.932   3.795   5.119
  714TIP3   OH2 2098   4.325   5.898   5.289
  714TIP3    H1 2099   4.323   5.881   5.383
  714TIP3    H2 2100   4.365   5.819   5.252
  715TIP3   OH2 2101   1.628   5.340   4.501
  715TIP3    H1 2102   1.641   5.422   4.452
  715TIP3    H2 2103   1.701   5.337   4.563
  716TIP3   OH2 2104   2.620   2.033   5.700
  716TIP3    H1 2105   2.671   2.083   5.637
  716TIP3    H2 2106   2.685   1.977   5.744
  717TIP3   OH2 2107   0.729   5.976   2.982
  717TIP3    H1 2108   0.715   5.947   3.072
  717TIP3    H2 2109   0.713   5.898   2.929
  718TIP3   OH2 2110   6.726   3.150   3.245
  718TIP3    H1 2111   6.736   3.221   3.181
  718TIP3    H2 2112   6.632   3.137   3.251
  719TIP3   OH2 2113   7.129   3.658   2.516
  719TIP3    H1 2114   7.147   3.564   2.507
  719TIP3    H2 2115   7.189   3.700   2.454
  720TIP3   OH2 2116   6.524   7.779   0.592
  720TIP3    H1 2117   6.586   7.834   0.545
  720TIP3    H2 2118   6.440   7.824   0.583
  721TIP3   OH2 2119   6.553   0.415   0.082
  721TIP3    H1 2120   6.552   0.442  -0.010
  721TIP3    H2 2121   6.556   0.319   0.078
  722TIP3   OH2 2122   0.412   3.463   3.135
  722TIP3    H1 2123   0.359   3.394   3.096
  722TIP3    H2 2124   0.351   3.537   3.145
  723TIP3   OH2 2125   1.342   1.734   6.722
  723TIP3    H1 2126   1.339   1.694   6.809
  723TIP3    H2 2127   1.250   1.742   6.697
  724TIP3   OH2 2128   4.269   7.116   6.730
  724TIP3    H1 2129   4.312   7.200   6.750
  724TIP3    H2 2130   4.342   7.056   6.715
  725TIP3   OH2 2131   5.458   2.262   4.949
  725TIP3    H1 2132   5.506   2.299   4.875
  725TIP3    H2 2133   5.515   2.279   5.024
  726TIP3   OH2 2134   3.618   6.432   2.836
  726TIP3    H1 2135   3.597   6.525   2.843
  726TIP3    H2 2136   3.576   6.392   2.913
  727TIP3   OH2 2137   0.388   3.439   6.365
  727TIP3    H1 2138   0.300   3.429   6.330
  727TIP3    H2 2139   0.429   3.505   6.309
  728TIP3   OH2 2140   7.999   4.879   1.956
  728TIP3    H1 2141   8.022   4.917   1.872
  728TIP3    H2 2142   8.035   4.940   2.020
  729TIP3   OH2 2143   1.019   4.710   0.612
  729TIP3    H1 2144   0.930   4.676   0.605
  729TIP3    H2 2145   1.064   4.676   0.534
  730TIP3   OH2 2146   6.983   4.121   3.521
  730TIP3    H1 2147   6.974   4.046   3.580
  730TIP3    H2 2148   6.983   4.082   3.433
  731TIP3   OH2 2149   8.034   1.651   2.531
  731TIP3    H1 2150   8.084   1.733   2.536
  731TIP3    H2 2151   7.944   1.677   2.552
  732TIP3   OH2 2152   1.424   3.562   5.751
  732TIP3    H1 2153   1.510   3.589   5.784
  732TIP3    H2 2154   1.363   3.585   5.822
  733TIP3   OH2 2155   6.843   1.872   3.148
  733TIP3    H1 2156   6.834   1.777   3.136
  733TIP3    H2 2157   6.810   1.889   3.236
  734TIP3   OH2 2158   2.392   7.313   2.595
  734TIP3    H1 2159   2.403   7.407   2.581
  734TIP3    H2 2160   2.468   7.287   2.646
  735TIP3   OH2 2161   3.233   5.843   1.518
  735TIP3    H1 2162   3.321   5.819   1.547
  735TIP3    H2 2163   3.238   5.845   1.423
  736TIP3   OH2 2164   7.714   5.044   5.415
  736TIP3    H1 2165   7.630   5.052   5.371
  736TIP3    H2 2166   7.757   5.129   5.400
  737TIP3   OH2 2167   5.505   6.679   3.702
  737TIP3    H1 2168   5.500   6.678   3.797
  737TIP3    H2 2169   5.567   6.610   3.680
  738TIP3   OH2 2170   8.184   4.629   3.076
  738TIP3    H1 2171   8.247   4.699   3.092
  738TIP3    H2 2172   8.113   4.671   3.027
  739TIP3   OH2 2173   4.959   3.964   1.818
  739TIP3    H1 2174   4.902   3.892   1.845
  739TIP3    H2 2175   4.898   4.033   1.792
  740TIP3   OH2 2176   1.303   0.123   0.722
  740TIP3    H1 2177   1.220   0.158   0.754
  740TIP3    H2 2178   1.361   0.200   0.719
  741TIP3   OH2 2179   4.120   1.995   2.611
  741TIP3    H1 2180   4.047   1.935   2.629
  741TIP3    H2 2181   4.080   2.069   2.566
  742TIP3   OH2 2182   7.491   0.880   1.244
  742TIP3    H1 2183   7.565   0.939   1.260
  742TIP3    H2 2184   7.515   0.833   1.164
  743TIP3   OH2 2185   0.550   4.325   2.678
  743TIP3    H1 2186   0.463   4.285   2.683
  743TIP3    H2 2187   0.548   4.377   2.597
  744TIP3   OH2 2188   1.439   2.397   0.545
  744TIP3    H1 2189   1.400   2.377   0.630
  744TIP3    H2 2190   1.457   2.491   0.549
  745TIP3   OH2 2191   1.975   3.374   3.901
  745TIP3    H1 2192   1.881   3.361   3.905
  745TIP3    H2 2193   1.986   3.458   3.857
  746TIP3   OH2 2194   1.876   4.830   2.683
  746TIP3    H1 2195   1.854   4.743   2.650
  746TIP3    H2 2196   1.834   4.834   2.769
  747TIP3   OH2 2197   3.637   4.461   4.847
  747TIP3    H1 2198   3.642   4.503   4.762
  747TIP3    H2 2199   3.705   4.503   4.899
  748TIP3   OH2 2200   7.765   1.042   4.838
  748TIP3    H1 2201   7.842   0.993   4.865
  748TIP3    H2 2202   7.782   1.132   4.868
  749TIP3   OH2 2203   7.680   0.225   3.224
  749TIP3    H1 2204   7.624   0.268   3.158
  749TIP3    H2 2205   7.639   0.139   3.236
  750TIP3   OH2 2206   1.328   6.340   1.427
  750TIP3    H1 2207   1.289   6.427   1.429
  750TIP3    H2 2208   1.301   6.304   1.342
  751TIP3   OH2 2209   5.702   0.523   1.554
  751TIP3    H1 2210   5.671   0.457   1.491
  751TIP3    H2 2211   5.655   0.503   1.635
  752TIP3   OH2 2212   3.884   7.202   2.764
  752TIP3    H1 2213   3.967   7.198   2.812
  752TIP3    H2 2214   3.851   7.290   2.783
  753TIP3   OH2 2215   5.893   5.813   5.904
  753TIP3    H1 2216   5.899   5.846   5.815
  753TIP3    H2 2217   5.983   5.796   5.930
  754TIP3   OH2 2218   2.291   6.462   4.605
  754TIP3    H1 2219   2.284   6.501   4.692
  754TIP3    H2 2220   2.369   6.406   4.610
  755TIP3   OH2 2221   4.883   5.151   2.339
  755TIP3    H1 2222   4.941   5.116   2.406
  755TIP3    H2 2223   4.902   5.100   2.260
  756TIP3   OH2 2224   4.280   7.791   5.148
  756TIP3    H1 2225   4.296   7.767   5.057
  756TIP3    H2 2226   4.185   7.785   5.159
  757TIP3   OH2 2227   3.437   7.509   5.714
  757TIP3    H1 2228   3.368   7.576   5.715
  757TIP3    H2 2229   3.506   7.545   5.770
  758TIP3   OH2 2230   4.322   5.445   2.036
  758TIP3    H1 2231   4.271   5.365   2.054
  758TIP3    H2 2232   4.408   5.413   2.011
  759TIP3   OH2 2233   2.809   6.751   1.398
  759TIP3    H1 2234   2.809   6.844   1.378
  759TIP3    H2 2235   2.785   6.708   1.316
  760TIP3   OH2 2236   5.886   6.180   3.408
  760TIP3    H1 2237   5.822   6.134   3.462
  760TIP3    H2 2238   5.877   6.272   3.434
  761TIP3   OH2 2239   7.555   0.355   2.742
  761TIP3    H1 2240   7.566   0.406   2.661
  761TIP3    H2 2241   7.463   0.330   2.742
  762TIP3   OH2 2242   0.595   0.850   1.530
  762TIP3    H1 2243   0.569   0.784   1.595
  762TIP3    H2 2244   0.573   0.811   1.446
  763TIP3   OH2 2245   2.213   6.936   5.726
  763TIP3    H1 2246   2.173   6.947   5.640
  763TIP3    H2 2247   2.225   6.841   5.735
  764TIP3   OH2 2248   0.557   3.423   3.353
  764TIP3    H1 2249   0.514   3.493   3.403
  764TIP3    H2 2250   0.509   3.421   3.270
  765TIP3   OH2 2251   3.327   1.947   2.016
  765TIP3    H1 2252   3.370   1.901   1.944
  765TIP3    H2 2253   3.308   2.034   1.981
  766TIP3   OH2 2254   6.210   5.058   0.248
  766TIP3    H1 2255   6.134   5.111   0.273
  766TIP3    H2 2256   6.183   5.015   0.167
  767TIP3   OH2 2257   3.458   3.229   6.727
  767TIP3    H1 2258   3.436   3.185   6.645
  767TIP3    H2 2259   3.381   3.283   6.747
  768TIP3   OH2 2260   2.086   0.818   1.691
  768TIP3    H1 2261   2.012   0.821   1.752
  768TIP3    H2 2262   2.064   0.884   1.625
  769TIP3   OH2 2263   3.144   1.728   5.913
  769TIP3    H1 2264   3.227   1.762   5.946
  769TIP3    H2 2265   3.167   1.642   5.877
  770TIP3   OH2 2266   0.404   5.769   0.805
  770TIP3    H1 2267   0.466   5.839   0.789
  770TIP3    H2 2268   0.425   5.737   0.892
  771TIP3   OH2 2269   3.185   2.089   4.293
  771TIP3    H1 2270   3.211   1.999   4.315
  771TIP3    H2 2271   3.091   2.083   4.273
  772TIP3   OH2 2272   2.117   4.805   2.984
  772TIP3    H1 2273   2.154   4.789   2.897
  772TIP3    H2 2274   2.120   4.720   3.028
  773TIP3   OH2 2275   3.102   1.870   4.890
  773TIP3    H1 2276   3.017   1.843   4.856
  773TIP3    H2 2277   3.091   1.873   4.985
  774TIP3   OH2 2278   7.092   5.148   3.113
  774TIP3    H1 2279   7.173   5.199   3.101
  774TIP3    H2 2280   7.113   5.087   3.184
  775TIP3   OH2 2281   3.158   7.333   2.156
  775TIP3    H1 2282   3.103   7.299   2.085
  775TIP3    H2 2283   3.183   7.255   2.206
  776TIP3   OH2 2284   0.201   2.234   0.355
  776TIP3    H1 2285   0.144   2.192   0.419
  776TIP3    H2 2286   0.142   2.257   0.283
  777TIP3   OH2 2287   1.237   0.562   1.480
  777TIP3    H1 2288   1.252   0.521   1.395
  777TIP3    H2 2289   1.145   0.588   1.478
  778TIP3   OH2 2290   7.285   1.364   6.173
  778TIP3    H1 2291   7.302   1.422   6.248
  778TIP3    H2 2292   7.263   1.280   6.213
  779TIP3   OH2 2293   0.469   5.774   6.640
  779TIP3    H1 2294   0.511   5.799   6.558
  779TIP3    H2 2295   0.376   5.787   6.625
  780TIP3   OH2 2296   4.579   7.698   3.487
  780TIP3    H1 2297   4.589   7.769   3.550
  780TIP3    H2 2298   4.549   7.623   3.539
  781TIP3   OH2 2299   0.548   2.351   6.036
  781TIP3    H1 2300   0.607   2.300   5.980
  781TIP3    H2 2301   0.461   2.333   6.000
  782TIP3   OH2 2302   4.252   2.535   2.028
  782TIP3    H1 2303   4.275   2.542   1.935
  782TIP3    H2 2304   4.310   2.597   2.072
  783TIP3   OH2 2305   3.095   4.654   2.976
  783TIP3    H1 2306   3.009   4.640   3.016
  783TIP3    H2 2307   3.107   4.749   2.978
  784TIP3   OH2 2308   6.523   5.777   0.440
  784TIP3    H1 2309   6.437   5.736   0.431
  784TIP3    H2 2310   6.532   5.831   0.362
  785TIP3   OH2 2311   2.007   5.653   3.760
  785TIP3    H1 2312   1.987   5.729   3.705
  785TIP3    H2 2313   2.003   5.578   3.701
  786TIP3   OH2 2314   0.584   5.578   0.896
  786TIP3    H1 2315   0.675   5.557   0.880
  786TIP3    H2 2316   0.540   5.559   0.813
  787TIP3   OH2 2317   0.138   2.300   5.251
  787TIP3    H1 2318   0.206   2.253   5.299
  787TIP3    H2 2319   0.079   2.231   5.220
  788TIP3   OH2 2320   7.501   7.215   2.663
  788TIP3    H1 2321   7.430   7.244   2.720
  788TIP3    H2 2322   7.555   7.159   2.718
  789TIP3   OH2 2323   5.005   0.064   5.723
  789TIP3    H1 2324   5.025   0.021   5.806
  789TIP3    H2 2325   4.954  -0.002   5.675
  790TIP3   OH2 2326   1.409   1.760   1.153
  790TIP3    H1 2327   1.449   1.693   1.208
  790TIP3    H2 2328   1.473   1.774   1.083
  791TIP3   OH2 2329   5.693   4.116   4.026
  791TIP3    H1 2330   5.697   4.056   4.100
  791TIP3    H2 2331   5.624   4.178   4.048
  792TIP3   OH2 2332   2.427   0.685   4.506
  792TIP3    H1 2333   2.403   0.646   4.590
  792TIP3    H2 2334   2.376   0.766   4.502
  793TIP3   OH2 2335   6.093   2.766   1.896
  793TIP3    H1 2336   6.130   2.687   1.857
  793TIP3    H2 2337   6.168   2.810   1.936
  794TIP3   OH2 2338   3.493   4.425   0.664
  794TIP3    H1 2339   3.478   4.421   0.570
  794TIP3    H2 2340   3.445   4.350   0.700
  795TIP3   OH2 2341   1.675   7.089   5.894
  795TIP3    H1 2342   1.658   6.995   5.893
  795TIP3    H2 2343   1.715   7.105   5.980
  796TIP3   OH2 2344   5.533   5.282   1.977
  796TIP3    H1 2345   5.574   5.325   2.053
  796TIP3    H2 2346   5.603   5.280   1.911
  797TIP3   OH2 2347   4.841   6.505   5.009
  797TIP3    H1 2348   4.839   6.554   5.092
  797TIP3    H2 2349   4.776   6.549   4.954
  798TIP3   OH2 2350   2.777   6.590   5.920
  798TIP3    H1 2351   2.819   6.504   5.926
  798TIP3    H2 2352   2.842   6.650   5.957
  799TIP3   OH2 2353   6.866   6.269   0.166
  799TIP3    H1 2354   6.953   6.269   0.127
  799TIP3    H2 2355   6.834   6.179   0.153
  800TIP3   OH2 2356   4.565   0.530   1.850
  800TIP3    H1 2357   4.583   0.492   1.764
  800TIP3    H2 2358   4.470   0.533   1.855
  801TIP3   OH2 2359   5.858   3.649   4.734
  801TIP3    H1 2360   5.813   3.586   4.678
  801TIP3    H2 2361   5.908   3.704   4.674
  802TIP3   OH2 2362   6.736   5.585   6.083
  802TIP3    H1 2363   6.800   5.522   6.050
  802TIP3    H2 2364   6.652   5.540   6.077
  803TIP3   OH2 2365   5.416   6.666   1.079
  803TIP3    H1 2366   5.429   6.681   0.986
  803TIP3    H2 2367   5.337   6.611   1.083
  804TIP3   OH2 2368   3.454   4.696   0.686
  804TIP3    H1 2369   3.359   4.703   0.683
  804TIP3    H2 2370   3.472   4.602   0.688
  805TIP3   OH2 2371   4.317   7.673   3.797
  805TIP3    H1 2372   4.270   7.591   3.811
  805TIP3    H2 2373   4.402   7.646   3.761
  806TIP3   OH2 2374   5.097   7.261   6.535
  806TIP3    H1 2375   5.140   7.288   6.616
  806TIP3    H2 2376   5.147   7.185   6.505
  807TIP3   OH2 2377   1.325   2.710   6.606
  807TIP3    H1 2378   1.302   2.620   6.627
  807TIP3    H2 2379   1.273   2.731   6.529
  808TIP3   OH2 2380   6.649   2.686   4.501
  808TIP3    H1 2381   6.706   2.612   4.521
  808TIP3    H2 2382   6.619   2.717   4.587
  809TIP3   OH2 2383   3.310   0.704   5.301
  809TIP3    H1 2384   3.252   0.665   5.366
  809TIP3    H2 2385   3.395   0.663   5.318
  810TIP3   OH2 2386   7.528   6.111   1.711
  810TIP3    H1 2387   7.531   6.116   1.616
  810TIP3    H2 2388   7.451   6.058   1.731
  811TIP3   OH2 2389   3.427   7.418   2.062
  811TIP3    H1 2390   3.491   7.399   2.131
  811TIP3    H2 2391   3.361   7.348   2.071
  812TIP3   OH2 2392   0.849   0.214   3.350
  812TIP3    H1 2393   0.834   0.198   3.257
  812TIP3    H2 2394   0.848   0.309   3.359
  813TIP3   OH2 2395   7.859   0.646   1.218
  813TIP3    H1 2396   7.769   0.651   1.187
  813TIP3    H2 2397   7.911   0.676   1.143
  814TIP3   OH2 2398   7.341   4.640   0.440
  814TIP3    H1 2399   7.377   4.615   0.525
  814TIP3    H2 2400   7.255   4.678   0.461
  815TIP3   OH2 2401   0.718   6.510   0.187
  815TIP3    H1 2402   0.663   6.569   0.239
  815TIP3    H2 2403   0.806   6.546   0.194
  816TIP3   OH2 2404   7.467   0.384   5.519
  816TIP3    H1 2405   7.508   0.297   5.518
  816TIP3    H2 2406   7.390   0.373   5.574
  817TIP3   OH2 2407   3.854   6.294   5.679
  817TIP3    H1 2408   3.890   6.257   5.760
  817TIP3    H2 2409   3.762   6.311   5.698
  818TIP3   OH2 2410   6.978   4.772   2.317
  818TIP3    H1 2411   7.017   4.787   2.231
  818TIP3    H2 2412   6.939   4.685   2.311
  819TIP3   OH2 2413   3.005   5.169   5.310
  819TIP3    H1 2414   3.009   5.113   5.388
  819TIP3    H2 2415   2.967   5.113   5.242
  820TIP3   OH2 2416   5.996   5.524   0.700
  820TIP3    H1 2417   5.904   5.500   0.697
  820TIP3    H2 2418   6.032   5.494   0.616
  821TIP3   OH2 2419   5.133   3.885   4.738
  821TIP3    H1 2420   5.219   3.926   4.748
  821TIP3    H2 2421   5.151   3.801   4.697
  822TIP3   OH2 2422   0.847   2.293   6.683
  822TIP3    H1 2423   0.851   2.329   6.771
  822TIP3    H2 2424   0.816   2.365   6.628
  823TIP3   OH2 2425   0.375   2.481   1.948
  823TIP3    H1 2426   0.324   2.457   2.026
  823TIP3    H2 2427   0.466   2.472   1.976
  824TIP3   OH2 2428   1.576   0.339   0.153
  824TIP3    H1 2429   1.654   0.361   0.101
  824TIP3    H2 2430   1.503   0.357   0.094
  825TIP3   OH2 2431   1.825   4.679   2.033
  825TIP3    H1 2432   1.806   4.664   1.940
  825TIP3    H2 2433   1.919   4.662   2.040
  826TIP3   OH2 2434   1.970   6.576   4.254
  826TIP3    H1 2435   1.961   6.498   4.310
  826TIP3    H2 2436   1.920   6.644   4.299
  827TIP3   OH2 2437   7.612   6.857   2.277
  827TIP3    H1 2438   7.573   6.771   2.294
  827TIP3    H2 2439   7.563   6.917   2.333
  828TIP3   OH2 2440   3.262   5.160   5.976
  828TIP3    H1 2441   3.183   5.170   6.028
  828TIP3    H2 2442   3.311   5.090   6.019
  829TIP3   OH2 2443   5.463   5.546   1.821
  829TIP3    H1 2444   5.384   5.533   1.874
  829TIP3    H2 2445   5.533   5.558   1.885
  830TIP3   OH2 2446   7.651   0.846   5.578
  830TIP3    H1 2447   7.650   0.905   5.503
  830TIP3    H2 2448   7.561   0.813   5.584
  831TIP3   OH2 2449   6.569   5.954   2.221
  831TIP3    H1 2450   6.538   6.044   2.212
  831TIP3    H2 2451   6.634   5.944   2.151
  832TIP3   OH2 2452   1.183   0.740   2.620
  832TIP3    H1 2453   1.182   0.835   2.614
  832TIP3    H2 2454   1.254   0.713   2.562
  833TIP3   OH2 2455   2.610   5.444   3.751
  833TIP3    H1 2456   2.555   5.411   3.822
  833TIP3    H2 2457   2.691   5.471   3.794
  834TIP3   OH2 2458   4.127   6.714   6.341
  834TIP3    H1 2459   4.081   6.630   6.333
  834TIP3    H2 2460   4.198   6.696   6.402
  835TIP3   OH2 2461   2.880   5.359   1.553
  835TIP3    H1 2462   2.859   5.453   1.550
  835TIP3    H2 2463   2.838   5.323   1.475
  836TIP3   OH2 2464   4.843   5.490   1.980
  836TIP3    H1 2465   4.895   5.551   2.033
  836TIP3    H2 2466   4.907   5.432   1.940
  837TIP3   OH2 2467   4.510   3.103   0.745
  837TIP3    H1 2468   4.439   3.040   0.731
  837TIP3    H2 2469   4.465   3.183   0.774
  838TIP3   OH2 2470   7.608   6.806   4.389
  838TIP3    H1 2471   7.694   6.834   4.360
  838TIP3    H2 2472   7.592   6.724   4.344
  839TIP3   OH2 2473   6.060   1.351   6.297
  839TIP3    H1 2474   5.971   1.315   6.296
  839TIP3    H2 2475   6.047   1.446   6.300
  840TIP3   OH2 2476   5.289   1.803   3.581
  840TIP3    H1 2477   5.284   1.711   3.606
  840TIP3    H2 2478   5.222   1.814   3.513
  841TIP3   OH2 2479   5.951   5.077   2.321
  841TIP3    H1 2480   5.873   5.104   2.271
  841TIP3    H2 2481   5.922   5.000   2.371
  842TIP3   OH2 2482   4.161   3.905   2.411
  842TIP3    H1 2483   4.195   3.856   2.486
  842TIP3    H2 2484   4.089   3.957   2.448
  843TIP3   OH2 2485   4.466   4.030   5.227
  843TIP3    H1 2486   4.405   4.043   5.153
  843TIP3    H2 2487   4.526   3.962   5.196
  844TIP3   OH2 2488   6.092   6.671   5.114
  844TIP3    H1 2489   6.038   6.605   5.157
  844TIP3    H2 2490   6.163   6.687   5.177
  845TIP3   OH2 2491   1.863   5.866   6.371
  845TIP3    H1 2492   1.867   5.911   6.456
  845TIP3    H2 2493   1.913   5.921   6.312
  846TIP3   OH2 2494   0.863   1.874   4.839
  846TIP3    H1 2495   0.900   1.947   4.889
  846TIP3    H2 2496   0.916   1.798   4.865
  847TIP3   OH2 2497   1.324   6.193   3.316
  847TIP3    H1 2498   1.350   6.204   3.407
  847TIP3    H2 2499   1.399   6.150   3.274
  848TIP3   OH2 2500   1.318   7.689   5.955
  848TIP3    H1 2501   1.408   7.681   5.925
  848TIP3    H2 2502   1.312   7.777   5.992
  849TIP3   OH2 2503   5.546   6.665   3.970
  849TIP3    H1 2504   5.588   6.598   3.916
  849TIP3    H2 2505   5.606   6.677   4.044
  850TIP3   OH2 2506   1.244   3.185   1.256
  850TIP3    H1 2507   1.275   3.119   1.194
  850TIP3    H2 2508   1.320   3.206   1.309
  851TIP3   OH2 2509   5.457   2.948   5.388
  851TIP3    H1 2510   5.500   3.019   5.342
  851TIP3    H2 2511   5.364   2.957   5.367
  852TIP3   OH2 2512   6.184   0.760   1.070
  852TIP3    H1 2513   6.223   0.729   1.151
  852TIP3    H2 2514   6.107   0.809   1.097
  853TIP3   OH2 2515   6.598   5.142   2.684
  853TIP3    H1 2516   6.512   5.099   2.687
  853TIP3    H2 2517   6.579   5.235   2.695
  854TIP3   OH2 2518   3.207   0.169   4.137
  854TIP3    H1 2519   3.222   0.120   4.056
  854TIP3    H2 2520   3.168   0.105   4.196
  855TIP3   OH2 2521   1.379   4.550   3.728
  855TIP3    H1 2522   1.360   4.587   3.815
  855TIP3    H2 2523   1.329   4.605   3.668
  856TIP3   OH2 2524   4.100   6.669   2.259
  856TIP3    H1 2525   4.011   6.640   2.279
  856TIP3    H2 2526   4.156   6.614   2.314
  857TIP3   OH2 2527   6.481   1.457   6.001
  857TIP3    H1 2528   6.467   1.550   5.981
  857TIP3    H2 2529   6.466   1.412   5.918
  858TIP3   OH2 2530   6.701   2.167   3.600
  858TIP3    H1 2531   6.785   2.211   3.595
  858TIP3    H2 2532   6.718   2.087   3.650
  859TIP3   OH2 2533   5.533   6.697   5.500
  859TIP3    H1 2534   5.549   6.726   5.410
  859TIP3    H2 2535   5.445   6.729   5.520
  860TIP3   OH2 2536   4.025   3.490   1.942
  860TIP3    H1 2537   3.989   3.566   1.989
  860TIP3    H2 2538   3.995   3.502   1.852
  861TIP3   OH2 2539   1.028   4.968   5.617
  861TIP3    H1 2540   0.990   5.050   5.586
  861TIP3    H2 2541   1.117   4.991   5.643
  862TIP3   OH2 2542   1.289   0.762   4.630
  862TIP3    H1 2543   1.360   0.700   4.614
  862TIP3    H2 2544   1.333   0.846   4.642
  863TIP3   OH2 2545   0.213   1.543   4.952
  863TIP3    H1 2546   0.158   1.479   4.996
  863TIP3    H2 2547   0.157   1.621   4.944
  864TIP3   OH2 2548   7.089   2.082   4.847
  864TIP3    H1 2549   7.047   2.128   4.920
  864TIP3    H2 2550   7.136   2.009   4.889
  865TIP3   OH2 2551   6.848   0.136   3.102
  865TIP3    H1 2552   6.805   0.052   3.117
  865TIP3    H2 2553   6.792   0.201   3.146
  866TIP3   OH2 2554   2.772   4.585   4.036
  866TIP3    H1 2555   2.678   4.572   4.024
  866TIP3    H2 2556   2.780   4.673   4.072
  867TIP3   OH2 2557   4.405   6.273   3.393
  867TIP3    H1 2558   4.343   6.206   3.362
  867TIP3    H2 2559   4.458   6.229   3.459
  868TIP3   OH2 2560   5.081   2.518   2.048
  868TIP3    H1 2561   5.000   2.529   1.997
  868TIP3    H2 2562   5.138   2.589   2.019
  869TIP3   OH2 2563   2.549   6.136   3.125
  869TIP3    H1 2564   2.533   6.220   3.081
  869TIP3    H2 2565   2.507   6.145   3.210
  870TIP3   OH2 2566   6.422   5.766   6.099
  870TIP3    H1 2567   6.449   5.758   6.191
  870TIP3    H2 2568   6.426   5.677   6.066
  871TIP3   OH2 2569   4.744   3.402   5.418
  871TIP3    H1 2570   4.687   3.479   5.412
  871TIP3    H2 2571   4.833   3.438   5.415
  872TIP3   OH2 2572   3.867   0.817   5.003
  872TIP3    H1 2573   3.937   0.756   5.029
  872TIP3    H2 2574   3.838   0.785   4.918
  873TIP3   OH2 2575   1.273   6.186   6.125
  873TIP3    H1 2576   1.216   6.120   6.086
  873TIP3    H2 2577   1.224   6.267   6.120
  874TIP3   OH2 2578   2.404   3.527   6.198
  874TIP3    H1 2579   2.327   3.495   6.150
  874TIP3    H2 2580   2.465   3.453   6.198
  875TIP3   OH2 2581   4.233   3.048   3.159
  875TIP3    H1 2582   4.176   3.096   3.220
  875TIP3    H2 2583   4.321   3.079   3.180
  876TIP3   OH2 2584   4.636   1.811   1.008
  876TIP3    H1 2585   4.708   1.857   0.965
  876TIP3    H2 2586   4.617   1.863   1.086
  877TIP3   OH2 2587   5.708   0.567   0.459
  877TIP3    H1 2588   5.772   0.575   0.389
  877TIP3    H2 2589   5.760   0.571   0.540
  878TIP3   OH2 2590   5.875   1.020   3.137
  878TIP3    H1 2591   5.895   0.939   3.090
  878TIP3    H2 2592   5.823   0.992   3.212
  879TIP3   OH2 2593   5.760   5.834   6.413
  879TIP3    H1 2594   5.779   5.900   6.346
  879TIP3    H2 2595   5.817   5.761   6.391
  880TIP3   OH2 2596   4.613   4.178   3.398
  880TIP3    H1 2597   4.543   4.235   3.365
  880TIP3    H2 2598   4.674   4.171   3.324
  881TIP3   OH2 2599   5.490   2.533   2.460
  881TIP3    H1 2600   5.399   2.552   2.482
  881TIP3    H2 2601   5.504   2.443   2.488
  882TIP3   OH2 2602   3.268   0.426   5.137
  882TIP3    H1 2603   3.249   0.425   5.231
  882TIP3    H2 2604   3.349   0.376   5.127
  883TIP3   OH2 2605   5.957   2.733   5.588
  883TIP3    H1 2606   5.964   2.823   5.558
  883TIP3    H2 2607   5.946   2.740   5.683
  884TIP3   OH2 2608   0.824   7.063   6.761
  884TIP3    H1 2609   0.774   7.063   6.842
  884TIP3    H2 2610   0.789   6.988   6.712
  885TIP3   OH2 2611   6.341   5.081   4.294
  885TIP3    H1 2612   6.299   4.999   4.266
  885TIP3    H2 2613   6.412   5.053   4.352
  886TIP3   OH2 2614   6.423   5.900   3.828
  886TIP3    H1 2615   6.412   5.822   3.773
  886TIP3    H2 2616   6.461   5.867   3.909
  887TIP3   OH2 2617   1.488   1.121   3.620
  887TIP3    H1 2618   1.407   1.070   3.612
  887TIP3    H2 2619   1.470   1.202   3.573
  888TIP3   OH2 2620   0.456   4.763   2.473
  888TIP3    H1 2621   0.529   4.820   2.449
  888TIP3    H2 2622   0.419   4.803   2.552
  889TIP3   OH2 2623   6.995   3.241   4.370
  889TIP3    H1 2624   6.955   3.270   4.452
  889TIP3    H2 2625   7.085   3.220   4.394
  890TIP3   OH2 2626   5.914   5.386   4.773
  890TIP3    H1 2627   5.967   5.326   4.826
  890TIP3    H2 2628   5.951   5.380   4.686
  891TIP3   OH2 2629   2.459   4.509   4.039
  891TIP3    H1 2630   2.398   4.582   4.047
  891TIP3    H2 2631   2.414   4.447   3.982
  892TIP3   OH2 2632   5.441   0.017   1.420
  892TIP3    H1 2633   5.428  -0.077   1.410
  892TIP3    H2 2634   5.529   0.032   1.385
  893TIP3   OH2 2635   7.105   5.448   2.338
  893TIP3    H1 2636   7.192   5.421   2.366
  893TIP3    H2 2637   7.046   5.411   2.404
  894TIP3   OH2 2638   7.127   6.032   3.989
  894TIP3    H1 2639   7.217   6.060   3.974
  894TIP3    H2 2640   7.134   5.944   4.025
  895TIP3   OH2 2641   4.957   3.247   6.335
  895TIP3    H1 2642   5.041   3.289   6.354
  895TIP3    H2 2643   4.968   3.157   6.366
  896TIP3   OH2 2644   4.783   0.223   6.217
  896TIP3    H1 2645   4.784   0.139   6.172
  896TIP3    H2 2646   4.848   0.213   6.287
  897TIP3   OH2 2647   4.769   2.186   3.501
  897TIP3    H1 2648   4.859   2.175   3.471
  897TIP3    H2 2649   4.715   2.165   3.424
  898TIP3   OH2 2650   5.755   6.813   3.136
  898TIP3    H1 2651   5.685   6.875   3.116
  898TIP3    H2 2652   5.712   6.744   3.187
  899TIP3   OH2 2653   4.732   7.473   0.447
  899TIP3    H1 2654   4.691   7.388   0.431
  899TIP3    H2 2655   4.791   7.486   0.372
  900TIP3   OH2 2656   0.494   3.023   3.088
  900TIP3    H1 2657   0.518   2.933   3.070
  900TIP3    H2 2658   0.471   3.060   3.003
  901TIP3   OH2 2659   7.157   7.646   1.334
  901TIP3    H1 2660   7.186   7.722   1.285
  901TIP3    H2 2661   7.200   7.654   1.419
  902TIP3   OH2 2662   1.202   3.768   6.362
  902TIP3    H1 2663   1.146   3.711   6.307
  902TIP3    H2 2664   1.227   3.839   6.304
  903TIP3   OH2 2665   4.965   4.868   1.356
  903TIP3    H1 2666   4.907   4.830   1.422
  903TIP3    H2 2667   5.013   4.936   1.402
  904TIP3   OH2 2668   0.942   2.286   4.743
  904TIP3    H1 2669   0.906   2.275   4.655
  904TIP3    H2 2670   0.866   2.279   4.801
  905TIP3   OH2 2671   2.486   2.785   5.358
  905TIP3    H1 2672   2.554   2.788   5.290
  905TIP3    H2 2673   2.506   2.859   5.415
  906TIP3   OH2 2674   2.052   6.878   5.211
  906TIP3    H1 2675   2.079   6.838   5.128
  906TIP3    H2 2676   1.990   6.946   5.186
  907TIP3   OH2 2677   6.056   5.099   3.227
  907TIP3    H1 2678   6.035   5.192   3.215
  907TIP3    H2 2679   6.124   5.099   3.295
  908TIP3   OH2 2680   2.257   4.039   0.171
  908TIP3    H1 2681   2.207   4.038   0.090
  908TIP3    H2 2682   2.338   3.991   0.150
  909TIP3   OH2 2683   6.622   5.218   6.102
  909TIP3    H1 2684   6.582   5.208   6.188
  909TIP3    H2 2685   6.693   5.155   6.099
  910TIP3   OH2 2686   3.628   6.030   4.904
  910TIP3    H1 2687   3.550   6.003   4.952
  910TIP3    H2 2688   3.610   6.005   4.814
  911TIP3   OH2 2689   2.404   5.545   4.640
  911TIP3    H1 2690   2.453   5.587   4.570
  911TIP3    H2 2691   2.365   5.617   4.690
  912TIP3   OH2 2692   1.100   0.904   3.331
  912TIP3    H1 2693   1.028   0.898   3.269
  912TIP3    H2 2694   1.063   0.871   3.413
  913TIP3   OH2 2695   6.140   0.678   4.908
  913TIP3    H1 2696   6.126   0.591   4.870
  913TIP3    H2 2697   6.054   0.707   4.937
  914TIP3   OH2 2698   3.750   7.600   0.991
  914TIP3    H1 2699   3.807   7.526   0.970
  914TIP3    H2 2700   3.801   7.677   0.966
  915TIP3   OH2 2701   5.683   6.005   5.846
  915TIP3    H1 2702   5.654   5.980   5.758
  915TIP3    H2 2703   5.750   5.941   5.869
  916TIP3   OH2 2704   2.975   3.969   3.953
  916TIP3    H1 2705   2.999   3.881   3.923
  916TIP3    H2 2706   2.880   3.964   3.968
  917TIP3   OH2 2707   6.038   3.299   0.686
  917TIP3    H1 2708   5.945   3.313   0.668
  917TIP3    H2 2709   6.083   3.369   0.637
  918TIP3   OH2 2710   5.330   7.415   3.969
  918TIP3    H1 2711   5.401   7.382   4.023
  918TIP3    H2 2712   5.258   7.428   4.030
  919TIP3   OH2 2713   6.837   6.323   6.690
  919TIP3    H1 2714   6.904   6.281   6.636
  919TIP3    H2 2715   6.847   6.416   6.673
  920TIP3   OH2 2716   4.796   2.747   5.035
  920TIP3    H1 2717   4.768   2.824   5.085
  920TIP3    H2 2718   4.735   2.679   5.061
  921TIP3   OH2 2719   5.617   6.207   1.071
  921TIP3    H1 2720   5.524   6.187   1.086
  921TIP3    H2 2721   5.652   6.129   1.030
  922TIP3   OH2 2722   1.062   5.228   3.686
  922TIP3    H1 2723   1.149   5.205   3.652
  922TIP3    H2 2724   1.005   5.158   3.655
  923TIP3   OH2 2725   5.654   3.611   4.263
  923TIP3    H1 2726   5.656   3.705   4.243
  923TIP3    H2 2727   5.615   3.571   4.186
  924TIP3   OH2 2728   1.378   3.534   2.120
  924TIP3    H1 2729   1.388   3.629   2.108
  924TIP3    H2 2730   1.291   3.524   2.157
  925TIP3   OH2 2731   4.647   5.654   1.162
  925TIP3    H1 2732   4.646   5.739   1.118
  925TIP3    H2 2733   4.563   5.649   1.207
  926TIP3   OH2 2734   0.193   0.999   4.856
  926TIP3    H1 2735   0.156   0.917   4.823
  926TIP3    H2 2736   0.147   1.067   4.806
  927TIP3   OH2 2737   5.408   7.623   4.949
  927TIP3    H1 2738   5.357   7.543   4.964
  927TIP3    H2 2739   5.488   7.610   5.000
  928TIP3   OH2 2740   5.715   1.359   6.658
  928TIP3    H1 2741   5.718   1.417   6.734
  928TIP3    H2 2742   5.645   1.297   6.678
  929TIP3   OH2 2743   5.093   4.744   3.742
  929TIP3    H1 2744   5.003   4.730   3.711
  929TIP3    H2 2745   5.111   4.836   3.725
  930TIP3   OH2 2746   5.467   1.736   1.721
  930TIP3    H1 2747   5.474   1.778   1.635
  930TIP3    H2 2748   5.381   1.761   1.753
  931TIP3   OH2 2749   6.482   6.817   3.580
  931TIP3    H1 2750   6.505   6.816   3.487
  931TIP3    H2 2751   6.491   6.908   3.606
  932TIP3   OH2 2752   2.642   2.384   4.303
  932TIP3    H1 2753   2.733   2.366   4.279
  932TIP3    H2 2754   2.642   2.383   4.398
  933TIP3   OH2 2755   1.983   1.480   5.765
  933TIP3    H1 2756   1.969   1.573   5.748
  933TIP3    H2 2757   2.038   1.478   5.844
  934TIP3   OH2 2758   3.799   6.690   6.344
  934TIP3    H1 2759   3.894   6.694   6.345
  934TIP3    H2 2760   3.774   6.731   6.261
  935TIP3   OH2 2761   3.180   2.631   0.598
  935TIP3    H1 2762   3.171   2.715   0.554
  935TIP3    H2 2763   3.092   2.596   0.603
  936TIP3   OH2 2764   2.615   1.411   4.696
  936TIP3    H1 2765   2.643   1.367   4.776
  936TIP3    H2 2766   2.663   1.367   4.626
  937TIP3   OH2 2767   0.073   6.431   5.710
  937TIP3    H1 2768   0.061   6.510   5.763
  937TIP3    H2 2769   0.099   6.364   5.773
  938TIP3   OH2 2770   5.508   5.782   6.122
  938TIP3    H1 2771   5.423   5.737   6.113
  938TIP3    H2 2772   5.566   5.734   6.063
  939TIP3   OH2 2773   5.709   5.937   4.872
  939TIP3    H1 2774   5.688   5.975   4.957
  939TIP3    H2 2775   5.640   5.970   4.814
  940TIP3   OH2 2776   4.782   3.210   3.710
  940TIP3    H1 2777   4.835   3.173   3.781
  940TIP3    H2 2778   4.711   3.255   3.755
  941TIP3   OH2 2779   6.662   6.764   0.136
  941TIP3    H1 2780   6.583   6.726   0.173
  941TIP3    H2 2781   6.729   6.751   0.204
  942TIP3   OH2 2782   3.821   4.690   2.113
  942TIP3    H1 2783   3.876   4.670   2.037
  942TIP3    H2 2784   3.735   4.654   2.091
  943TIP3   OH2 2785   1.634   3.091   6.436
  943TIP3    H1 2786   1.554   3.143   6.436
  943TIP3    H2 2787   1.613   3.015   6.491
  944TIP3   OH2 2788   7.662   0.686   1.055
  944TIP3    H1 2789   7.729   0.652   0.996
  944TIP3    H2 2790   7.634   0.768   1.015
  945TIP3   OH2 2791   7.471   3.768   4.768
  945TIP3    H1 2792   7.553   3.816   4.759
  945TIP3    H2 2793   7.433   3.769   4.680
  946TIP3   OH2 2794   4.362   7.675   4.902
  946TIP3    H1 2795   4.448   7.714   4.893
  946TIP3    H2 2796   4.379   7.582   4.916
  947TIP3   OH2 2797   2.782   4.740   1.176
  947TIP3    H1 2798   2.738   4.681   1.237
  947TIP3    H2 2799   2.870   4.752   1.213
  948TIP3   OH2 2800   1.190   0.340   6.453
  948TIP3    H1 2801   1.150   0.409   6.400
  948TIP3    H2 2802   1.116   0.302   6.501
  949TIP3   OH2 2803   6.972   0.762   1.919
  949TIP3    H1 2804   6.883   0.791   1.901
  949TIP3    H2 2805   7.019   0.777   1.837
  950TIP3   OH2 2806   6.677   3.949   5.588
  950TIP3    H1 2807   6.627   3.964   5.668
  950TIP3    H2 2808   6.644   4.015   5.527
  951TIP3   OH2 2809   0.027   7.153   0.805
  951TIP3    H1 2810   0.109   7.199   0.823
  951TIP3    H2 2811   0.052   7.079   0.749
  952TIP3   OH2 2812   1.213   0.563   5.874
  952TIP3    H1 2813   1.220   0.521   5.960
  952TIP3    H2 2814   1.275   0.636   5.877
  953TIP3   OH2 2815   3.813   6.708   5.115
  953TIP3    H1 2816   3.795   6.777   5.051
  953TIP3    H2 2817   3.824   6.629   5.062
  954TIP3   OH2 2818   0.753   3.490   6.336
  954TIP3    H1 2819   0.664   3.524   6.349
  954TIP3    H2 2820   0.781   3.464   6.423
  955TIP3   OH2 2821   6.092   3.068   3.500
  955TIP3    H1 2822   6.055   3.151   3.531
  955TIP3    H2 2823   6.017   3.008   3.498
  956TIP3   OH2 2824   6.788   3.899   6.592
  956TIP3    H1 2825   6.721   3.916   6.659
  956TIP3    H2 2826   6.765   3.814   6.556
  957TIP3   OH2 2827   6.443   4.389   4.866
  957TIP3    H1 2828   6.351   4.396   4.840
  957TIP3    H2 2829   6.444   4.317   4.929
  958TIP3   OH2 2830   5.662   4.887   5.472
  958TIP3    H1 2831   5.739   4.905   5.419
  958TIP3    H2 2832   5.653   4.965   5.528
  959TIP3   OH2 2833   3.281   3.261   4.405
  959TIP3    H1 2834   3.190   3.257   4.435
  959TIP3    H2 2835   3.326   3.192   4.454
  960TIP3   OH2 2836   2.868   4.105   0.892
  960TIP3    H1 2837   2.899   4.129   0.805
  960TIP3    H2 2838   2.947   4.102   0.946
  961TIP3   OH2 2839   0.615   7.300   5.342
  961TIP3    H1 2840   0.525   7.321   5.367
  961TIP3    H2 2841   0.615   7.206   5.330
  962TIP3   OH2 2842   3.165   5.268   0.197
  962TIP3    H1 2843   3.073   5.252   0.217
  962TIP3    H2 2844   3.164   5.335   0.128
  963TIP3   OH2 2845   4.381   6.829   3.865
  963TIP3    H1 2846   4.471   6.846   3.836
  963TIP3    H2 2847   4.389   6.759   3.930
  964TIP3   OH2 2848   7.685   5.055   1.564
  964TIP3    H1 2849   7.608   5.102   1.594
  964TIP3    H2 2850   7.678   5.055   1.468
  965TIP3   OH2 2851   7.321   3.360   3.860
  965TIP3    H1 2852   7.373   3.425   3.813
  965TIP3    H2 2853   7.360   3.276   3.837
  966TIP3   OH2 2854   5.960   2.972   2.831
  966TIP3    H1 2855   5.872   2.933   2.822
  966TIP3    H2 2856   6.019   2.897   2.835
  967TIP3   OH2 2857   8.021   3.776   3.934
  967TIP3    H1 2858   8.020   3.870   3.948
  967TIP3    H2 2859   7.948   3.743   3.986
  968TIP3   OH2 2860   1.742   5.586   0.627
  968TIP3    H1 2861   1.734   5.564   0.534
  968TIP3    H2 2862   1.782   5.509   0.666
  969TIP3   OH2 2863   4.324   5.395   5.796
  969TIP3    H1 2864   4.367   5.478   5.776
  969TIP3    H2 2865   4.235   5.419   5.820
  970TIP3   OH2 2866   4.397   5.206   6.032
  970TIP3    H1 2867   4.341   5.143   5.987
  970TIP3    H2 2868   4.337   5.260   6.083
  971TIP3   OH2 2869   1.673   0.069   3.470
  971TIP3    H1 2870   1.613   0.004   3.507
  971TIP3    H2 2871   1.760   0.030   3.480
  972TIP3   OH2 2872   1.722   7.611  -0.031
  972TIP3    H1 2873   1.705   7.611   0.063
  972TIP3    H2 2874   1.800   7.666  -0.042
  973TIP3   OH2 2875   0.375   2.519   3.641
  973TIP3    H1 2876   0.422   2.445   3.604
  973TIP3    H2 2877   0.318   2.550   3.570
  974TIP3   OH2 2878   7.077   5.854   1.032
  974TIP3    H1 2879   7.106   5.937   1.070
  974TIP3    H2 2880   7.097   5.862   0.938
  975TIP3   OH2 2881   7.748   4.487   4.987
  975TIP3    H1 2882   7.718   4.460   5.074
  975TIP3    H2 2883   7.790   4.409   4.950
  976TIP3   OH2 2884   2.440   3.367   2.249
  976TIP3    H1 2885   2.396   3.450   2.264
  976TIP3    H2 2886   2.503   3.385   2.179
  977TIP3   OH2 2887   4.509   4.114   4.106
  977TIP3    H1 2888   4.431   4.093   4.157
  977TIP3    H2 2889   4.480   4.180   4.044
  978TIP3   OH2 2890   4.985   0.730   5.733
  978TIP3    H1 2891   4.944   0.651   5.697
  978TIP3    H2 2892   4.918   0.798   5.723
  979TIP3   OH2 2893   8.297   6.679   3.335
  979TIP3    H1 2894   8.343   6.648   3.413
  979TIP3    H2 2895   8.327   6.622   3.264
  980TIP3   OH2 2896   4.704   7.151   1.921
  980TIP3    H1 2897   4.674   7.217   1.983
  980TIP3    H2 2898   4.663   7.070   1.951
  981TIP3   OH2 2899   3.946   1.018   3.611
  981TIP3    H1 2900   3.976   1.026   3.521
  981TIP3    H2 2901   3.881   0.948   3.609
  982TIP3   OH2 2902   0.385   6.483   0.542
  982TIP3    H1 2903   0.465   6.531   0.567
  982TIP3    H2 2904   0.389   6.479   0.447
  983TIP3   OH2 2905   5.672   5.666   4.872
  983TIP3    H1 2906   5.684   5.760   4.883
  983TIP3    H2 2907   5.746   5.626   4.918
  984TIP3   OH2 2908   3.845   4.009   5.916
  984TIP3    H1 2909   3.925   4.053   5.945
  984TIP3    H2 2910   3.839   3.931   5.971
  985TIP3   OH2 2911   4.136   2.133   4.332
  985TIP3    H1 2912   4.200   2.070   4.299
  985TIP3    H2 2913   4.052   2.100   4.300
  986TIP3   OH2 2914   6.157   6.664   3.164
  986TIP3    H1 2915   6.095   6.596   3.137
  986TIP3    H2 2916   6.108   6.719   3.225
  987TIP3   OH2 2917   6.220   3.216   6.504
  987TIP3    H1 2918   6.172   3.269   6.440
  987TIP3    H2 2919   6.209   3.263   6.587
  988TIP3   OH2 2920   7.351   1.974   2.280
  988TIP3    H1 2921   7.380   1.888   2.309
  988TIP3    H2 2922   7.256   1.975   2.297
  989TIP3   OH2 2923   0.986   5.803   3.101
  989TIP3    H1 2924   1.035   5.728   3.135
  989TIP3    H2 2925   0.999   5.872   3.165
  990TIP3   OH2 2926   7.314   5.339   4.684
  990TIP3    H1 2927   7.330   5.425   4.722
  990TIP3    H2 2928   7.248   5.355   4.617
  991TIP3   OH2 2929   2.851   3.867   6.195
  991TIP3    H1 2930   2.916   3.799   6.174
  991TIP3    H2 2931   2.769   3.819   6.208
  992TIP3   OH2 2932   0.941   4.168   5.215
  992TIP3    H1 2933   0.943   4.103   5.285
  992TIP3    H2 2934   0.990   4.129   5.143
  993TIP3   OH2 2935   1.973   1.204   4.941
  993TIP3    H1 2936   1.984   1.234   5.031
  993TIP3    H2 2937   2.026   1.263   4.888
  994TIP3   OH2 2938   3.825   5.713   5.779
  994TIP3    H1 2939   3.858   5.677   5.861
  994TIP3    H2 2940   3.780   5.794   5.804
  995TIP3   OH2 2941   4.568   6.969   1.408
  995TIP3    H1 2942   4.565   6.982   1.503
  995TIP3    H2 2943   4.577   7.057   1.372
  996TIP3   OH2 2944   2.717   5.823   5.642
  996TIP3    H1 2945   2.626   5.807   5.619
  996TIP3    H2 2946   2.738   5.754   5.705
  997TIP3   OH2 2947   2.614   0.742   3.742
  997TIP3    H1 2948   2.626   0.686   3.665
  997TIP3    H2 2949   2.660   0.823   3.720
  998TIP3   OH2 2950   7.122   4.706   2.915
  998TIP3    H1 2951   7.037   4.735   2.949
  998TIP3    H2 2952   7.145   4.771   2.849
  999TIP3   OH2 2953   1.189   6.065   6.401
  999TIP3    H1 2954   1.117   6.123   6.424
  999TIP3    H2 2955   1.148   5.994   6.352
 1000TIP3   OH2 2956   2.058   5.330   1.114
 1000TIP3    H1 2957   2.076   5.250   1.164
 1000TIP3    H2 2958   2.140   5.379   1.116
 1001TIP3   OH2 2959   6.620   6.170   1.587
 1001TIP3    H1 2960   6.652   6.252   1.550
 1001TIP3    H2 2961   6.615   6.187   1.681
 1002TIP3   OH2 2962   5.787   4.931   2.034
 1002TIP3    H1 2963   5.846   5.005   2.026
 1002TIP3    H2 2964   5.807   4.876   1.958
 1003TIP3   OH2 2965   1.634   1.651   6.408
 1003TIP3    H1 2966   1.548   1.628   6.443
 1003TIP3    H2 2967   1.673   1.706   6.476
 1004TIP3   OH2 2968   5.558   0.364   0.806
 1004TIP3    H1 2969   5.577   0.321   0.889
 1004TIP3    H2 2970   5.486   0.424   0.825
 1005TIP3   OH2 2971   6.095   0.761   4.032
 1005TIP3    H1 2972   6.158   0.758   4.104
 1005TIP3    H2 2973   6.058   0.673   4.030
 1006TIP3   OH2 2974   4.205   5.181   6.313
 1006TIP3    H1 2975   4.261   5.120   6.266
 1006TIP3    H2 2976   4.144   5.126   6.362
 1007TIP3   OH2 2977   0.224   6.538   5.457
 1007TIP3    H1 2978   0.278   6.461   5.436
 1007TIP3    H2 2979   0.205   6.529   5.550
 1008TIP3   OH2 2980   2.780   3.708   3.767
 1008TIP3    H1 2981   2.770   3.715   3.672
 1008TIP3    H2 2982   2.828   3.626   3.780
 1009TIP3   OH2 2983   0.802   1.961   1.933
 1009TIP3    H1 2984   0.710   1.961   1.958
 1009TIP3    H2 2985   0.841   2.031   1.986
 1010TIP3   OH2 2986   1.024   1.760   3.059
 1010TIP3    H1 2987   1.087   1.714   3.115
 1010TIP3    H2 2988   1.057   1.746   2.970
 1011TIP3   OH2 2989   1.533   7.517   2.607
 1011TIP3    H1 2990   1.503   7.429   2.584
 1011TIP3    H2 2991   1.622   7.521   2.572
 1012TIP3   OH2 2992   6.480   0.569   3.335
 1012TIP3    H1 2993   6.495   0.651   3.382
 1012TIP3    H2 2994   6.556   0.515   3.357
 1013TIP3   OH2 2995   7.661   7.839   4.148
 1013TIP3    H1 2996   7.617   7.786   4.082
 1013TIP3    H2 2997   7.728   7.781   4.185
 1014TIP3   OH2 2998   6.266   0.979   3.501
 1014TIP3    H1 2999   6.237   0.961   3.411
 1014TIP3    H2 3000   6.299   0.895   3.533
 1015TIP3   OH2 3001   3.946   5.294   1.249
 1015TIP3    H1 3002   4.038   5.319   1.259
 1015TIP3    H2 3003   3.918   5.337   1.169
 1016TIP3   OH2 3004   0.058   1.967   6.174
 1016TIP3    H1 3005   0.073   2.058   6.197
 1016TIP3    H2 3006   0.027   1.926   6.255
 1017TIP3   OH2 3007   4.937   4.303   0.248
 1017TIP3    H1 3008   4.894   4.223   0.216
 1017TIP3    H2 3009   4.979   4.276   0.330
 1018TIP3   OH2 3010   7.877   0.185   0.761
 1018TIP3    H1 3011   7.963   0.143   0.764
 1018TIP3    H2 3012   7.882   0.243   0.685
 1019TIP3   OH2 3013   3.652   6.587   4.319
 1019TIP3    H1 3014   3.742   6.611   4.297
 1019TIP3    H2 3015   3.603   6.603   4.238
 1020TIP3   OH2 3016   2.837   2.927   2.542
 1020TIP3    H1 3017   2.889   2.930   2.461
 1020TIP3    H2 3018   2.847   3.015   2.579
 1021TIP3   OH2 3019   4.117   5.508   4.665
 1021TIP3    H1 3020   4.100   5.601   4.651
 1021TIP3    H2 3021   4.068   5.485   4.744
 1022TIP3   OH2 3022   3.658   4.644   5.722
 1022TIP3    H1 3023   3.669   4.736   5.699
 1022TIP3    H2 3024   3.622   4.603   5.643
 1023TIP3   OH2 3025   5.125   1.732   3.372
 1023TIP3    H1 3026   5.167   1.715   3.287
 1023TIP3    H2 3027   5.034   1.707   3.359
 1024TIP3   OH2 3028   8.179   3.422   5.676
 1024TIP3    H1 3029   8.228   3.425   5.758
 1024TIP3    H2 3030   8.098   3.471   5.695
 1025TIP3   OH2 3031   3.283   7.261   6.363
 1025TIP3    H1 3032   3.358   7.297   6.410
 1025TIP3    H2 3033   3.249   7.334   6.312
 1026TIP3   OH2 3034   6.180   2.594   4.194
 1026TIP3    H1 3035   6.138   2.509   4.209
 1026TIP3    H2 3036   6.259   2.574   4.144
 1027TIP3   OH2 3037   8.295   5.561   1.926
 1027TIP3    H1 3038   8.358   5.622   1.888
 1027TIP3    H2 3039   8.210   5.599   1.905
 1028TIP3   OH2 3040   1.367   5.588   1.401
 1028TIP3    H1 3041   1.367   5.670   1.452
 1028TIP3    H2 3042   1.451   5.590   1.355
 1029TIP3   OH2 3043   7.171   4.515   3.692
 1029TIP3    H1 3044   7.079   4.503   3.669
 1029TIP3    H2 3045   7.214   4.536   3.609
 1030TIP3   OH2 3046   8.221   1.083   5.043
 1030TIP3    H1 3047   8.186   1.045   5.124
 1030TIP3    H2 3048   8.144   1.123   5.002
 1031TIP3   OH2 3049   1.213   6.277   3.603
 1031TIP3    H1 3050   1.145   6.292   3.669
 1031TIP3    H2 3051   1.261   6.201   3.635
 1032TIP3   OH2 3052   4.175   0.274   3.229
 1032TIP3    H1 3053   4.215   0.191   3.204
 1032TIP3    H2 3054   4.243   0.320   3.279
 1033TIP3   OH2 3055   4.022   0.938   3.363
 1033TIP3    H1 3056   3.957   0.936   3.294
 1033TIP3    H2 3057   4.096   0.887   3.329
 1034TIP3   OH2 3058   6.814   7.770   3.040
 1034TIP3    H1 3059   6.836   7.782   3.132
 1034TIP3    H2 3060   6.867   7.695   3.013
 1035TIP3   OH2 3061   3.537   2.909   3.815
 1035TIP3    H1 3062   3.580   2.952   3.741
 1035TIP3    H2 3063   3.589   2.932   3.891
 1036TIP3   OH2 3064   5.590   1.807   5.109
 1036TIP3    H1 3065   5.512   1.764   5.075
 1036TIP3    H2 3066   5.617   1.867   5.040
 1037TIP3   OH2 3067   2.790   4.698   6.514
 1037TIP3    H1 3068   2.722   4.731   6.456
 1037TIP3    H2 3069   2.871   4.705   6.463
 1038TIP3   OH2 3070   0.115   4.099   3.659
 1038TIP3    H1 3071   0.043   4.129   3.714
 1038TIP3    H2 3072   0.113   4.158   3.583
 1039TIP3   OH2 3073   0.260   0.760   3.566
 1039TIP3    H1 3074   0.237   0.673   3.600
 1039TIP3    H2 3075   0.313   0.741   3.488
 1040TIP3   OH2 3076   7.358   3.679   4.060
 1040TIP3    H1 3077   7.362   3.739   3.986
 1040TIP3    H2 3078   7.269   3.685   4.093
 1041TIP3   OH2 3079   2.549   3.496   5.551
 1041TIP3    H1 3080   2.613   3.539   5.607
 1041TIP3    H2 3081   2.567   3.530   5.463
 1042TIP3   OH2 3082   5.888   6.834   5.148
 1042TIP3    H1 3083   5.919   6.894   5.216
 1042TIP3    H2 3084   5.965   6.782   5.124
 1043TIP3   OH2 3085   0.984   5.224   5.229
 1043TIP3    H1 3086   0.984   5.131   5.251
 1043TIP3    H2 3087   1.057   5.260   5.278
 1044TIP3   OH2 3088   2.470   5.976   3.554
 1044TIP3    H1 3089   2.485   6.038   3.483
 1044TIP3    H2 3090   2.483   6.027   3.634
 1045TIP3   OH2 3091   6.208   6.071   3.505
 1045TIP3    H1 3092   6.200   6.051   3.598
 1045TIP3    H2 3093   6.119   6.063   3.471
 1046TIP3   OH2 3094   0.925   1.054   3.128
 1046TIP3    H1 3095   0.837   1.073   3.098
 1046TIP3    H2 3096   0.933   1.098   3.213
 1047TIP3   OH2 3097   2.150   6.431   5.832
 1047TIP3    H1 3098   2.202   6.370   5.781
 1047TIP3    H2 3099   2.195   6.437   5.917
 1048TIP3   OH2 3100   2.743   7.368   3.753
 1048TIP3    H1 3101   2.683   7.413   3.694
 1048TIP3    H2 3102   2.806   7.435   3.778
 1049TIP3   OH2 3103   4.223   0.054   1.317
 1049TIP3    H1 3104   4.230   0.011   1.232
 1049TIP3    H2 3105   4.136   0.093   1.317
 1050TIP3   OH2 3106   3.011   4.459   6.723
 1050TIP3    H1 3107   2.931   4.451   6.671
 1050TIP3    H2 3108   3.078   4.414   6.672
 1051TIP3   OH2 3109   0.526   4.128   5.028
 1051TIP3    H1 3110   0.573   4.143   5.110
 1051TIP3    H2 3111   0.499   4.036   5.033
 1052TIP3   OH2 3112   6.040   3.782   4.570
 1052TIP3    H1 3113   6.025   3.815   4.482
 1052TIP3    H2 3114   6.126   3.739   4.565
 1053TIP3   OH2 3115   0.242   6.184   0.331
 1053TIP3    H1 3116   0.244   6.169   0.426
 1053TIP3    H2 3117   0.308   6.251   0.316
 1054TIP3   OH2 3118   4.765   3.583   5.721
 1054TIP3    H1 3119   4.782   3.489   5.713
 1054TIP3    H2 3120   4.670   3.591   5.710
 1055TIP3   OH2 3121   1.935   3.009   3.830
 1055TIP3    H1 3122   1.840   3.000   3.832
 1055TIP3    H2 3123   1.966   2.923   3.800
 1056TIP3   OH2 3124   3.385   5.479   4.645
 1056TIP3    H1 3125   3.354   5.523   4.724
 1056TIP3    H2 3126   3.337   5.397   4.643
 1057TIP3   OH2 3127   4.977   0.518   2.054
 1057TIP3    H1 3128   4.977   0.613   2.047
 1057TIP3    H2 3129   4.912   0.490   1.989
 1058TIP3   OH2 3130   4.857   5.995   6.146
 1058TIP3    H1 3131   4.909   5.946   6.082
 1058TIP3    H2 3132   4.789   6.037   6.094
 1059TIP3   OH2 3133   2.583   4.344   5.424
 1059TIP3    H1 3134   2.623   4.361   5.510
 1059TIP3    H2 3135   2.558   4.252   5.427
 1060TIP3   OH2 3136   0.355   2.035   2.928
 1060TIP3    H1 3137   0.284   2.079   2.976
 1060TIP3    H2 3138   0.402   1.986   2.996
 1061TIP3   OH2 3139   5.506   1.709   6.190
 1061TIP3    H1 3140   5.506   1.773   6.261
 1061TIP3    H2 3141   5.558   1.636   6.224
 1062TIP3   OH2 3142   3.892   3.722   6.401
 1062TIP3    H1 3143   3.811   3.697   6.444
 1062TIP3    H2 3144   3.933   3.638   6.377
 1063TIP3   OH2 3145   5.600   2.206   2.588
 1063TIP3    H1 3146   5.667   2.271   2.612
 1063TIP3    H2 3147   5.521   2.237   2.632
 1064TIP3   OH2 3148   7.478   0.581   2.955
 1064TIP3    H1 3149   7.417   0.601   3.026
 1064TIP3    H2 3150   7.423   0.569   2.878
 1065TIP3   OH2 3151   7.632   0.910   0.410
 1065TIP3    H1 3152   7.665   0.821   0.417
 1065TIP3    H2 3153   7.706   0.961   0.378
 1066TIP3   OH2 3154   2.870   2.982   0.478
 1066TIP3    H1 3155   2.816   3.004   0.403
 1066TIP3    H2 3156   2.862   3.057   0.537
 1067TIP3   OH2 3157   8.205   4.115   0.894
 1067TIP3    H1 3158   8.142   4.184   0.873
 1067TIP3    H2 3159   8.153   4.035   0.899
 1068TIP3   OH2 3160   4.683   4.232   4.642
 1068TIP3    H1 3161   4.654   4.146   4.611
 1068TIP3    H2 3162   4.715   4.276   4.563
 1069TIP3   OH2 3163   4.461   5.489   4.156
 1069TIP3    H1 3164   4.441   5.448   4.240
 1069TIP3    H2 3165   4.498   5.575   4.180
 1070TIP3   OH2 3166   6.784   3.582   3.763
 1070TIP3    H1 3167   6.823   3.511   3.712
 1070TIP3    H2 3168   6.858   3.638   3.787
 1071TIP3   OH2 3169   7.515   2.944   4.609
 1071TIP3    H1 3170   7.530   2.932   4.703
 1071TIP3    H2 3171   7.535   3.036   4.593
 1072TIP3   OH2 3172   3.676   5.370   3.131
 1072TIP3    H1 3173   3.638   5.359   3.219
 1072TIP3    H2 3174   3.714   5.458   3.132
 1073TIP3   OH2 3175   6.245   4.121   1.251
 1073TIP3    H1 3176   6.232   4.208   1.290
 1073TIP3    H2 3177   6.289   4.070   1.319
 1074TIP3   OH2 3178   2.180   0.308   1.730
 1074TIP3    H1 3179   2.111   0.354   1.778
 1074TIP3    H2 3180   2.151   0.217   1.729
 1075TIP3   OH2 3181   1.673   1.780   6.164
 1075TIP3    H1 3182   1.650   1.705   6.219
 1075TIP3    H2 3183   1.620   1.852   6.199
 1076TIP3   OH2 3184   3.178   3.891   5.082
 1076TIP3    H1 3185   3.213   3.952   5.017
 1076TIP3    H2 3186   3.243   3.821   5.086
 1077TIP3   OH2 3187   3.603   4.099   0.435
 1077TIP3    H1 3188   3.546   4.023   0.425
 1077TIP3    H2 3189   3.543   4.173   0.439
 1078TIP3   OH2 3190   2.970   3.675   2.937
 1078TIP3    H1 3191   3.033   3.604   2.949
 1078TIP3    H2 3192   3.024   3.751   2.915
 1079TIP3   OH2 3193   6.059   1.316   4.327
 1079TIP3    H1 3194   6.019   1.241   4.283
 1079TIP3    H2 3195   5.997   1.388   4.312
 1080TIP3   OH2 3196   5.022   2.962   1.233
 1080TIP3    H1 3197   5.091   3.023   1.258
 1080TIP3    H2 3198   5.060   2.913   1.160
 1081TIP3   OH2 3199   7.175   7.782   0.674
 1081TIP3    H1 3200   7.112   7.756   0.606
 1081TIP3    H2 3201   7.135   7.860   0.714
 1082TIP3   OH2 3202   2.008   4.256   4.984
 1082TIP3    H1 3203   2.036   4.293   5.068
 1082TIP3    H2 3204   2.033   4.164   4.988
 1083TIP3   OH2 3205   5.999   7.530   2.715
 1083TIP3    H1 3206   5.928   7.527   2.650
 1083TIP3    H2 3207   6.055   7.602   2.686
 1084TIP3   OH2 3208   7.137   1.557   2.009
 1084TIP3    H1 3209   7.072   1.601   1.953
 1084TIP3    H2 3210   7.106   1.466   2.013
 1085TIP3   OH2 3211   1.049   2.566   4.467
 1085TIP3    H1 3212   1.093   2.511   4.531
 1085TIP3    H2 3213   0.973   2.601   4.514
 1086TIP3   OH2 3214   1.770   6.603   0.570
 1086TIP3    H1 3215   1.681   6.629   0.593
 1086TIP3    H2 3216   1.798   6.545   0.641
 1087TIP3   OH2 3217   7.335   4.920   4.802
 1087TIP3    H1 3218   7.400   4.899   4.869
 1087TIP3    H2 3219   7.256   4.873   4.830
 1088TIP3   OH2 3220   2.997   4.763   3.886
 1088TIP3    H1 3221   2.952   4.732   3.964
 1088TIP3    H2 3222   3.050   4.688   3.857
 1089TIP3   OH2 3223   7.889   0.196   1.493
 1089TIP3    H1 3224   7.853   0.126   1.546
 1089TIP3    H2 3225   7.877   0.167   1.403
 1090TIP3   OH2 3226   8.224   1.913   1.131
 1090TIP3    H1 3227   8.216   1.823   1.098
 1090TIP3    H2 3228   8.138   1.952   1.116
 1091TIP3   OH2 3229   0.558   7.463   2.237
 1091TIP3    H1 3230   0.522   7.552   2.238
 1091TIP3    H2 3231   0.652   7.476   2.221
 1092TIP3   OH2 3232   4.142   4.381   3.694
 1092TIP3    H1 3233   4.092   4.449   3.738
 1092TIP3    H2 3234   4.078   4.336   3.639
 1093TIP3   OH2 3235   5.909   3.860   6.305
 1093TIP3    H1 3236   5.933   3.832   6.393
 1093TIP3    H2 3237   5.892   3.954   6.314
 1094TIP3   OH2 3238   7.192   7.234   0.467
 1094TIP3    H1 3239   7.127   7.303   0.457
 1094TIP3    H2 3240   7.165   7.166   0.405
 1095TIP3   OH2 3241   4.773   2.893   2.787
 1095TIP3    H1 3242   4.785   2.807   2.829
 1095TIP3    H2 3243   4.705   2.935   2.839
 1096TIP3   OH2 3244   2.385   2.709   0.465
 1096TIP3    H1 3245   2.378   2.667   0.551
 1096TIP3    H2 3246   2.358   2.799   0.480
 1097TIP3   OH2 3247   4.470   2.776   0.501
 1097TIP3    H1 3248   4.418   2.840   0.550
 1097TIP3    H2 3249   4.560   2.789   0.531
 1098TIP3   OH2 3250   5.333   2.086   4.540
 1098TIP3    H1 3251   5.421   2.112   4.565
 1098TIP3    H2 3252   5.333   2.088   4.445
 1099TIP3   OH2 3253   4.564   6.617   0.936
 1099TIP3    H1 3254   4.529   6.579   1.017
 1099TIP3    H2 3255   4.505   6.690   0.917
 1100TIP3   OH2 3256   8.146   6.319   1.256
 1100TIP3    H1 3257   8.128   6.320   1.350
 1100TIP3    H2 3258   8.110   6.236   1.225
 1101TIP3   OH2 3259   1.003   1.211   0.068
 1101TIP3    H1 3260   1.031   1.254  -0.013
 1101TIP3    H2 3261   0.933   1.152   0.040
 1102TIP3   OH2 3262   4.657   7.104   2.397
 1102TIP3    H1 3263   4.646   7.166   2.469
 1102TIP3    H2 3264   4.621   7.150   2.321
 1103TIP3   OH2 3265   5.301   7.491   5.812
 1103TIP3    H1 3266   5.306   7.414   5.868
 1103TIP3    H2 3267   5.262   7.558   5.867
 1104TIP3   OH2 3268   4.470   6.356   5.232
 1104TIP3    H1 3269   4.467   6.291   5.302
 1104TIP3    H2 3270   4.486   6.439   5.278
 1105TIP3   OH2 3271   2.112   0.893   2.745
 1105TIP3    H1 3272   2.108   0.908   2.840
 1105TIP3    H2 3273   2.036   0.941   2.711
 1106TIP3   OH2 3274   8.254   3.826   2.872
 1106TIP3    H1 3275   8.321   3.895   2.874
 1106TIP3    H2 3276   8.252   3.797   2.780
 1107TIP3   OH2 3277   4.084   6.040   4.570
 1107TIP3    H1 3278   4.029   6.016   4.496
 1107TIP3    H2 3279   4.028   6.026   4.647
 1108TIP3   OH2 3280   3.178   6.999   2.694
 1108TIP3    H1 3281   3.201   6.935   2.628
 1108TIP3    H2 3282   3.098   7.040   2.661
 1109TIP3   OH2 3283   4.098   7.545   3.224
 1109TIP3    H1 3284   4.044   7.472   3.196
 1109TIP3    H2 3285   4.188   7.520   3.202
 1110TIP3   OH2 3286   0.319   6.586   4.762
 1110TIP3    H1 3287   0.333   6.496   4.792
 1110TIP3    H2 3288   0.392   6.603   4.702
 1111TIP3   OH2 3289   3.897   1.785   6.290
 1111TIP3    H1 3290   3.983   1.822   6.312
 1111TIP3    H2 3291   3.848   1.859   6.252
 1112TIP3   OH2 3292   4.735   1.012   4.840
 1112TIP3    H1 3293   4.765   1.024   4.750
 1112TIP3    H2 3294   4.815   0.999   4.891
 1113TIP3   OH2 3295   1.383   0.701   3.875
 1113TIP3    H1 3296   1.426   0.624   3.913
 1113TIP3    H2 3297   1.426   0.713   3.790
 1114TIP3   OH2 3298   0.851   0.540   5.487
 1114TIP3    H1 3299   0.920   0.593   5.526
 1114TIP3    H2 3300   0.894   0.491   5.418
 1115TIP3   OH2 3301   5.283   0.080   1.135
 1115TIP3    H1 3302   5.320  -0.008   1.128
 1115TIP3    H2 3303   5.189   0.067   1.132
 1116TIP3   OH2 3304   0.086   1.077   0.713
 1116TIP3    H1 3305   0.030   1.050   0.785
 1116TIP3    H2 3306   0.130   1.156   0.744
 1117TIP3   OH2 3307   0.060   6.998   0.423
 1117TIP3    H1 3308  -0.017   6.982   0.478
 1117TIP3    H2 3309   0.076   7.092   0.431
 1118TIP3   OH2 3310   6.942   2.914   1.590
 1118TIP3    H1 3311   7.001   2.844   1.563
 1118TIP3    H2 3312   6.944   2.977   1.518
 1119TIP3   OH2 3313   1.777   3.150   1.633
 1119TIP3    H1 3314   1.728   3.078   1.673
 1119TIP3    H2 3315   1.767   3.222   1.695
 1120TIP3   OH2 3316   6.897   3.505   6.054
 1120TIP3    H1 3317   6.947   3.424   6.065
 1120TIP3    H2 3318   6.822   3.494   6.112
 1121TIP3   OH2 3319   1.530   1.130   4.975
 1121TIP3    H1 3320   1.616   1.164   4.951
 1121TIP3    H2 3321   1.510   1.172   5.059
 1122TIP3   OH2 3322   0.857   7.008   2.843
 1122TIP3    H1 3323   0.895   7.017   2.755
 1122TIP3    H2 3324   0.895   7.080   2.893
 1123TIP3   OH2 3325   6.060   2.255   6.543
 1123TIP3    H1 3326   5.983   2.284   6.591
 1123TIP3    H2 3327   6.098   2.335   6.507
 1124TIP3   OH2 3328   0.658   6.526   1.953
 1124TIP3    H1 3329   0.653   6.588   1.880
 1124TIP3    H2 3330   0.678   6.581   2.029
 1125TIP3   OH2 3331   7.888   7.708   4.225
 1125TIP3    H1 3332   7.918   7.637   4.282
 1125TIP3    H2 3333   7.909   7.678   4.136
 1126TIP3   OH2 3334   3.178   2.419   3.098
 1126TIP3    H1 3335   3.189   2.450   3.188
 1126TIP3    H2 3336   3.083   2.418   3.085
 1127TIP3   OH2 3337   7.865   7.043   0.928
 1127TIP3    H1 3338   7.881   7.011   0.839
 1127TIP3    H2 3339   7.894   7.135   0.925
 1128TIP3   OH2 3340   8.139   5.291   6.426
 1128TIP3    H1 3341   8.199   5.220   6.449
 1128TIP3    H2 3342   8.052   5.253   6.435
 1129TIP3   OH2 3343   7.084   7.452   4.557
 1129TIP3    H1 3344   7.063   7.423   4.468
 1129TIP3    H2 3345   7.082   7.372   4.609
 1130TIP3   OH2 3346   2.867   0.023   2.247
 1130TIP3    H1 3347   2.777   0.010   2.216
 1130TIP3    H2 3348   2.921  -0.022   2.182
 1131TIP3   OH2 3349   1.169   0.561   5.010
 1131TIP3    H1 3350   1.165   0.520   5.097
 1131TIP3    H2 3351   1.221   0.500   4.957
 1132TIP3   OH2 3352   3.937   0.068   1.859
 1132TIP3    H1 3353   3.994   0.083   1.783
 1132TIP3    H2 3354   3.941   0.150   1.908
 1133TIP3   OH2 3355   1.206   0.191   2.943
 1133TIP3    H1 3356   1.132   0.165   2.888
 1133TIP3    H2 3357   1.251   0.108   2.963
 1134TIP3   OH2 3358   4.036   0.830   4.213
 1134TIP3    H1 3359   4.056   0.847   4.305
 1134TIP3    H2 3360   4.030   0.917   4.173
 1135TIP3   OH2 3361   1.580   2.553   3.712
 1135TIP3    H1 3362   1.591   2.485   3.778
 1135TIP3    H2 3363   1.645   2.531   3.645
 1136TIP3   OH2 3364   6.926   1.211   1.212
 1136TIP3    H1 3365   6.973   1.179   1.135
 1136TIP3    H2 3366   6.855   1.148   1.224
 1137TIP3   OH2 3367   7.711   4.626   0.458
 1137TIP3    H1 3368   7.624   4.588   0.472
 1137TIP3    H2 3369   7.771   4.552   0.466
 1138TIP3   OH2 3370   4.489   0.272   4.579
 1138TIP3    H1 3371   4.522   0.269   4.669
 1138TIP3    H2 3372   4.478   0.366   4.562
 1139TIP3   OH2 3373   4.243   0.218   4.460
 1139TIP3    H1 3374   4.268   0.277   4.388
 1139TIP3    H2 3375   4.321   0.215   4.516
 1140TIP3   OH2 3376   6.168   3.907   5.995
 1140TIP3    H1 3377   6.089   3.919   6.048
 1140TIP3    H2 3378   6.190   3.814   6.006
 1141TIP3   OH2 3379   2.727   7.294   1.874
 1141TIP3    H1 3380   2.659   7.257   1.930
 1141TIP3    H2 3381   2.689   7.375   1.841
 1142TIP3   OH2 3382   1.006   7.078   2.577
 1142TIP3    H1 3383   0.975   7.046   2.492
 1142TIP3    H2 3384   0.966   7.165   2.586
 1143TIP3   OH2 3385   0.729   6.928   4.314
 1143TIP3    H1 3386   0.728   6.952   4.407
 1143TIP3    H2 3387   0.789   6.854   4.308
 1144TIP3   OH2 3388   6.547   2.833   2.722
 1144TIP3    H1 3389   6.590   2.788   2.795
 1144TIP3    H2 3390   6.526   2.763   2.660
 1145TIP3   OH2 3391   2.652   1.067   1.104
 1145TIP3    H1 3392   2.602   1.125   1.162
 1145TIP3    H2 3393   2.659   0.986   1.153
 1146TIP3   OH2 3394   1.728   3.512   2.770
 1146TIP3    H1 3395   1.702   3.511   2.678
 1146TIP3    H2 3396   1.823   3.497   2.768
 1147TIP3   OH2 3397   5.035   3.707   3.522
 1147TIP3    H1 3398   5.004   3.794   3.495
 1147TIP3    H2 3399   5.019   3.705   3.617
 1148TIP3   OH2 3400   4.858   2.927   4.511
 1148TIP3    H1 3401   4.843   3.018   4.539
 1148TIP3    H2 3402   4.851   2.931   4.416
 1149TIP3   OH2 3403   7.666   2.759   1.333
 1149TIP3    H1 3404   7.636   2.849   1.321
 1149TIP3    H2 3405   7.684   2.752   1.427
 1150TIP3   OH2 3406   1.825   5.374   1.635
 1150TIP3    H1 3407   1.742   5.420   1.649
 1150TIP3    H2 3408   1.857   5.355   1.723
 1151TIP3   OH2 3409   8.133   1.021   0.881
 1151TIP3    H1 3410   8.180   1.021   0.965
 1151TIP3    H2 3411   8.045   1.054   0.903
 1152TIP3   OH2 3412   3.441   0.429   1.119
 1152TIP3    H1 3413   3.503   0.409   1.189
 1152TIP3    H2 3414   3.404   0.344   1.095
 1153TIP3   OH2 3415   6.034   4.399   6.632
 1153TIP3    H1 3416   6.091   4.327   6.604
 1153TIP3    H2 3417   6.065   4.422   6.720
 1154TIP3   OH2 3418   6.339   2.871   5.718
 1154TIP3    H1 3419   6.341   2.775   5.725
 1154TIP3    H2 3420   6.288   2.899   5.794
 1155TIP3   OH2 3421   2.673   7.146   1.062
 1155TIP3    H1 3422   2.688   7.233   1.099
 1155TIP3    H2 3423   2.592   7.116   1.103
 1156TIP3   OH2 3424   0.153   2.488   5.766
 1156TIP3    H1 3425   0.181   2.545   5.838
 1156TIP3    H2 3426   0.184   2.401   5.790
 1157TIP3   OH2 3427   0.852   1.312   4.934
 1157TIP3    H1 3428   0.841   1.245   5.001
 1157TIP3    H2 3429   0.945   1.308   4.911
 1158TIP3   OH2 3430   1.500   0.233   3.879
 1158TIP3    H1 3431   1.492   0.207   3.788
 1158TIP3    H2 3432   1.572   0.179   3.913
 1159TIP3   OH2 3433   4.492   1.894   5.652
 1159TIP3    H1 3434   4.467   1.945   5.575
 1159TIP3    H2 3435   4.510   1.806   5.618
 1160TIP3   OH2 3436   2.606   2.258   1.928
 1160TIP3    H1 3437   2.676   2.318   1.903
 1160TIP3    H2 3438   2.614   2.251   2.024
 1161TIP3   OH2 3439   8.177   0.096   3.578
 1161TIP3    H1 3440   8.240   0.155   3.620
 1161TIP3    H2 3441   8.108   0.084   3.644
 1162TIP3   OH2 3442   5.664   0.096   3.358
 1162TIP3    H1 3443   5.758   0.084   3.366
 1162TIP3    H2 3444   5.648   0.184   3.393
 1163TIP3   OH2 3445   6.026   6.717   0.556
 1163TIP3    H1 3446   6.016   6.662   0.634
 1163TIP3    H2 3447   5.946   6.702   0.506
 1164TIP3   OH2 3448   0.849   2.333   0.277
 1164TIP3    H1 3449   0.843   2.421   0.241
 1164TIP3    H2 3450   0.931   2.298   0.239
 1165TIP3   OH2 3451   4.171   1.572   0.437
 1165TIP3    H1 3452   4.266   1.562   0.436
 1165TIP3    H2 3453   4.149   1.598   0.348
 1166TIP3   OH2 3454   3.175   4.489   0.183
 1166TIP3    H1 3455   3.143   4.495   0.273
 1166TIP3    H2 3456   3.262   4.449   0.191
 1167TIP3   OH2 3457   6.269   4.436   2.248
 1167TIP3    H1 3458   6.298   4.354   2.289
 1167TIP3    H2 3459   6.333   4.451   2.178
 1168TIP3   OH2 3460   6.976   7.662   1.597
 1168TIP3    H1 3461   6.913   7.708   1.654
 1168TIP3    H2 3462   6.945   7.679   1.508
 1169TIP3   OH2 3463   6.661   7.225   2.395
 1169TIP3    H1 3464   6.752   7.212   2.370
 1169TIP3    H2 3465   6.641   7.314   2.368
 1170TIP3   OH2 3466   3.848   3.598   0.955
 1170TIP3    H1 3467   3.905   3.534   0.997
 1170TIP3    H2 3468   3.875   3.599   0.863
 1171TIP3   OH2 3469   6.222   7.720   3.917
 1171TIP3    H1 3470   6.293   7.674   3.872
 1171TIP3    H2 3471   6.152   7.656   3.925
 1172TIP3   OH2 3472   0.854   7.279   5.492
 1172TIP3    H1 3473   0.799   7.308   5.420
 1172TIP3    H2 3474   0.876   7.359   5.540
 1173TIP3   OH2 3475   3.175   3.248   3.371
 1173TIP3    H1 3476   3.235   3.309   3.414
 1173TIP3    H2 3477   3.232   3.190   3.321
 1174TIP3   OH2 3478   7.534   6.572   2.925
 1174TIP3    H1 3479   7.579   6.647   2.888
 1174TIP3    H2 3480   7.475   6.542   2.856
 1175TIP3   OH2 3481   1.097   2.176   4.335
 1175TIP3    H1 3482   1.113   2.174   4.429
 1175TIP3    H2 3483   1.079   2.085   4.312
 1176TIP3   OH2 3484   6.979   6.213   4.583
 1176TIP3    H1 3485   6.915   6.147   4.558
 1176TIP3    H2 3486   6.952   6.292   4.536
 1177TIP3   OH2 3487   1.850   3.637   3.192
 1177TIP3    H1 3488   1.796   3.701   3.145
 1177TIP3    H2 3489   1.940   3.661   3.171
 1178TIP3   OH2 3490   0.950   4.504   6.090
 1178TIP3    H1 3491   0.880   4.568   6.076
 1178TIP3    H2 3492   1.018   4.529   6.027
 1179TIP3   OH2 3493   5.164   2.231   5.590
 1179TIP3    H1 3494   5.116   2.148   5.601
 1179TIP3    H2 3495   5.197   2.228   5.500
 1180TIP3   OH2 3496   4.808   1.805   5.535
 1180TIP3    H1 3497   4.726   1.757   5.545
 1180TIP3    H2 3498   4.818   1.816   5.441
 1181TIP3   OH2 3499   6.801   4.053   2.828
 1181TIP3    H1 3500   6.889   4.060   2.789
 1181TIP3    H2 3501   6.790   4.135   2.876
 1182TIP3   OH2 3502   2.925   4.788   0.937
 1182TIP3    H1 3503   2.918   4.714   0.877
 1182TIP3    H2 3504   2.863   4.769   1.007
 1183TIP3   OH2 3505   2.747   5.703   1.060
 1183TIP3    H1 3506   2.714   5.661   1.139
 1183TIP3    H2 3507   2.760   5.794   1.085
 1184TIP3   OH2 3508   3.713   7.519   0.184
 1184TIP3    H1 3509   3.621   7.509   0.161
 1184TIP3    H2 3510   3.720   7.610   0.214
 1185TIP3   OH2 3511   1.176   1.537   2.237
 1185TIP3    H1 3512   1.237   1.585   2.182
 1185TIP3    H2 3513   1.231   1.477   2.288
 1186TIP3   OH2 3514   1.892   7.609   4.738
 1186TIP3    H1 3515   1.972   7.583   4.783
 1186TIP3    H2 3516   1.832   7.536   4.751
 1187TIP3   OH2 3517   3.890   2.127   1.274
 1187TIP3    H1 3518   3.891   2.120   1.179
 1187TIP3    H2 3519   3.957   2.193   1.294
 1188TIP3   OH2 3520   5.642   4.078   4.351
 1188TIP3    H1 3521   5.693   4.063   4.431
 1188TIP3    H2 3522   5.620   3.991   4.319
 1189TIP3   OH2 3523   4.278   1.274   0.088
 1189TIP3    H1 3524   4.364   1.236   0.103
 1189TIP3    H2 3525   4.225   1.243   0.162
 1190TIP3   OH2 3526   7.230   2.792   6.164
 1190TIP3    H1 3527   7.291   2.859   6.195
 1190TIP3    H2 3528   7.233   2.723   6.230
 1191TIP3   OH2 3529   6.048   2.843   1.210
 1191TIP3    H1 3530   6.104   2.913   1.242
 1191TIP3    H2 3531   5.959   2.879   1.217
 1192TIP3   OH2 3532   5.897   5.879   2.035
 1192TIP3    H1 3533   5.946   5.798   2.044
 1192TIP3    H2 3534   5.932   5.921   1.956
 1193TIP3   OH2 3535   2.005   5.072   0.297
 1193TIP3    H1 3536   1.962   5.027   0.225
 1193TIP3    H2 3537   1.933   5.109   0.348
 1194TIP3   OH2 3538   2.334   4.590   6.778
 1194TIP3    H1 3539   2.296   4.517   6.728
 1194TIP3    H2 3540   2.428   4.579   6.767
 1195TIP3   OH2 3541   0.104   0.613   5.938
 1195TIP3    H1 3542   0.105   0.525   5.975
 1195TIP3    H2 3543   0.162   0.663   5.995
 1196TIP3   OH2 3544   0.519   5.423   0.026
 1196TIP3    H1 3545   0.425   5.420   0.046
 1196TIP3    H2 3546   0.529   5.500  -0.029
 1197TIP3   OH2 3547   5.863   1.846   3.226
 1197TIP3    H1 3548   5.774   1.845   3.262
 1197TIP3    H2 3549   5.918   1.823   3.301
 1198TIP3   OH2 3550   0.560   1.095   5.285
 1198TIP3    H1 3551   0.571   1.005   5.257
 1198TIP3    H2 3552   0.505   1.089   5.364
 1199TIP3   OH2 3553   2.590   0.186   5.970
 1199TIP3    H1 3554   2.580   0.091   5.981
 1199TIP3    H2 3555   2.548   0.223   6.048
 1200TIP3   OH2 3556   3.151   3.980   4.747
 1200TIP3    H1 3557   3.238   3.991   4.785
 1200TIP3    H2 3558   3.119   4.069   4.735
 1201TIP3   OH2 3559   6.394   5.176   3.020
 1201TIP3    H1 3560   6.398   5.196   3.114
 1201TIP3    H2 3561   6.480   5.141   2.999
 1202TIP3   OH2 3562   4.807   4.997   1.142
 1202TIP3    H1 3563   4.719   5.030   1.125
 1202TIP3    H2 3564   4.798   4.941   1.219
 1203TIP3   OH2 3565   0.944   5.113   1.428
 1203TIP3    H1 3566   0.943   5.018   1.419
 1203TIP3    H2 3567   0.858   5.141   1.398
 1204TIP3   OH2 3568   0.223   1.985   0.082
 1204TIP3    H1 3569   0.129   1.970   0.069
 1204TIP3    H2 3570   0.262   1.898   0.072
 1205TIP3   OH2 3571   5.540   5.073   0.274
 1205TIP3    H1 3572   5.607   5.104   0.335
 1205TIP3    H2 3573   5.580   4.997   0.231
 1206TIP3   OH2 3574   0.669   6.984   3.384
 1206TIP3    H1 3575   0.651   6.914   3.321
 1206TIP3    H2 3576   0.756   7.017   3.359
 1207TIP3   OH2 3577   2.742   2.556   4.816
 1207TIP3    H1 3578   2.733   2.463   4.839
 1207TIP3    H2 3579   2.798   2.593   4.884
 1208TIP3   OH2 3580   5.669   1.862   3.565
 1208TIP3    H1 3581   5.688   1.955   3.574
 1208TIP3    H2 3582   5.663   1.848   3.470
 1209TIP3   OH2 3583   2.303   3.747   0.110
 1209TIP3    H1 3584   2.380   3.775   0.160
 1209TIP3    H2 3585   2.245   3.708   0.174
 1210TIP3   OH2 3586   5.268   3.114   2.360
 1210TIP3    H1 3587   5.277   3.082   2.271
 1210TIP3    H2 3588   5.259   3.209   2.351
 1211TIP3   OH2 3589   3.556   7.336   1.158
 1211TIP3    H1 3590   3.633   7.311   1.107
 1211TIP3    H2 3591   3.575   7.425   1.188
 1212TIP3   OH2 3592   2.507   4.084   6.338
 1212TIP3    H1 3593   2.418   4.048   6.335
 1212TIP3    H2 3594   2.558   4.020   6.387
 1213TIP3   OH2 3595   3.686   3.031   0.309
 1213TIP3    H1 3596   3.628   2.989   0.246
 1213TIP3    H2 3597   3.649   3.008   0.394
 1214TIP3   OH2 3598   7.193   0.253   0.280
 1214TIP3    H1 3599   7.280   0.213   0.278
 1214TIP3    H2 3600   7.202   0.331   0.226
 1215TIP3   OH2 3601   4.649   6.320   0.321
 1215TIP3    H1 3602   4.646   6.409   0.285
 1215TIP3    H2 3603   4.598   6.267   0.259
 1216TIP3   OH2 3604   7.535   1.849   1.231
 1216TIP3    H1 3605   7.444   1.828   1.210
 1216TIP3    H2 3606   7.585   1.776   1.195
 1217TIP3   OH2 3607   4.412   5.598   0.173
 1217TIP3    H1 3608   4.369   5.520   0.208
 1217TIP3    H2 3609   4.459   5.635   0.247
 1218TIP3   OH2 3610   4.915   6.633   1.137
 1218TIP3    H1 3611   4.992   6.675   1.099
 1218TIP3    H2 3612   4.909   6.548   1.092
 1219TIP3   OH2 3613   7.767   6.176   6.677
 1219TIP3    H1 3614   7.772   6.199   6.770
 1219TIP3    H2 3615   7.692   6.226   6.644
 1220TIP3   OH2 3616   1.328   6.353   5.417
 1220TIP3    H1 3617   1.268   6.327   5.347
 1220TIP3    H2 3618   1.401   6.290   5.410
 1221TIP3   OH2 3619   2.230   4.296   6.249
 1221TIP3    H1 3620   2.161   4.283   6.314
 1221TIP3    H2 3621   2.242   4.210   6.210
 1222TIP3   OH2 3622   5.879   0.363   1.060
 1222TIP3    H1 3623   5.887   0.282   1.009
 1222TIP3    H2 3624   5.785   0.375   1.070
 1223TIP3   OH2 3625   4.904   5.496   4.694
 1223TIP3    H1 3626   4.832   5.457   4.644
 1223TIP3    H2 3627   4.868   5.579   4.728
 1224TIP3   OH2 3628   5.265   5.189   1.869
 1224TIP3    H1 3629   5.301   5.245   1.938
 1224TIP3    H2 3630   5.315   5.214   1.790
 1225TIP3   OH2 3631   3.511   0.368   0.800
 1225TIP3    H1 3632   3.496   0.391   0.708
 1225TIP3    H2 3633   3.460   0.287   0.812
 1226TIP3   OH2 3634   7.429   5.331   2.095
 1226TIP3    H1 3635   7.461   5.411   2.055
 1226TIP3    H2 3636   7.365   5.297   2.033
 1227TIP3   OH2 3637   4.854   5.277   1.667
 1227TIP3    H1 3638   4.759   5.279   1.678
 1227TIP3    H2 3639   4.868   5.294   1.574
 1228TIP3   OH2 3640   6.162   0.803   0.647
 1228TIP3    H1 3641   6.098   0.859   0.602
 1228TIP3    H2 3642   6.239   0.859   0.656
 1229TIP3   OH2 3643   3.150   6.315   3.515
 1229TIP3    H1 3644   3.125   6.401   3.549
 1229TIP3    H2 3645   3.165   6.261   3.593
 1230TIP3   OH2 3646   6.319   7.683   2.600
 1230TIP3    H1 3647   6.318   7.673   2.695
 1230TIP3    H2 3648   6.268   7.762   2.583
 1231TIP3   OH2 3649   7.049   2.106   2.025
 1231TIP3    H1 3650   7.025   2.081   1.936
 1231TIP3    H2 3651   7.054   2.202   2.022
 1232TIP3   OH2 3652   3.848   6.257   6.251
 1232TIP3    H1 3653   3.777   6.216   6.201
 1232TIP3    H2 3654   3.891   6.184   6.296
 1233TIP3   OH2 3655   6.701   7.512   1.837
 1233TIP3    H1 3656   6.648   7.478   1.909
 1233TIP3    H2 3657   6.637   7.531   1.768
 1234TIP3   OH2 3658   7.470   0.554   4.407
 1234TIP3    H1 3659   7.380   0.534   4.432
 1234TIP3    H2 3660   7.473   0.649   4.399
 1235TIP3   OH2 3661   4.349   1.771   3.951
 1235TIP3    H1 3662   4.347   1.745   4.043
 1235TIP3    H2 3663   4.258   1.769   3.923
 1236TIP3   OH2 3664   6.746   7.481   4.367
 1236TIP3    H1 3665   6.759   7.421   4.441
 1236TIP3    H2 3666   6.831   7.486   4.324
 1237TIP3   OH2 3667   1.033   3.036   2.234
 1237TIP3    H1 3668   1.041   3.028   2.139
 1237TIP3    H2 3669   1.101   2.979   2.269
 1238TIP3   OH2 3670   4.464   6.944   6.671
 1238TIP3    H1 3671   4.514   6.932   6.590
 1238TIP3    H2 3672   4.529   6.971   6.736
 1239TIP3   OH2 3673   4.015   5.121   4.820
 1239TIP3    H1 3674   4.005   5.056   4.751
 1239TIP3    H2 3675   3.980   5.078   4.898
 1240TIP3   OH2 3676   5.485   1.257   3.990
 1240TIP3    H1 3677   5.457   1.338   3.948
 1240TIP3    H2 3678   5.556   1.224   3.935
 1241TIP3   OH2 3679   4.091   0.754   6.533
 1241TIP3    H1 3680   4.010   0.778   6.489
 1241TIP3    H2 3681   4.156   0.815   6.498
 1242TIP3   OH2 3682   7.841   7.286   3.590
 1242TIP3    H1 3683   7.893   7.219   3.545
 1242TIP3    H2 3684   7.899   7.320   3.658
 1243TIP3   OH2 3685   1.587   4.732   1.838
 1243TIP3    H1 3686   1.615   4.809   1.886
 1243TIP3    H2 3687   1.521   4.764   1.777
 1244TIP3   OH2 3688   5.374   0.696   1.488
 1244TIP3    H1 3689   5.426   0.650   1.423
 1244TIP3    H2 3690   5.428   0.695   1.567
 1245TIP3   OH2 3691   4.577   1.573   2.669
 1245TIP3    H1 3692   4.586   1.480   2.689
 1245TIP3    H2 3693   4.493   1.599   2.708
 1246TIP3   OH2 3694   6.865   3.121  -0.029
 1246TIP3    H1 3695   6.841   3.046   0.026
 1246TIP3    H2 3696   6.959   3.130  -0.016
 1247TIP3   OH2 3697   2.783   6.921   2.988
 1247TIP3    H1 3698   2.799   6.968   3.069
 1247TIP3    H2 3699   2.870   6.910   2.949
 1248TIP3   OH2 3700   0.754   5.202   4.450
 1248TIP3    H1 3701   0.707   5.130   4.491
 1248TIP3    H2 3702   0.699   5.227   4.376
 1249TIP3   OH2 3703   3.418   0.916   4.862
 1249TIP3    H1 3704   3.397   0.915   4.956
 1249TIP3    H2 3705   3.355   0.978   4.825
 1250TIP3   OH2 3706   7.617   2.176   5.066
 1250TIP3    H1 3707   7.542   2.208   5.014
 1250TIP3    H2 3708   7.668   2.124   5.004
 1251TIP3   OH2 3709   0.186   3.457   5.242
 1251TIP3    H1 3710   0.186   3.362   5.225
 1251TIP3    H2 3711   0.268   3.473   5.288
 1252TIP3   OH2 3712   0.254   1.180   6.063
 1252TIP3    H1 3713   0.197   1.164   5.987
 1252TIP3    H2 3714   0.195   1.184   6.138
 1253TIP3   OH2 3715   6.075   1.912   5.513
 1253TIP3    H1 3716   5.994   1.946   5.551
 1253TIP3    H2 3717   6.055   1.900   5.420
 1254TIP3   OH2 3718   8.047   3.516   6.529
 1254TIP3    H1 3719   8.109   3.576   6.569
 1254TIP3    H2 3720   8.100   3.463   6.469
 1255TIP3   OH2 3721   5.763   4.436   2.090
 1255TIP3    H1 3722   5.832   4.503   2.097
 1255TIP3    H2 3723   5.684   4.480   2.121
 1256TIP3   OH2 3724   0.099   0.360   6.067
 1256TIP3    H1 3725   0.051   0.302   6.007
 1256TIP3    H2 3726   0.190   0.331   6.060
 1257TIP3   OH2 3727   8.242   6.539   1.003
 1257TIP3    H1 3728   8.308   6.514   1.068
 1257TIP3    H2 3729   8.208   6.455   0.970
 1258TIP3   OH2 3730   6.956   6.255   5.509
 1258TIP3    H1 3731   6.975   6.339   5.551
 1258TIP3    H2 3732   6.862   6.256   5.493
 1259TIP3   OH2 3733   7.880   1.306   3.534
 1259TIP3    H1 3734   7.840   1.293   3.449
 1259TIP3    H2 3735   7.831   1.249   3.594
 1260TIP3   OH2 3736   0.594   0.097   2.617
 1260TIP3    H1 3737   0.557   0.170   2.567
 1260TIP3    H2 3738   0.517   0.050   2.650
 1261TIP3   OH2 3739   1.010   5.138   2.467
 1261TIP3    H1 3740   1.000   5.116   2.374
 1261TIP3    H2 3741   1.074   5.075   2.500
 1262TIP3   OH2 3742   3.505   4.608   6.237
 1262TIP3    H1 3743   3.576   4.671   6.227
 1262TIP3    H2 3744   3.473   4.595   6.148
 1263TIP3   OH2 3745   7.642   7.675   5.913
 1263TIP3    H1 3746   7.617   7.614   5.982
 1263TIP3    H2 3747   7.738   7.674   5.913
 1264TIP3   OH2 3748   4.928   3.247   2.476
 1264TIP3    H1 3749   4.843   3.249   2.432
 1264TIP3    H2 3750   4.991   3.276   2.409
 1265TIP3   OH2 3751   5.308   5.584   0.036
 1265TIP3    H1 3752   5.349   5.556  -0.046
 1265TIP3    H2 3753   5.335   5.518   0.100
 1266TIP3   OH2 3754   8.088   7.747   5.426
 1266TIP3    H1 3755   8.095   7.653   5.445
 1266TIP3    H2 3756   8.146   7.760   5.351
 1267TIP3   OH2 3757   5.870   6.937   3.384
 1267TIP3    H1 3758   5.837   6.899   3.302
 1267TIP3    H2 3759   5.839   7.027   3.383
 1268TIP3   OH2 3760   5.920   0.607   5.624
 1268TIP3    H1 3761   5.888   0.558   5.700
 1268TIP3    H2 3762   6.016   0.608   5.635
 1269TIP3   OH2 3763   7.361   2.117   4.013
 1269TIP3    H1 3764   7.384   2.053   3.945
 1269TIP3    H2 3765   7.301   2.178   3.969
 1270TIP3   OH2 3766   0.773   1.156   0.910
 1270TIP3    H1 3767   0.796   1.146   0.818
 1270TIP3    H2 3768   0.695   1.211   0.910
 1271TIP3   OH2 3769   7.355   4.029   1.153
 1271TIP3    H1 3770   7.438   4.034   1.106
 1271TIP3    H2 3771   7.357   3.942   1.193
 1272TIP3   OH2 3772   3.931   2.107   1.934
 1272TIP3    H1 3773   3.882   2.185   1.907
 1272TIP3    H2 3774   3.985   2.137   2.007
 1273TIP3   OH2 3775   1.835   1.990   5.146
 1273TIP3    H1 3776   1.893   1.916   5.131
 1273TIP3    H2 3777   1.800   1.977   5.234
 1274TIP3   OH2 3778   2.586   4.236   4.535
 1274TIP3    H1 3779   2.499   4.212   4.503
 1274TIP3    H2 3780   2.572   4.260   4.627
 1275TIP3   OH2 3781   4.362   2.645   5.691
 1275TIP3    H1 3782   4.296   2.619   5.756
 1275TIP3    H2 3783   4.377   2.738   5.708
 1276TIP3   OH2 3784   6.341   5.677   1.595
 1276TIP3    H1 3785   6.363   5.759   1.551
 1276TIP3    H2 3786   6.414   5.618   1.574
 1277TIP3   OH2 3787   7.390   6.400   4.453
 1277TIP3    H1 3788   7.404   6.305   4.451
 1277TIP3    H2 3789   7.307   6.412   4.406
 1278TIP3   OH2 3790   4.245   1.330   2.289
 1278TIP3    H1 3791   4.331   1.305   2.323
 1278TIP3    H2 3792   4.196   1.248   2.284
 1279TIP3   OH2 3793   4.543   6.356   0.763
 1279TIP3    H1 3794   4.558   6.443   0.800
 1279TIP3    H2 3795   4.499   6.373   0.680
 1280TIP3   OH2 3796   1.637   7.565   6.239
 1280TIP3    H1 3797   1.546   7.537   6.228
 1280TIP3    H2 3798   1.630   7.654   6.275
 1281TIP3   OH2 3799   3.558   1.683   4.613
 1281TIP3    H1 3800   3.558   1.589   4.593
 1281TIP3    H2 3801   3.636   1.717   4.569
 1282TIP3   OH2 3802   4.934   6.230   3.851
 1282TIP3    H1 3803   4.897   6.207   3.936
 1282TIP3    H2 3804   4.881   6.303   3.820
 1283TIP3   OH2 3805   1.917   7.085   5.767
 1283TIP3    H1 3806   1.826   7.079   5.797
 1283TIP3    H2 3807   1.968   7.050   5.840
 1284TIP3   OH2 3808   7.076   1.382   5.123
 1284TIP3    H1 3809   7.116   1.295   5.111
 1284TIP3    H2 3810   6.983   1.368   5.109
 1285TIP3   OH2 3811   6.967   3.091   4.824
 1285TIP3    H1 3812   6.989   2.999   4.839
 1285TIP3    H2 3813   7.047   3.139   4.849
 1286TIP3   OH2 3814   0.762   5.807   6.784
 1286TIP3    H1 3815   0.773   5.868   6.710
 1286TIP3    H2 3816   0.841   5.753   6.782
 1287TIP3   OH2 3817   3.340   7.448   2.798
 1287TIP3    H1 3818   3.428   7.485   2.800
 1287TIP3    H2 3819   3.353   7.354   2.812
 1288TIP3   OH2 3820   5.330   2.008   5.697
 1288TIP3    H1 3821   5.245   1.975   5.667
 1288TIP3    H2 3822   5.309   2.089   5.743
 1289TIP3   OH2 3823   4.136   0.851   1.537
 1289TIP3    H1 3824   4.099   0.788   1.475
 1289TIP3    H2 3825   4.228   0.827   1.545
 1290TIP3   OH2 3826   5.467   0.827   6.603
 1290TIP3    H1 3827   5.494   0.736   6.608
 1290TIP3    H2 3828   5.528   0.868   6.542
 1291TIP3   OH2 3829   6.267   4.063   2.164
 1291TIP3    H1 3830   6.272   3.973   2.194
 1291TIP3    H2 3831   6.319   4.065   2.084
 1292TIP3   OH2 3832   8.234   0.101   5.230
 1292TIP3    H1 3833   8.229   0.025   5.172
 1292TIP3    H2 3834   8.156   0.094   5.285
 1293TIP3   OH2 3835   5.755   0.809   2.094
 1293TIP3    H1 3836   5.804   0.834   2.016
 1293TIP3    H2 3837   5.723   0.892   2.130
 1294TIP3   OH2 3838   3.604   5.418   5.668
 1294TIP3    H1 3839   3.549   5.480   5.620
 1294TIP3    H2 3840   3.603   5.339   5.614
 1295TIP3   OH2 3841   4.567   3.992   0.009
 1295TIP3    H1 3842   4.490   4.044   0.033
 1295TIP3    H2 3843   4.627   4.002   0.082
 1296TIP3   OH2 3844   0.443   5.349   2.667
 1296TIP3    H1 3845   0.378   5.407   2.626
 1296TIP3    H2 3846   0.394   5.268   2.683
 1297TIP3   OH2 3847   7.733   4.577   2.526
 1297TIP3    H1 3848   7.725   4.483   2.539
 1297TIP3    H2 3849   7.645   4.612   2.542
 1298TIP3   OH2 3850   7.817   5.802   1.397
 1298TIP3    H1 3851   7.775   5.881   1.364
 1298TIP3    H2 3852   7.771   5.730   1.354
 1299TIP3   OH2 3853   4.829   7.691   0.543
 1299TIP3    H1 3854   4.758   7.753   0.528
 1299TIP3    H2 3855   4.794   7.607   0.513
 1300TIP3   OH2 3856   2.424   2.575   6.304
 1300TIP3    H1 3857   2.500   2.555   6.358
 1300TIP3    H2 3858   2.417   2.670   6.307
 1301TIP3   OH2 3859   7.408   5.806   3.923
 1301TIP3    H1 3860   7.389   5.899   3.915
 1301TIP3    H2 3861   7.499   5.797   3.895
 1302TIP3   OH2 3862   2.528   0.464   2.127
 1302TIP3    H1 3863   2.538   0.525   2.053
 1302TIP3    H2 3864   2.524   0.521   2.204
 1303TIP3   OH2 3865   1.941   5.607   4.007
 1303TIP3    H1 3866   1.971   5.619   3.917
 1303TIP3    H2 3867   1.862   5.553   3.999
 1304TIP3   OH2 3868   6.632   0.805   3.445
 1304TIP3    H1 3869   6.674   0.729   3.484
 1304TIP3    H2 3870   6.638   0.873   3.512
 1305TIP3   OH2 3871   0.199   0.046   6.670
 1305TIP3    H1 3872   0.147   0.113   6.626
 1305TIP3    H2 3873   0.149   0.024   6.748
 1306TIP3   OH2 3874   1.835   6.766   0.363
 1306TIP3    H1 3875   1.824   6.694   0.425
 1306TIP3    H2 3876   1.928   6.789   0.368
 1307TIP3   OH2 3877   2.887   5.627   3.650
 1307TIP3    H1 3878   2.948   5.657   3.582
 1307TIP3    H2 3879   2.804   5.667   3.627
 1308TIP3   OH2 3880   7.092   4.924   5.024
 1308TIP3    H1 3881   7.108   4.853   4.963
 1308TIP3    H2 3882   7.015   4.896   5.074
 1309TIP3   OH2 3883   1.359   2.745   1.940
 1309TIP3    H1 3884   1.349   2.825   1.992
 1309TIP3    H2 3885   1.414   2.688   1.994
 1310TIP3   OH2 3886   0.670   2.028   3.253
 1310TIP3    H1 3887   0.666   1.938   3.285
 1310TIP3    H2 3888   0.691   2.080   3.331
 1311TIP3   OH2 3889   6.031   2.517   3.444
 1311TIP3    H1 3890   6.071   2.436   3.477
 1311TIP3    H2 3891   6.039   2.579   3.516
 1312TIP3   OH2 3892   2.606   4.774   0.961
 1312TIP3    H1 3893   2.590   4.868   0.949
 1312TIP3    H2 3894   2.648   4.768   1.047
 1313TIP3   OH2 3895   7.255   7.417   4.156
 1313TIP3    H1 3896   7.208   7.333   4.160
 1313TIP3    H2 3897   7.345   7.394   4.178
 1314TIP3   OH2 3898   6.946   6.504   1.179
 1314TIP3    H1 3899   7.034   6.479   1.149
 1314TIP3    H2 3900   6.942   6.599   1.169
 1315TIP3   OH2 3901   2.345   2.298   6.688
 1315TIP3    H1 3902   2.428   2.286   6.734
 1315TIP3    H2 3903   2.322   2.389   6.704
 1316TIP3   OH2 3904   2.934   6.905   4.707
 1316TIP3    H1 3905   2.923   6.981   4.650
 1316TIP3    H2 3906   3.004   6.853   4.666
 1317TIP3   OH2 3907   3.268   6.303   1.445
 1317TIP3    H1 3908   3.245   6.368   1.379
 1317TIP3    H2 3909   3.198   6.237   1.438
 1318TIP3   OH2 3910   0.848   4.815   1.421
 1318TIP3    H1 3911   0.922   4.756   1.439
 1318TIP3    H2 3912   0.775   4.776   1.469
 1319TIP3   OH2 3913   7.165   5.053   0.805
 1319TIP3    H1 3914   7.250   5.011   0.790
 1319TIP3    H2 3915   7.145   5.031   0.896
 1320TIP3   OH2 3916   0.140   3.609   4.897
 1320TIP3    H1 3917   0.220   3.558   4.886
 1320TIP3    H2 3918   0.142   3.674   4.827
 1321TIP3   OH2 3919   5.134   0.212   1.428
 1321TIP3    H1 3920   5.143   0.159   1.507
 1321TIP3    H2 3921   5.148   0.151   1.356
 1322TIP3   OH2 3922   7.309   0.069   2.446
 1322TIP3    H1 3923   7.266  -0.016   2.438
 1322TIP3    H2 3924   7.399   0.054   2.415
 1323TIP3   OH2 3925   0.719   6.278   4.762
 1323TIP3    H1 3926   0.743   6.358   4.809
 1323TIP3    H2 3927   0.802   6.233   4.746
 1324TIP3   OH2 3928   2.660   6.542   4.437
 1324TIP3    H1 3929   2.580   6.593   4.427
 1324TIP3    H2 3930   2.630   6.452   4.447
 1325TIP3   OH2 3931   5.324   0.955   3.032
 1325TIP3    H1 3932   5.388   0.979   3.099
 1325TIP3    H2 3933   5.359   0.992   2.950
 1326TIP3   OH2 3934   4.100   5.061   1.512
 1326TIP3    H1 3935   4.139   5.149   1.520
 1326TIP3    H2 3936   4.019   5.075   1.463
 1327TIP3   OH2 3937   2.427   2.218   3.605
 1327TIP3    H1 3938   2.499   2.256   3.655
 1327TIP3    H2 3939   2.459   2.131   3.579
 1328TIP3   OH2 3940   7.888   6.681   6.059
 1328TIP3    H1 3941   7.908   6.711   5.970
 1328TIP3    H2 3942   7.799   6.646   6.053
 1329TIP3   OH2 3943   6.746   5.612   0.656
 1329TIP3    H1 3944   6.819   5.599   0.717
 1329TIP3    H2 3945   6.787   5.638   0.574
 1330TIP3   OH2 3946   6.615   2.117   4.599
 1330TIP3    H1 3947   6.692   2.100   4.544
 1330TIP3    H2 3948   6.633   2.070   4.680
 1331TIP3   OH2 3949   2.564   0.766   6.330
 1331TIP3    H1 3950   2.490   0.707   6.316
 1331TIP3    H2 3951   2.563   0.824   6.254
 1332TIP3   OH2 3952   7.317   4.407   6.368
 1332TIP3    H1 3953   7.404   4.376   6.345
 1332TIP3    H2 3954   7.331   4.461   6.446
 1333TIP3   OH2 3955   0.958   5.580   3.996
 1333TIP3    H1 3956   1.024   5.518   3.963
 1333TIP3    H2 3957   0.897   5.525   4.045
 1334TIP3   OH2 3958   1.346   1.111   6.096
 1334TIP3    H1 3959   1.336   1.029   6.047
 1334TIP3    H2 3960   1.314   1.178   6.037
 1335TIP3   OH2 3961   2.149   0.293   2.783
 1335TIP3    H1 3962   2.093   0.350   2.835
 1335TIP3    H2 3963   2.104   0.286   2.699
 1336TIP3   OH2 3964   2.229   7.308   4.312
 1336TIP3    H1 3965   2.284   7.256   4.253
 1336TIP3    H2 3966   2.249   7.399   4.290
 1337TIP3   OH2 3967   3.372   2.403   4.728
 1337TIP3    H1 3968   3.305   2.419   4.661
 1337TIP3    H2 3969   3.323   2.399   4.810
 1338TIP3   OH2 3970   5.281   5.196   2.714
 1338TIP3    H1 3971   5.188   5.208   2.697
 1338TIP3    H2 3972   5.304   5.118   2.664
 1339TIP3   OH2 3973   2.204   7.601   6.118
 1339TIP3    H1 3974   2.206   7.509   6.093
 1339TIP3    H2 3975   2.251   7.605   6.201
 1340TIP3   OH2 3976   1.591   6.397   4.379
 1340TIP3    H1 3977   1.599   6.322   4.437
 1340TIP3    H2 3978   1.679   6.436   4.378
 1341TIP3   OH2 3979   7.042   7.503   0.693
 1341TIP3    H1 3980   6.967   7.552   0.724
 1341TIP3    H2 3981   7.110   7.518   0.759
 1342TIP3   OH2 3982   2.277   2.352   0.968
 1342TIP3    H1 3983   2.323   2.273   0.939
 1342TIP3    H2 3984   2.338   2.394   1.028
 1343TIP3   OH2 3985   5.508   7.410   1.416
 1343TIP3    H1 3986   5.426   7.375   1.380
 1343TIP3    H2 3987   5.506   7.384   1.509
 1344TIP3   OH2 3988   0.057   2.972  -0.001
 1344TIP3    H1 3989   0.119   3.020   0.054
 1344TIP3    H2 3990   0.025   2.901   0.054
 1345TIP3   OH2 3991   0.045   7.154   2.344
 1345TIP3    H1 3992  -0.001   7.070   2.351
 1345TIP3    H2 3993  -0.024   7.219   2.338
 1346TIP3   OH2 3994   0.732   1.675   1.336
 1346TIP3    H1 3995   0.671   1.748   1.321
 1346TIP3    H2 3996   0.732   1.663   1.431
 1347TIP3   OH2 3997   5.880   5.556   4.997
 1347TIP3    H1 3998   5.847   5.500   5.068
 1347TIP3    H2 3999   5.897   5.495   4.926
 1348TIP3   OH2 4000   6.884   0.539   5.932
 1348TIP3    H1 4001   6.789   0.528   5.925
 1348TIP3    H2 4002   6.909   0.581   5.850
 1349TIP3   OH2 4003   0.712   0.379   0.803
 1349TIP3    H1 4004   0.744   0.434   0.732
 1349TIP3    H2 4005   0.618   0.368   0.784
 1350TIP3   OH2 4006   5.868   7.385   1.145
 1350TIP3    H1 4007   5.774   7.377   1.135
 1350TIP3    H2 4008   5.903   7.299   1.120
 1351TIP3   OH2 4009   7.203   2.190   0.424
 1351TIP3    H1 4010   7.228   2.167   0.513
 1351TIP3    H2 4011   7.285   2.220   0.383
 1352TIP3   OH2 4012   4.692   1.894   4.085
 1352TIP3    H1 4013   4.768   1.880   4.027
 1352TIP3    H2 4014   4.693   1.988   4.103
 1353TIP3   OH2 4015   2.824   0.676   3.133
 1353TIP3    H1 4016   2.870   0.621   3.197
 1353TIP3    H2 4017   2.847   0.766   3.159
 1354TIP3   OH2 4018   3.034   2.789   2.146
 1354TIP3    H1 4019   2.956   2.737   2.165
 1354TIP3    H2 4020   3.104   2.725   2.135
 1355TIP3   OH2 4021   5.669   6.029   2.137
 1355TIP3    H1 4022   5.751   5.983   2.123
 1355TIP3    H2 4023   5.677   6.110   2.086
 1356TIP3   OH2 4024   5.623   5.749   2.193
 1356TIP3    H1 4025   5.573   5.825   2.225
 1356TIP3    H2 4026   5.711   5.762   2.229
 1357TIP3   OH2 4027   2.790   1.701   4.124
 1357TIP3    H1 4028   2.811   1.610   4.102
 1357TIP3    H2 4029   2.866   1.750   4.096
 1358TIP3   OH2 4030   1.405   6.813   0.082
 1358TIP3    H1 4031   1.499   6.799   0.096
 1358TIP3    H2 4032   1.363   6.742   0.132
 1359TIP3   OH2 4033   4.833   1.547   1.734
 1359TIP3    H1 4034   4.809   1.561   1.826
 1359TIP3    H2 4035   4.775   1.477   1.705
 1360TIP3   OH2 4036   1.582   4.336   4.838
 1360TIP3    H1 4037   1.638   4.343   4.915
 1360TIP3    H2 4038   1.546   4.424   4.827
 1361TIP3   OH2 4039   1.420   2.687   6.328
 1361TIP3    H1 4040   1.384   2.774   6.347
 1361TIP3    H2 4041   1.348   2.640   6.287
 1362TIP3   OH2 4042   7.620   7.302   0.019
 1362TIP3    H1 4043   7.648   7.224   0.067
 1362TIP3    H2 4044   7.607   7.368   0.087
 1363TIP3   OH2 4045   7.148   6.248   0.144
 1363TIP3    H1 4046   7.224   6.200   0.110
 1363TIP3    H2 4047   7.179   6.286   0.226
 1364TIP3   OH2 4048   0.503   4.062   5.860
 1364TIP3    H1 4049   0.540   3.976   5.838
 1364TIP3    H2 4050   0.419   4.063   5.815
 1365TIP3   OH2 4051   2.540   6.207   5.933
 1365TIP3    H1 4052   2.453   6.167   5.927
 1365TIP3    H2 4053   2.594   6.160   5.870
 1366TIP3   OH2 4054   3.054   4.401   5.677
 1366TIP3    H1 4055   3.127   4.374   5.623
 1366TIP3    H2 4056   3.033   4.490   5.648
 1367TIP3   OH2 4057   0.807   2.526   5.153
 1367TIP3    H1 4058   0.727   2.475   5.164
 1367TIP3    H2 4059   0.836   2.506   5.064
 1368TIP3   OH2 4060   5.469   0.610   3.057
 1368TIP3    H1 4061   5.516   0.660   3.124
 1368TIP3    H2 4062   5.509   0.638   2.974
 1369TIP3   OH2 4063   3.432   1.121   3.334
 1369TIP3    H1 4064   3.354   1.088   3.378
 1369TIP3    H2 4065   3.452   1.203   3.378
 1370TIP3   OH2 4066   4.031   1.309   6.675
 1370TIP3    H1 4067   3.950   1.356   6.656
 1370TIP3    H2 4068   4.007   1.244   6.741
 1371TIP3   OH2 4069   2.590   2.115   0.263
 1371TIP3    H1 4070   2.650   2.058   0.310
 1371TIP3    H2 4071   2.638   2.197   0.253
 1372TIP3   OH2 4072   3.047   1.867   2.758
 1372TIP3    H1 4073   3.102   1.943   2.739
 1372TIP3    H2 4074   3.054   1.855   2.852
 1373TIP3   OH2 4075   7.468   3.467   6.578
 1373TIP3    H1 4076   7.406   3.438   6.645
 1373TIP3    H2 4077   7.531   3.521   6.625
 1374TIP3   OH2 4078   3.561   3.265   1.063
 1374TIP3    H1 4079   3.506   3.197   1.024
 1374TIP3    H2 4080   3.637   3.270   1.005
 1375TIP3   OH2 4081   2.705   4.948   2.088
 1375TIP3    H1 4082   2.795   4.935   2.059
 1375TIP3    H2 4083   2.677   5.028   2.042
 1376TIP3   OH2 4084   0.797   3.458   5.963
 1376TIP3    H1 4085   0.876   3.405   5.954
 1376TIP3    H2 4086   0.725   3.396   5.950
 1377TIP3   OH2 4087   7.951   2.871   2.155
 1377TIP3    H1 4088   7.897   2.942   2.122
 1377TIP3    H2 4089   8.012   2.852   2.084
 1378TIP3   OH2 4090   7.116   2.151   4.583
 1378TIP3    H1 4091   7.105   2.112   4.669
 1378TIP3    H2 4092   7.197   2.113   4.550
 1379TIP3   OH2 4093   7.666   2.169   3.157
 1379TIP3    H1 4094   7.733   2.130   3.213
 1379TIP3    H2 4095   7.697   2.259   3.143
 1380TIP3   OH2 4096   3.560   2.966   4.638
 1380TIP3    H1 4097   3.609   2.991   4.716
 1380TIP3    H2 4098   3.617   2.902   4.594
 1381TIP3   OH2 4099   0.523   1.867   1.287
 1381TIP3    H1 4100   0.490   1.931   1.225
 1381TIP3    H2 4101   0.446   1.821   1.318
 1382TIP3   OH2 4102   5.566   6.435   1.359
 1382TIP3    H1 4103   5.544   6.411   1.449
 1382TIP3    H2 4104   5.639   6.377   1.336
 1383TIP3   OH2 4105   7.917   5.954   6.028
 1383TIP3    H1 4106   7.823   5.939   6.020
 1383TIP3    H2 4107   7.927   6.048   6.013
 1384TIP3   OH2 4108   4.756   5.487   6.754
 1384TIP3    H1 4109   4.847   5.457   6.749
 1384TIP3    H2 4110   4.710   5.417   6.800
 1385TIP3   OH2 4111   6.104   3.219   5.223
 1385TIP3    H1 4112   6.080   3.210   5.315
 1385TIP3    H2 4113   6.085   3.133   5.185
 1386TIP3   OH2 4114   3.967   0.182   1.281
 1386TIP3    H1 4115   3.896   0.236   1.315
 1386TIP3    H2 4116   3.923   0.119   1.223
 1387TIP3   OH2 4117   1.626   6.705   6.411
 1387TIP3    H1 4118   1.558   6.660   6.460
 1387TIP3    H2 4119   1.704   6.651   6.424
 1388TIP3   OH2 4120   2.234   6.068   5.200
 1388TIP3    H1 4121   2.184   6.144   5.170
 1388TIP3    H2 4122   2.322   6.102   5.214
 1389TIP3   OH2 4123   4.381   0.227   5.213
 1389TIP3    H1 4124   4.319   0.271   5.155
 1389TIP3    H2 4125   4.381   0.136   5.183
 1390TIP3   OH2 4126   1.022   4.031   4.066
 1390TIP3    H1 4127   0.960   4.018   4.138
 1390TIP3    H2 4128   1.093   4.083   4.105
 1391TIP3   OH2 4129   3.794   0.350   0.213
 1391TIP3    H1 4130   3.752   0.436   0.202
 1391TIP3    H2 4131   3.739   0.305   0.277
 1392TIP3   OH2 4132   2.358   7.713   1.530
 1392TIP3    H1 4133   2.324   7.681   1.447
 1392TIP3    H2 4134   2.359   7.635   1.587
 1393TIP3   OH2 4135   6.323   5.195   3.958
 1393TIP3    H1 4136   6.334   5.275   3.907
 1393TIP3    H2 4137   6.332   5.223   4.049
 1394TIP3   OH2 4138   5.352   5.731   0.880
 1394TIP3    H1 4139   5.319   5.817   0.905
 1394TIP3    H2 4140   5.446   5.734   0.899
 1395TIP3   OH2 4141   0.989   3.571   5.700
 1395TIP3    H1 4142   0.943   3.656   5.702
 1395TIP3    H2 4143   1.027   3.563   5.788
 1396TIP3   OH2 4144   8.038   7.796   3.925
 1396TIP3    H1 4145   8.096   7.742   3.979
 1396TIP3    H2 4146   8.076   7.791   3.837
 1397TIP3   OH2 4147   6.265   5.980   4.385
 1397TIP3    H1 4148   6.205   5.967   4.311
 1397TIP3    H2 4149   6.341   5.927   4.363
 1398TIP3   OH2 4150   1.243   5.687   3.142
 1398TIP3    H1 4151   1.265   5.618   3.079
 1398TIP3    H2 4152   1.294   5.664   3.220
 1399TIP3   OH2 4153   4.083   0.655   5.728
 1399TIP3    H1 4154   3.999   0.682   5.764
 1399TIP3    H2 4155   4.123   0.736   5.696
 1400TIP3   OH2 4156   5.762   7.263   3.758
 1400TIP3    H1 4157   5.732   7.316   3.683
 1400TIP3    H2 4158   5.762   7.324   3.832
 1401TIP3   OH2 4159   7.748   1.214   4.408
 1401TIP3    H1 4160   7.732   1.306   4.384
 1401TIP3    H2 4161   7.686   1.165   4.353
 1402TIP3   OH2 4162   1.134   5.869   1.944
 1402TIP3    H1 4163   1.119   5.779   1.914
 1402TIP3    H2 4164   1.095   5.924   1.876
 1403TIP3   OH2 4165   6.999   3.755   3.825
 1403TIP3    H1 4166   7.005   3.746   3.920
 1403TIP3    H2 4167   7.085   3.789   3.799
 1404TIP3   OH2 4168   0.694   3.141   2.787
 1404TIP3    H1 4169   0.749   3.218   2.789
 1404TIP3    H2 4170   0.724   3.087   2.860
 1405TIP3   OH2 4171   7.632   6.008   6.008
 1405TIP3    H1 4172   7.547   5.996   6.051
 1405TIP3    H2 4173   7.628   6.095   5.969
 1406TIP3   OH2 4174   5.879   3.279   5.050
 1406TIP3    H1 4175   5.970   3.280   5.080
 1406TIP3    H2 4176   5.829   3.306   5.127
 1407TIP3   OH2 4177   0.529   3.746   1.493
 1407TIP3    H1 4178   0.437   3.752   1.518
 1407TIP3    H2 4179   0.565   3.680   1.552
 1408TIP3   OH2 4180   1.503   0.079   5.511
 1408TIP3    H1 4181   1.505   0.109   5.602
 1408TIP3    H2 4182   1.552  -0.003   5.511
 1409TIP3   OH2 4183   5.437   2.712   0.879
 1409TIP3    H1 4184   5.531   2.700   0.878
 1409TIP3    H2 4185   5.423   2.795   0.834
 1410TIP3   OH2 4186   6.388   3.864   4.996
 1410TIP3    H1 4187   6.298   3.852   5.025
 1410TIP3    H2 4188   6.425   3.775   4.996
 1411TIP3   OH2 4189   6.248   4.586   4.631
 1411TIP3    H1 4190   6.229   4.529   4.705
 1411TIP3    H2 4191   6.190   4.556   4.561
 1412TIP3   OH2 4192   6.716   1.882   2.633
 1412TIP3    H1 4193   6.787   1.860   2.573
 1412TIP3    H2 4194   6.648   1.818   2.613
 1413TIP3   OH2 4195   4.981   1.651   0.872
 1413TIP3    H1 4196   4.895   1.693   0.872
 1413TIP3    H2 4197   5.002   1.637   0.964
 1414TIP3   OH2 4198   7.223   1.763   5.870
 1414TIP3    H1 4199   7.186   1.684   5.909
 1414TIP3    H2 4200   7.230   1.825   5.943
 1415TIP3   OH2 4201   6.433   1.814   0.389
 1415TIP3    H1 4202   6.459   1.746   0.451
 1415TIP3    H2 4203   6.512   1.829   0.336
 1416TIP3   OH2 4204   1.237   5.290   4.995
 1416TIP3    H1 4205   1.293   5.218   4.966
 1416TIP3    H2 4206   1.254   5.298   5.089
 1417TIP3   OH2 4207   6.677   0.979   3.666
 1417TIP3    H1 4208   6.760   0.936   3.684
 1417TIP3    H2 4209   6.625   0.967   3.745
 1418TIP3   OH2 4210   4.389   4.408   5.947
 1418TIP3    H1 4211   4.362   4.412   5.856
 1418TIP3    H2 4212   4.479   4.377   5.944
 1419TIP3   OH2 4213   4.711   6.153   2.650
 1419TIP3    H1 4214   4.727   6.240   2.615
 1419TIP3    H2 4215   4.622   6.157   2.684
 1420TIP3   OH2 4216   6.112   3.376   3.577
 1420TIP3    H1 4217   6.119   3.451   3.518
 1420TIP3    H2 4218   6.199   3.335   3.575
 1421TIP3   OH2 4219   2.246   0.118   5.832
 1421TIP3    H1 4220   2.234   0.083   5.744
 1421TIP3    H2 4221   2.318   0.067   5.868
 1422TIP3   OH2 4222   5.785   4.742   3.507
 1422TIP3    H1 4223   5.813   4.655   3.534
 1422TIP3    H2 4224   5.697   4.752   3.545
 1423TIP3   OH2 4225   1.048   2.812   5.602
 1423TIP3    H1 4226   1.113   2.844   5.539
 1423TIP3    H2 4227   0.964   2.829   5.559
 1424TIP3   OH2 4228   4.605   1.412   4.943
 1424TIP3    H1 4229   4.565   1.367   5.017
 1424TIP3    H2 4230   4.542   1.403   4.872
 1425TIP3   OH2 4231   2.166   2.116   6.702
 1425TIP3    H1 4232   2.216   2.062   6.641
 1425TIP3    H2 4233   2.219   2.195   6.712
 1426TIP3   OH2 4234   0.277   3.658   2.328
 1426TIP3    H1 4235   0.301   3.592   2.262
 1426TIP3    H2 4236   0.182   3.668   2.318
 1427TIP3   OH2 4237   3.721   5.597   6.729
 1427TIP3    H1 4238   3.751   5.600   6.820
 1427TIP3    H2 4239   3.798   5.571   6.679
 1428TIP3   OH2 4240   5.769   6.493   1.580
 1428TIP3    H1 4241   5.842   6.449   1.624
 1428TIP3    H2 4242   5.807   6.529   1.500
 1429TIP3   OH2 4243   1.584   6.508   2.283
 1429TIP3    H1 4244   1.540   6.423   2.274
 1429TIP3    H2 4245   1.675   6.491   2.258
 1430TIP3   OH2 4246   6.905   7.771   5.254
 1430TIP3    H1 4247   6.944   7.852   5.221
 1430TIP3    H2 4248   6.814   7.773   5.222
 1431TIP3   OH2 4249   0.491   3.410   2.527
 1431TIP3    H1 4250   0.586   3.406   2.522
 1431TIP3    H2 4251   0.473   3.461   2.605
 1432TIP3   OH2 4252   0.105   2.155   3.851
 1432TIP3    H1 4253   0.155   2.192   3.779
 1432TIP3    H2 4254   0.014   2.176   3.830
 1433TIP3   OH2 4255   6.547   6.238   0.199
 1433TIP3    H1 4256   6.505   6.259   0.116
 1433TIP3    H2 4257   6.477   6.248   0.264
 1434TIP3   OH2 4258   1.901   2.219   2.812
 1434TIP3    H1 4259   1.883   2.265   2.730
 1434TIP3    H2 4260   1.815   2.212   2.855
 1435TIP3   OH2 4261   1.224   3.205   0.064
 1435TIP3    H1 4262   1.310   3.195   0.023
 1435TIP3    H2 4263   1.191   3.116   0.074
 1436TIP3   OH2 4264   8.066   4.832   5.655
 1436TIP3    H1 4265   8.054   4.927   5.663
 1436TIP3    H2 4266   8.047   4.798   5.743
 1437TIP3   OH2 4267   3.830   6.592   2.243
 1437TIP3    H1 4268   3.762   6.652   2.273
 1437TIP3    H2 4269   3.812   6.579   2.150
 1438TIP3   OH2 4270   4.258   1.484   5.311
 1438TIP3    H1 4271   4.256   1.400   5.358
 1438TIP3    H2 4272   4.182   1.481   5.254
 1439TIP3   OH2 4273   4.774   3.085   3.448
 1439TIP3    H1 4274   4.723   3.121   3.375
 1439TIP3    H2 4275   4.772   3.155   3.515
 1440TIP3   OH2 4276   2.257   7.787   4.648
 1440TIP3    H1 4277   2.224   7.767   4.737
 1440TIP3    H2 4278   2.182   7.769   4.591
 1441TIP3   OH2 4279   0.621   5.940   5.594
 1441TIP3    H1 4280   0.607   5.851   5.627
 1441TIP3    H2 4281   0.597   5.936   5.502
 1442TIP3   OH2 4282   6.099   4.787   3.689
 1442TIP3    H1 4283   6.089   4.792   3.594
 1442TIP3    H2 4284   6.056   4.704   3.713
 1443TIP3   OH2 4285   2.993   5.978   5.680
 1443TIP3    H1 4286   3.070   6.030   5.699
 1443TIP3    H2 4287   2.928   6.006   5.744
 1444TIP3   OH2 4288   7.330   6.599   1.657
 1444TIP3    H1 4289   7.343   6.516   1.703
 1444TIP3    H2 4290   7.418   6.635   1.646
 1445TIP3   OH2 4291   8.188   1.420   5.256
 1445TIP3    H1 4292   8.126   1.493   5.255
 1445TIP3    H2 4293   8.243   1.435   5.179
 1446TIP3   OH2 4294   5.731   1.144   3.848
 1446TIP3    H1 4295   5.758   1.054   3.831
 1446TIP3    H2 4296   5.676   1.166   3.772
 1447TIP3   OH2 4297   6.540   4.998   2.275
 1447TIP3    H1 4298   6.609   4.969   2.216
 1447TIP3    H2 4299   6.474   5.036   2.218
 1448TIP3   OH2 4300   7.482   6.796   5.382
 1448TIP3    H1 4301   7.545   6.858   5.419
 1448TIP3    H2 4302   7.535   6.720   5.356
 1449TIP3   OH2 4303   5.161   2.075   4.781
 1449TIP3    H1 4304   5.150   2.161   4.820
 1449TIP3    H2 4305   5.215   2.090   4.704
 1450TIP3   OH2 4306   6.182   3.217   4.492
 1450TIP3    H1 4307   6.226   3.267   4.423
 1450TIP3    H2 4308   6.089   3.233   4.478
 1451TIP3   OH2 4309   2.294   3.279   6.798
 1451TIP3    H1 4310   2.202   3.294   6.777
 1451TIP3    H2 4311   2.319   3.203   6.745
 1452TIP3   OH2 4312   4.394   6.823   3.194
 1452TIP3    H1 4313   4.398   6.730   3.215
 1452TIP3    H2 4314   4.484   6.845   3.168
 1453TIP3   OH2 4315   4.528   4.328   3.052
 1453TIP3    H1 4316   4.462   4.339   3.120
 1453TIP3    H2 4317   4.520   4.406   2.997
 1454TIP3   OH2 4318   0.956   2.187   3.320
 1454TIP3    H1 4319   0.921   2.275   3.339
 1454TIP3    H2 4320   1.051   2.197   3.325
 1455TIP3   OH2 4321   5.615   3.658   5.183
 1455TIP3    H1 4322   5.708   3.681   5.191
 1455TIP3    H2 4323   5.585   3.648   5.273
 1456TIP3   OH2 4324   2.657   7.492   2.386
 1456TIP3    H1 4325   2.703   7.411   2.363
 1456TIP3    H2 4326   2.609   7.515   2.306
 1457TIP3   OH2 4327   3.782   0.823   5.991
 1457TIP3    H1 4328   3.874   0.831   6.014
 1457TIP3    H2 4329   3.744   0.772   6.062
 1458TIP3   OH2 4330   7.125   1.243   1.922
 1458TIP3    H1 4331   7.098   1.153   1.941
 1458TIP3    H2 4332   7.072   1.268   1.847
 1459TIP3   OH2 4333   7.751   7.430   1.538
 1459TIP3    H1 4334   7.723   7.342   1.563
 1459TIP3    H2 4335   7.718   7.486   1.608
 1460TIP3   OH2 4336   4.373   3.459   2.422
 1460TIP3    H1 4337   4.280   3.464   2.399
 1460TIP3    H2 4338   4.377   3.394   2.492
 1461TIP3   OH2 4339   4.792   5.709   4.832
 1461TIP3    H1 4340   4.733   5.665   4.893
 1461TIP3    H2 4341   4.869   5.731   4.884
 1462TIP3   OH2 4342   1.636   5.641   3.390
 1462TIP3    H1 4343   1.641   5.639   3.486
 1462TIP3    H2 4344   1.585   5.719   3.370
 1463TIP3   OH2 4345   8.250   5.214   3.012
 1463TIP3    H1 4346   8.231   5.120   3.003
 1463TIP3    H2 4347   8.216   5.236   3.099
 1464TIP3   OH2 4348   3.060   4.333   5.195
 1464TIP3    H1 4349   3.070   4.261   5.257
 1464TIP3    H2 4350   3.059   4.291   5.109
 1465TIP3   OH2 4351   3.716   1.509   2.877
 1465TIP3    H1 4352   3.742   1.439   2.817
 1465TIP3    H2 4353   3.686   1.464   2.955
 1466TIP3   OH2 4354   6.774   0.678   1.669
 1466TIP3    H1 4355   6.750   0.766   1.698
 1466TIP3    H2 4356   6.768   0.625   1.748
 1467TIP3   OH2 4357   7.165   4.472   2.716
 1467TIP3    H1 4358   7.116   4.401   2.756
 1467TIP3    H2 4359   7.163   4.543   2.780
 1468TIP3   OH2 4360   7.342   6.348   3.466
 1468TIP3    H1 4361   7.401   6.385   3.531
 1468TIP3    H2 4362   7.291   6.282   3.514
 1469TIP3   OH2 4363   2.007   1.041   4.069
 1469TIP3    H1 4364   2.071   1.073   4.006
 1469TIP3    H2 4365   2.022   1.093   4.148
 1470TIP3   OH2 4366   6.150   0.989   5.207
 1470TIP3    H1 4367   6.210   0.993   5.282
 1470TIP3    H2 4368   6.116   0.899   5.210
 1471TIP3   OH2 4369   7.204   7.661   5.545
 1471TIP3    H1 4370   7.210   7.582   5.492
 1471TIP3    H2 4371   7.266   7.647   5.617
 1472TIP3   OH2 4372   2.119   3.194   3.682
 1472TIP3    H1 4373   2.088   3.138   3.753
 1472TIP3    H2 4374   2.153   3.272   3.727
 1473TIP3   OH2 4375   1.211   7.276   6.167
 1473TIP3    H1 4376   1.268   7.251   6.094
 1473TIP3    H2 4377   1.165   7.196   6.190
 1474TIP3   OH2 4378   3.116   5.696   6.619
 1474TIP3    H1 4379   3.142   5.667   6.707
 1474TIP3    H2 4380   3.024   5.672   6.612
 1475TIP3   OH2 4381   2.481   5.147   1.342
 1475TIP3    H1 4382   2.432   5.149   1.424
 1475TIP3    H2 4383   2.545   5.077   1.354
 1476TIP3   OH2 4384   0.197   7.039   1.911
 1476TIP3    H1 4385   0.153   7.113   1.870
 1476TIP3    H2 4386   0.196   6.971   1.844
 1477TIP3   OH2 4387   0.973   3.052   1.381
 1477TIP3    H1 4388   1.047   3.110   1.362
 1477TIP3    H2 4389   0.971   3.047   1.477
 1478TIP3   OH2 4390   4.502   7.610   2.466
 1478TIP3    H1 4391   4.481   7.599   2.559
 1478TIP3    H2 4392   4.598   7.603   2.462
 1479TIP3   OH2 4393   0.899   3.519   1.400
 1479TIP3    H1 4394   0.831   3.453   1.415
 1479TIP3    H2 4395   0.922   3.551   1.487
 1480TIP3   OH2 4396   5.467   3.719   4.843
 1480TIP3    H1 4397   5.500   3.784   4.905
 1480TIP3    H2 4398   5.513   3.738   4.762
 1481TIP3   OH2 4399   4.401   6.218   1.549
 1481TIP3    H1 4400   4.369   6.287   1.491
 1481TIP3    H2 4401   4.495   6.211   1.529
 1482TIP3   OH2 4402   7.433   1.090   6.416
 1482TIP3    H1 4403   7.348   1.133   6.423
 1482TIP3    H2 4404   7.412   0.998   6.401
 1483TIP3   OH2 4405   5.562   1.331   0.609
 1483TIP3    H1 4406   5.635   1.389   0.631
 1483TIP3    H2 4407   5.484   1.386   0.619
 1484TIP3   OH2 4408   7.889   4.787   0.876
 1484TIP3    H1 4409   7.816   4.827   0.829
 1484TIP3    H2 4410   7.967   4.826   0.837
 1485TIP3   OH2 4411   1.011   4.404   0.932
 1485TIP3    H1 4412   0.921   4.382   0.910
 1485TIP3    H2 4413   1.061   4.325   0.910
 1486TIP3   OH2 4414   7.776   1.298   3.277
 1486TIP3    H1 4415   7.834   1.319   3.204
 1486TIP3    H2 4416   7.770   1.202   3.275
 1487TIP3   OH2 4417   4.362   6.588   6.090
 1487TIP3    H1 4418   4.441   6.534   6.078
 1487TIP3    H2 4419   4.304   6.561   6.019
 1488TIP3   OH2 4420   0.701   4.165   4.518
 1488TIP3    H1 4421   0.644   4.155   4.594
 1488TIP3    H2 4422   0.702   4.260   4.502
 1489TIP3   OH2 4423   1.232   1.261   1.761
 1489TIP3    H1 4424   1.154   1.235   1.810
 1489TIP3    H2 4425   1.293   1.290   1.829
 1490TIP3   OH2 4426   7.672   6.464   5.651
 1490TIP3    H1 4427   7.628   6.421   5.577
 1490TIP3    H2 4428   7.731   6.398   5.686
 1491TIP3   OH2 4429   3.524   3.627   0.518
 1491TIP3    H1 4430   3.618   3.616   0.531
 1491TIP3    H2 4431   3.500   3.699   0.575
 1492TIP3   OH2 4432   3.516   0.490   0.525
 1492TIP3    H1 4433   3.459   0.526   0.457
 1492TIP3    H2 4434   3.569   0.565   0.554
 1493TIP3   OH2 4435   2.703   4.614   2.823
 1493TIP3    H1 4436   2.686   4.706   2.802
 1493TIP3    H2 4437   2.712   4.613   2.918
 1494TIP3   OH2 4438   7.603   5.941   2.708
 1494TIP3    H1 4439   7.533   5.986   2.661
 1494TIP3    H2 4440   7.631   5.872   2.648
 1495TIP3   OH2 4441   5.453   2.416   5.431
 1495TIP3    H1 4442   5.465   2.332   5.474
 1495TIP3    H2 4443   5.472   2.481   5.500
 1496TIP3   OH2 4444   6.264   7.570   2.338
 1496TIP3    H1 4445   6.183   7.518   2.336
 1496TIP3    H2 4446   6.273   7.597   2.429
 1497TIP3   OH2 4447   0.444   0.183   2.389
 1497TIP3    H1 4448   0.360   0.227   2.375
 1497TIP3    H2 4449   0.437   0.103   2.337
 1498TIP3   OH2 4450   0.648   6.035   3.834
 1498TIP3    H1 4451   0.725   6.085   3.806
 1498TIP3    H2 4452   0.640   5.966   3.768
 1499TIP3   OH2 4453   6.370   2.410   1.088
 1499TIP3    H1 4454   6.358   2.442   0.999
 1499TIP3    H2 4455   6.370   2.489   1.142
 1500TIP3   OH2 4456   2.602   7.116   5.068
 1500TIP3    H1 4457   2.531   7.066   5.107
 1500TIP3    H2 4458   2.634   7.061   4.996
 1501TIP3   OH2 4459   1.628   0.639   3.258
 1501TIP3    H1 4460   1.589   0.557   3.228
 1501TIP3    H2 4461   1.590   0.655   3.344
 1502TIP3   OH2 4462   2.403   7.290   5.713
 1502TIP3    H1 4463   2.480   7.303   5.658
 1502TIP3    H2 4464   2.437   7.246   5.791
 1503TIP3   OH2 4465   8.250   3.659   3.325
 1503TIP3    H1 4466   8.297   3.691   3.402
 1503TIP3    H2 4467   8.306   3.591   3.289
 1504TIP3   OH2 4468   0.438   0.875   0.302
 1504TIP3    H1 4469   0.382   0.944   0.266
 1504TIP3    H2 4470   0.460   0.907   0.390
 1505TIP3   OH2 4471   4.364   7.537   2.698
 1505TIP3    H1 4472   4.344   7.447   2.723
 1505TIP3    H2 4473   4.428   7.566   2.763
 1506TIP3   OH2 4474   3.263   7.223   0.415
 1506TIP3    H1 4475   3.322   7.233   0.340
 1506TIP3    H2 4476   3.294   7.144   0.460
 1507TIP3   OH2 4477   5.408   7.738   2.940
 1507TIP3    H1 4478   5.359   7.784   2.872
 1507TIP3    H2 4479   5.377   7.648   2.935
 1508TIP3   OH2 4480   0.952   0.254   5.730
 1508TIP3    H1 4481   1.043   0.273   5.753
 1508TIP3    H2 4482   0.958   0.196   5.654
 1509TIP3   OH2 4483   3.787   4.042   3.680
 1509TIP3    H1 4484   3.778   4.127   3.635
 1509TIP3    H2 4485   3.857   3.998   3.632
 1510TIP3   OH2 4486   7.643   7.599   2.871
 1510TIP3    H1 4487   7.683   7.685   2.860
 1510TIP3    H2 4488   7.695   7.541   2.816
 1511TIP3   OH2 4489   8.164   5.742   2.201
 1511TIP3    H1 4490   8.082   5.782   2.172
 1511TIP3    H2 4491   8.217   5.815   2.232
 1512TIP3   OH2 4492   5.701   0.476   2.490
 1512TIP3    H1 4493   5.635   0.406   2.492
 1512TIP3    H2 4494   5.651   0.555   2.469
 1513TIP3   OH2 4495   2.519   4.322   0.791
 1513TIP3    H1 4496   2.561   4.239   0.768
 1513TIP3    H2 4497   2.517   4.322   0.887
 1514TIP3   OH2 4498   3.928   1.093   4.917
 1514TIP3    H1 4499   3.899   1.082   4.827
 1514TIP3    H2 4500   3.912   1.008   4.958
 1515TIP3   OH2 4501   3.500   5.973   3.774
 1515TIP3    H1 4502   3.576   5.915   3.781
 1515TIP3    H2 4503   3.486   5.983   3.680
 1516TIP3   OH2 4504   6.392   5.800   4.776
 1516TIP3    H1 4505   6.478   5.824   4.813
 1516TIP3    H2 4506   6.329   5.837   4.838
 1517TIP3   OH2 4507   0.332   2.586   3.128
 1517TIP3    H1 4508   0.298   2.640   3.057
 1517TIP3    H2 4509   0.411   2.546   3.091
 1518TIP3   OH2 4510   7.807   6.241   5.791
 1518TIP3    H1 4511   7.871   6.182   5.752
 1518TIP3    H2 4512   7.841   6.260   5.878
 1519TIP3   OH2 4513   5.855   7.764   4.615
 1519TIP3    H1 4514   5.922   7.829   4.594
 1519TIP3    H2 4515   5.849   7.766   4.711
 1520TIP3   OH2 4516   3.498   3.369   0.303
 1520TIP3    H1 4517   3.448   3.348   0.381
 1520TIP3    H2 4518   3.581   3.322   0.315
 1521TIP3   OH2 4519   2.500   0.604   0.887
 1521TIP3    H1 4520   2.549   0.592   0.806
 1521TIP3    H2 4521   2.535   0.537   0.946
 1522TIP3   OH2 4522   6.188   1.214   0.279
 1522TIP3    H1 4523   6.239   1.248   0.205
 1522TIP3    H2 4524   6.097   1.217   0.249
 1523TIP3   OH2 4525   7.955   4.639   2.890
 1523TIP3    H1 4526   7.993   4.644   2.802
 1523TIP3    H2 4527   7.895   4.712   2.894
 1524TIP3   OH2 4528   4.809   6.406   1.733
 1524TIP3    H1 4529   4.737   6.352   1.701
 1524TIP3    H2 4530   4.888   6.367   1.695
 1525TIP3   OH2 4531   1.443   5.222   1.812
 1525TIP3    H1 4532   1.366   5.210   1.757
 1525TIP3    H2 4533   1.511   5.170   1.771
 1526TIP3   OH2 4534   3.425   2.424   6.765
 1526TIP3    H1 4535   3.387   2.424   6.677
 1526TIP3    H2 4536   3.503   2.369   6.758
 1527TIP3   OH2 4537   3.617   7.214   1.948
 1527TIP3    H1 4538   3.708   7.241   1.957
 1527TIP3    H2 4539   3.600   7.158   2.024
 1528TIP3   OH2 4540   3.724   0.003   2.697
 1528TIP3    H1 4541   3.805   0.046   2.724
 1528TIP3    H2 4542   3.751  -0.060   2.630
 1529TIP3   OH2 4543   1.355   0.304   4.436
 1529TIP3    H1 4544   1.402   0.308   4.352
 1529TIP3    H2 4545   1.358   0.212   4.461
 1530TIP3   OH2 4546   0.811   0.643   6.087
 1530TIP3    H1 4547   0.769   0.558   6.079
 1530TIP3    H2 4548   0.862   0.653   6.006
 1531TIP3   OH2 4549   5.471   2.843   1.671
 1531TIP3    H1 4550   5.455   2.838   1.577
 1531TIP3    H2 4551   5.506   2.758   1.694
 1532TIP3   OH2 4552   2.248   3.516   2.387
 1532TIP3    H1 4553   2.249   3.569   2.307
 1532TIP3    H2 4554   2.195   3.439   2.364
 1533TIP3   OH2 4555   5.350   6.589   0.259
 1533TIP3    H1 4556   5.268   6.575   0.306
 1533TIP3    H2 4557   5.351   6.521   0.192
 1534TIP3   OH2 4558   0.866   3.815   3.991
 1534TIP3    H1 4559   0.913   3.775   3.918
 1534TIP3    H2 4560   0.934   3.852   4.047
 1535TIP3   OH2 4561   6.804   6.750   5.995
 1535TIP3    H1 4562   6.828   6.664   6.030
 1535TIP3    H2 4563   6.804   6.737   5.900
 1536TIP3   OH2 4564   4.068   2.046   0.964
 1536TIP3    H1 4565   4.131   1.985   1.001
 1536TIP3    H2 4566   3.987   1.996   0.954
 1537TIP3   OH2 4567   7.356   2.087   4.457
 1537TIP3    H1 4568   7.388   2.176   4.440
 1537TIP3    H2 4569   7.371   2.041   4.374
 1538TIP3   OH2 4570   1.570   4.019   1.146
 1538TIP3    H1 4571   1.602   3.938   1.107
 1538TIP3    H2 4572   1.608   4.088   1.091
 1539TIP3   OH2 4573   5.366   7.262   3.630
 1539TIP3    H1 4574   5.308   7.236   3.701
 1539TIP3    H2 4575   5.356   7.192   3.564
 1540TIP3   OH2 4576   7.245   1.401   2.546
 1540TIP3    H1 4577   7.292   1.320   2.526
 1540TIP3    H2 4578   7.193   1.418   2.468
 1541TIP3   OH2 4579   2.222   6.504   6.560
 1541TIP3    H1 4580   2.160   6.432   6.571
 1541TIP3    H2 4581   2.204   6.539   6.473
 1542TIP3   OH2 4582   2.435   0.356   1.709
 1542TIP3    H1 4583   2.451   0.429   1.768
 1542TIP3    H2 4584   2.340   0.345   1.709
 1543TIP3   OH2 4585   4.070   3.747   0.225
 1543TIP3    H1 4586   4.118   3.813   0.175
 1543TIP3    H2 4587   3.986   3.789   0.246
 1544TIP3   OH2 4588   5.676   6.002   0.887
 1544TIP3    H1 4589   5.611   6.008   0.818
 1544TIP3    H2 4590   5.760   6.018   0.843
 1545TIP3   OH2 4591   5.740   6.886   3.952
 1545TIP3    H1 4592   5.817   6.830   3.944
 1545TIP3    H2 4593   5.720   6.912   3.862
 1546TIP3   OH2 4594   3.530   3.407   5.910
 1546TIP3    H1 4595   3.625   3.414   5.912
 1546TIP3    H2 4596   3.512   3.314   5.902
 1547TIP3   OH2 4597   6.151   7.254   0.719
 1547TIP3    H1 4598   6.227   7.234   0.774
 1547TIP3    H2 4599   6.124   7.169   0.683
 1548TIP3   OH2 4600   6.916   2.478   5.681
 1548TIP3    H1 4601   6.871   2.561   5.695
 1548TIP3    H2 4602   7.006   2.494   5.709
 1549TIP3   OH2 4603   4.832   6.657   3.668
 1549TIP3    H1 4604   4.780   6.694   3.597
 1549TIP3    H2 4605   4.891   6.595   3.625
 1550TIP3   OH2 4606   6.515   3.294   0.653
 1550TIP3    H1 4607   6.473   3.343   0.724
 1550TIP3    H2 4608   6.544   3.213   0.694
 1551TIP3   OH2 4609   6.664   3.497   6.267
 1551TIP3    H1 4610   6.591   3.498   6.329
 1551TIP3    H2 4611   6.622   3.497   6.181
 1552TIP3   OH2 4612   7.694   3.876   6.213
 1552TIP3    H1 4613   7.618   3.847   6.161
 1552TIP3    H2 4614   7.752   3.800   6.215
 1553TIP3   OH2 4615   3.267   5.901   2.978
 1553TIP3    H1 4616   3.179   5.940   2.978
 1553TIP3    H2 4617   3.305   5.929   2.894
 1554TIP3   OH2 4618   7.976   5.265   5.438
 1554TIP3    H1 4619   7.996   5.346   5.390
 1554TIP3    H2 4620   7.915   5.293   5.506
 1555TIP3   OH2 4621   7.010   5.298   4.186
 1555TIP3    H1 4622   7.053   5.363   4.129
 1555TIP3    H2 4623   7.017   5.216   4.138
 1556TIP3   OH2 4624   6.993   1.328   2.705
 1556TIP3    H1 4625   7.043   1.247   2.694
 1556TIP3    H2 4626   7.059   1.397   2.702
 1557TIP3   OH2 4627   2.211   5.860   3.587
 1557TIP3    H1 4628   2.205   5.765   3.575
 1557TIP3    H2 4629   2.288   5.886   3.536
 1558TIP3   OH2 4630   0.234   7.590   4.255
 1558TIP3    H1 4631   0.224   7.511   4.307
 1558TIP3    H2 4632   0.160   7.590   4.195
 1559TIP3   OH2 4633   2.118   3.820   1.084
 1559TIP3    H1 4634   2.200   3.862   1.108
 1559TIP3    H2 4635   2.141   3.728   1.072
 1560TIP3   OH2 4636   4.071   5.186   4.397
 1560TIP3    H1 4637   3.976   5.172   4.396
 1560TIP3    H2 4638   4.105   5.114   4.451
 1561TIP3   OH2 4639   5.936   4.579   2.595
 1561TIP3    H1 4640   6.002   4.554   2.531
 1561TIP3    H2 4641   5.854   4.548   2.557
 1562TIP3   OH2 4642   5.417   0.060   0.598
 1562TIP3    H1 4643   5.402   0.154   0.603
 1562TIP3    H2 4644   5.478   0.049   0.524
 1563TIP3   OH2 4645   3.271   1.463   0.420
 1563TIP3    H1 4646   3.343   1.518   0.452
 1563TIP3    H2 4647   3.218   1.521   0.365
 1564TIP3   OH2 4648   0.176   1.622   5.614
 1564TIP3    H1 4649   0.218   1.605   5.698
 1564TIP3    H2 4650   0.082   1.618   5.633
 1565TIP3   OH2 4651   2.284   0.476   3.087
 1565TIP3    H1 4652   2.368   0.430   3.086
 1565TIP3    H2 4653   2.220   0.407   3.103
 1566TIP3   OH2 4654   1.777   7.718   0.805
 1566TIP3    H1 4655   1.822   7.670   0.875
 1566TIP3    H2 4656   1.733   7.790   0.850
 1567TIP3   OH2 4657   2.325   1.647   1.734
 1567TIP3    H1 4658   2.245   1.661   1.785
 1567TIP3    H2 4659   2.294   1.602   1.654
 1568TIP3   OH2 4660   0.769   0.265   4.553
 1568TIP3    H1 4661   0.778   0.337   4.615
 1568TIP3    H2 4662   0.833   0.284   4.484
 1569TIP3   OH2 4663   6.575   2.555   5.544
 1569TIP3    H1 4664   6.511   2.576   5.612
 1569TIP3    H2 4665   6.644   2.507   5.590
 1570TIP3   OH2 4666   5.260   4.695   2.322
 1570TIP3    H1 4667   5.275   4.676   2.414
 1570TIP3    H2 4668   5.276   4.611   2.278
 1571TIP3   OH2 4669   8.108   3.703   5.375
 1571TIP3    H1 4670   8.177   3.659   5.425
 1571TIP3    H2 4671   8.153   3.734   5.297
 1572TIP3   OH2 4672   7.100   0.511   0.713
 1572TIP3    H1 4673   7.023   0.522   0.657
 1572TIP3    H2 4674   7.101   0.417   0.733
 1573TIP3   OH2 4675   0.895   6.293   3.246
 1573TIP3    H1 4676   0.830   6.296   3.177
 1573TIP3    H2 4677   0.959   6.360   3.222
 1574TIP3   OH2 4678   0.053   1.404   4.084
 1574TIP3    H1 4679   0.022   1.313   4.076
 1574TIP3    H2 4680  -0.023   1.457   4.059
 1575TIP3   OH2 4681   0.460   5.974   3.216
 1575TIP3    H1 4682   0.368   5.967   3.192
 1575TIP3    H2 4683   0.481   6.067   3.205
 1576TIP3   OH2 4684   8.020   3.000   4.128
 1576TIP3    H1 4685   8.079   2.989   4.053
 1576TIP3    H2 4686   8.055   2.941   4.194
 1577TIP3   OH2 4687   0.302   3.624   5.954
 1577TIP3    H1 4688   0.264   3.701   5.912
 1577TIP3    H2 4689   0.381   3.604   5.902
 1578TIP3   OH2 4690   5.713   5.047   1.088
 1578TIP3    H1 4691   5.644   4.983   1.074
 1578TIP3    H2 4692   5.668   5.132   1.089
 1579TIP3   OH2 4693   1.019   1.597   0.605
 1579TIP3    H1 4694   1.089   1.532   0.592
 1579TIP3    H2 4695   0.940   1.544   0.620
 1580TIP3   OH2 4696   3.617   3.205   3.914
 1580TIP3    H1 4697   3.643   3.286   3.870
 1580TIP3    H2 4698   3.700   3.159   3.929
 1581TIP3   OH2 4699   0.248   4.496   1.082
 1581TIP3    H1 4700   0.176   4.454   1.036
 1581TIP3    H2 4701   0.301   4.535   1.013
 1582TIP3   OH2 4702   3.273   0.136   3.853
 1582TIP3    H1 4703   3.359   0.151   3.813
 1582TIP3    H2 4704   3.220   0.099   3.782
 1583TIP3   OH2 4705   2.739   3.157   3.731
 1583TIP3    H1 4706   2.785   3.150   3.647
 1583TIP3    H2 4707   2.793   3.107   3.792
 1584TIP3   OH2 4708   6.141   7.085   6.733
 1584TIP3    H1 4709   6.085   7.048   6.665
 1584TIP3    H2 4710   6.229   7.086   6.695
 1585TIP3   OH2 4711   2.355   1.938   1.432
 1585TIP3    H1 4712   2.355   1.969   1.341
 1585TIP3    H2 4713   2.265   1.912   1.449
 1586TIP3   OH2 4714   5.787   7.263   5.635
 1586TIP3    H1 4715   5.864   7.253   5.690
 1586TIP3    H2 4716   5.795   7.193   5.569
 1587TIP3   OH2 4717   6.642   2.938   2.335
 1587TIP3    H1 4718   6.718   2.925   2.392
 1587TIP3    H2 4719   6.588   2.861   2.349
 1588TIP3   OH2 4720   4.319   4.550   4.016
 1588TIP3    H1 4721   4.228   4.551   3.985
 1588TIP3    H2 4722   4.370   4.583   3.942
 1589TIP3   OH2 4723   4.944   1.605   1.208
 1589TIP3    H1 4724   4.974   1.515   1.220
 1589TIP3    H2 4725   4.852   1.603   1.236
 1590TIP3   OH2 4726   2.632   3.356   2.943
 1590TIP3    H1 4727   2.614   3.291   2.875
 1590TIP3    H2 4728   2.721   3.387   2.922
 1591TIP3   OH2 4729   4.277   5.619   1.786
 1591TIP3    H1 4730   4.299   5.569   1.864
 1591TIP3    H2 4731   4.203   5.674   1.813
 1592TIP3   OH2 4732   6.179   6.429   0.282
 1592TIP3    H1 4733   6.169   6.425   0.187
 1592TIP3    H2 4734   6.106   6.377   0.316
 1593TIP3   OH2 4735   4.628   0.352   0.088
 1593TIP3    H1 4736   4.617   0.257   0.084
 1593TIP3    H2 4737   4.568   0.380   0.157
 1594TIP3   OH2 4738   5.257   6.050   3.791
 1594TIP3    H1 4739   5.243   6.052   3.885
 1594TIP3    H2 4740   5.203   5.978   3.760
 1595TIP3   OH2 4741   7.952   1.541   5.299
 1595TIP3    H1 4742   7.959   1.453   5.337
 1595TIP3    H2 4743   7.878   1.535   5.238
 1596TIP3   OH2 4744   8.261   2.893   3.981
 1596TIP3    H1 4745   8.233   2.831   3.913
 1596TIP3    H2 4746   8.296   2.838   4.051
 1597TIP3   OH2 4747   2.524   4.789   3.286
 1597TIP3    H1 4748   2.510   4.745   3.370
 1597TIP3    H2 4749   2.506   4.721   3.221
 1598TIP3   OH2 4750   1.253   4.152   1.819
 1598TIP3    H1 4751   1.319   4.103   1.769
 1598TIP3    H2 4752   1.241   4.233   1.769
 1599TIP3   OH2 4753   3.095   1.953   1.467
 1599TIP3    H1 4754   3.025   1.938   1.403
 1599TIP3    H2 4755   3.147   1.872   1.464
 1600TIP3   OH2 4756   3.788   4.764   0.104
 1600TIP3    H1 4757   3.849   4.837   0.096
 1600TIP3    H2 4758   3.757   4.769   0.195
 1601TIP3   OH2 4759   3.828   6.395   4.445
 1601TIP3    H1 4760   3.798   6.477   4.484
 1601TIP3    H2 4761   3.917   6.414   4.414
 1602TIP3   OH2 4762   4.415   1.335   3.500
 1602TIP3    H1 4763   4.435   1.379   3.418
 1602TIP3    H2 4764   4.499   1.301   3.531
 1603TIP3   OH2 4765   1.085   5.640   1.175
 1603TIP3    H1 4766   1.176   5.618   1.192
 1603TIP3    H2 4767   1.085   5.672   1.084
 1604TIP3   OH2 4768   7.690   6.241   3.866
 1604TIP3    H1 4769   7.723   6.322   3.829
 1604TIP3    H2 4770   7.608   6.266   3.909
 1605TIP3   OH2 4771   5.348   1.555   0.040
 1605TIP3    H1 4772   5.388   1.631  -0.003
 1605TIP3    H2 4773   5.286   1.593   0.102
 1606TIP3   OH2 4774   3.118   7.683   5.443
 1606TIP3    H1 4775   3.146   7.595   5.421
 1606TIP3    H2 4776   3.090   7.721   5.360
 1607TIP3   OH2 4777   3.380   2.434   1.446
 1607TIP3    H1 4778   3.334   2.375   1.505
 1607TIP3    H2 4779   3.315   2.499   1.420
 1608TIP3   OH2 4780   0.743   2.890   5.615
 1608TIP3    H1 4781   0.721   2.960   5.553
 1608TIP3    H2 4782   0.724   2.809   5.567
 1609TIP3   OH2 4783   2.410   0.588   1.499
 1609TIP3    H1 4784   2.385   0.614   1.587
 1609TIP3    H2 4785   2.389   0.494   1.495
 1610TIP3   OH2 4786   4.078   4.991   2.907
 1610TIP3    H1 4787   4.095   4.909   2.953
 1610TIP3    H2 4788   4.164   5.019   2.875
 1611TIP3   OH2 4789   4.001   4.714   1.875
 1611TIP3    H1 4790   4.016   4.763   1.794
 1611TIP3    H2 4791   4.036   4.770   1.944
 1612TIP3   OH2 4792   3.489   2.555   5.935
 1612TIP3    H1 4793   3.521   2.529   6.021
 1612TIP3    H2 4794   3.454   2.474   5.896
 1613TIP3   OH2 4795   2.614   2.356   4.011
 1613TIP3    H1 4796   2.583   2.271   3.980
 1613TIP3    H2 4797   2.605   2.352   4.106
 1614TIP3   OH2 4798   7.984   4.305   2.400
 1614TIP3    H1 4799   7.924   4.351   2.342
 1614TIP3    H2 4800   7.957   4.213   2.396
 1615TIP3   OH2 4801   3.733   3.868   6.618
 1615TIP3    H1 4802   3.690   3.802   6.564
 1615TIP3    H2 4803   3.752   3.823   6.700
 1616TIP3   OH2 4804   1.769   3.882   3.075
 1616TIP3    H1 4805   1.685   3.924   3.055
 1616TIP3    H2 4806   1.823   3.900   2.999
 1617TIP3   OH2 4807   4.491   4.234   1.004
 1617TIP3    H1 4808   4.491   4.141   0.982
 1617TIP3    H2 4809   4.506   4.237   1.098
 1618TIP3   OH2 4810   2.875   0.474   5.421
 1618TIP3    H1 4811   2.857   0.541   5.355
 1618TIP3    H2 4812   2.970   0.467   5.424
 1619TIP3   OH2 4813   8.053   1.958   0.538
 1619TIP3    H1 4814   8.083   1.877   0.498
 1619TIP3    H2 4815   7.963   1.968   0.508
 1620TIP3   OH2 4816   1.205   0.608   3.226
 1620TIP3    H1 4817   1.142   0.662   3.178
 1620TIP3    H2 4818   1.198   0.521   3.185
 1621TIP3   OH2 4819   5.732   4.548   2.888
 1621TIP3    H1 4820   5.720   4.575   2.980
 1621TIP3    H2 4821   5.824   4.525   2.882
 1622TIP3   OH2 4822   3.162   3.076   1.156
 1622TIP3    H1 4823   3.073   3.040   1.150
 1622TIP3    H2 4824   3.149   3.171   1.164
 1623TIP3   OH2 4825   6.483   0.826   2.937
 1623TIP3    H1 4826   6.520   0.851   2.853
 1623TIP3    H2 4827   6.494   0.904   2.992
 1624TIP3   OH2 4828   6.242   0.867   5.688
 1624TIP3    H1 4829   6.151   0.878   5.714
 1624TIP3    H2 4830   6.280   0.811   5.756
 1625TIP3   OH2 4831   6.712   7.039   5.754
 1625TIP3    H1 4832   6.749   7.062   5.839
 1625TIP3    H2 4833   6.713   6.944   5.752
 1626TIP3   OH2 4834   0.949   0.601   1.017
 1626TIP3    H1 4835   1.001   0.643   1.086
 1626TIP3    H2 4836   0.891   0.670   0.986
 1627TIP3   OH2 4837   7.479   7.017   5.618
 1627TIP3    H1 4838   7.503   6.932   5.656
 1627TIP3    H2 4839   7.456   7.071   5.693
 1628TIP3   OH2 4840   5.546   4.746   0.847
 1628TIP3    H1 4841   5.629   4.777   0.811
 1628TIP3    H2 4842   5.538   4.656   0.814
 1629TIP3   OH2 4843   0.417   5.986   0.182
 1629TIP3    H1 4844   0.401   5.896   0.154
 1629TIP3    H2 4845   0.333   6.015   0.218
 1630TIP3   OH2 4846   7.543   4.821   5.699
 1630TIP3    H1 4847   7.549   4.914   5.717
 1630TIP3    H2 4848   7.623   4.800   5.651
 1631TIP3   OH2 4849   2.626   3.054   2.408
 1631TIP3    H1 4850   2.546   3.021   2.448
 1631TIP3    H2 4851   2.696   3.027   2.468
 1632TIP3   OH2 4852   6.168   5.780   5.815
 1632TIP3    H1 4853   6.257   5.765   5.784
 1632TIP3    H2 4854   6.149   5.871   5.790
 1633TIP3   OH2 4855   7.155   5.846   6.411
 1633TIP3    H1 4856   7.147   5.786   6.337
 1633TIP3    H2 4857   7.223   5.808   6.466
 1634TIP3   OH2 4858   5.334   0.978   1.517
 1634TIP3    H1 4859   5.417   0.937   1.493
 1634TIP3    H2 4860   5.268   0.909   1.502
 1635TIP3   OH2 4861   5.815   0.720   4.769
 1635TIP3    H1 4862   5.791   0.810   4.747
 1635TIP3    H2 4863   5.822   0.720   4.865
 1636TIP3   OH2 4864   1.672   3.776   3.686
 1636TIP3    H1 4865   1.673   3.858   3.735
 1636TIP3    H2 4866   1.580   3.751   3.683
 1637TIP3   OH2 4867   6.861   1.601   3.421
 1637TIP3    H1 4868   6.828   1.564   3.339
 1637TIP3    H2 4869   6.876   1.525   3.477
 1638TIP3   OH2 4870   8.144   1.128   3.248
 1638TIP3    H1 4871   8.216   1.076   3.211
 1638TIP3    H2 4872   8.110   1.179   3.174
 1639TIP3   OH2 4873   6.342   0.224   6.469
 1639TIP3    H1 4874   6.379   0.307   6.439
 1639TIP3    H2 4875   6.248   0.240   6.473
 1640TIP3   OH2 4876   0.489   6.144   5.121
 1640TIP3    H1 4877   0.418   6.082   5.105
 1640TIP3    H2 4878   0.446   6.230   5.124
 1641TIP3   OH2 4879   4.702   4.099   4.358
 1641TIP3    H1 4880   4.631   4.078   4.296
 1641TIP3    H2 4881   4.774   4.042   4.332
 1642TIP3   OH2 4882   0.950   0.558   3.411
 1642TIP3    H1 4883   1.010   0.564   3.336
 1642TIP3    H2 4884   0.868   0.526   3.374
 1643TIP3   OH2 4885   8.080   0.733   5.384
 1643TIP3    H1 4886   8.031   0.676   5.443
 1643TIP3    H2 4887   8.152   0.678   5.353
 1644TIP3   OH2 4888   2.630   1.591   2.212
 1644TIP3    H1 4889   2.699   1.527   2.195
 1644TIP3    H2 4890   2.661   1.671   2.167
 1645TIP3   OH2 4891   4.970   2.438   6.076
 1645TIP3    H1 4892   4.967   2.439   5.980
 1645TIP3    H2 4893   4.987   2.346   6.097
 1646TIP3   OH2 4894   1.109   6.798   2.756
 1646TIP3    H1 4895   1.094   6.891   2.743
 1646TIP3    H2 4896   1.028   6.756   2.726
 1647TIP3   OH2 4897   6.983   1.768   1.160
 1647TIP3    H1 4898   7.023   1.855   1.159
 1647TIP3    H2 4899   6.997   1.734   1.072
 1648TIP3   OH2 4900   0.297   2.267   5.728
 1648TIP3    H1 4901   0.321   2.345   5.678
 1648TIP3    H2 4902   0.335   2.195   5.679
 1649TIP3   OH2 4903   3.365   3.683   5.076
 1649TIP3    H1 4904   3.335   3.593   5.068
 1649TIP3    H2 4905   3.453   3.676   5.115
 1650TIP3   OH2 4906   4.270   4.480   5.429
 1650TIP3    H1 4907   4.365   4.472   5.436
 1650TIP3    H2 4908   4.237   4.405   5.478
 1651TIP3   OH2 4909   4.866   4.532   1.718
 1651TIP3    H1 4910   4.840   4.516   1.809
 1651TIP3    H2 4911   4.830   4.459   1.669
 1652TIP3   OH2 4912   5.277   6.667   2.067
 1652TIP3    H1 4913   5.300   6.692   2.156
 1652TIP3    H2 4914   5.188   6.632   2.075
 1653TIP3   OH2 4915   6.752   3.816   3.451
 1653TIP3    H1 4916   6.835   3.808   3.498
 1653TIP3    H2 4917   6.714   3.729   3.454
 1654TIP3   OH2 4918   0.807   1.543   4.457
 1654TIP3    H1 4919   0.880   1.597   4.427
 1654TIP3    H2 4920   0.823   1.530   4.550
 1655TIP3   OH2 4921   1.851   7.422   6.300
 1655TIP3    H1 4922   1.781   7.481   6.271
 1655TIP3    H2 4923   1.805   7.346   6.336
 1656TIP3   OH2 4924   3.078   5.796   5.491
 1656TIP3    H1 4925   3.023   5.859   5.539
 1656TIP3    H2 4926   3.019   5.723   5.472
 1657TIP3   OH2 4927   6.546   6.287   4.845
 1657TIP3    H1 4928   6.489   6.318   4.915
 1657TIP3    H2 4929   6.503   6.316   4.764
 1658TIP3   OH2 4930   1.082   6.391   3.825
 1658TIP3    H1 4931   1.027   6.450   3.876
 1658TIP3    H2 4932   1.166   6.437   3.816
 1659TIP3   OH2 4933   6.058   5.783   3.451
 1659TIP3    H1 4934   6.028   5.811   3.538
 1659TIP3    H2 4935   6.052   5.688   3.453
 1660TIP3   OH2 4936   7.294   1.141   5.468
 1660TIP3    H1 4937   7.316   1.226   5.432
 1660TIP3    H2 4938   7.200   1.131   5.452
 1661TIP3   OH2 4939   2.725   5.912   3.270
 1661TIP3    H1 4940   2.740   5.897   3.363
 1661TIP3    H2 4941   2.712   6.007   3.263
 1662TIP3   OH2 4942   2.132   1.578   6.445
 1662TIP3    H1 4943   2.160   1.599   6.534
 1662TIP3    H2 4944   2.063   1.512   6.457
 1663TIP3   OH2 4945   4.973   1.470   1.462
 1663TIP3    H1 4946   5.025   1.551   1.455
 1663TIP3    H2 4947   4.970   1.451   1.555
 1664TIP3   OH2 4948   0.127   1.522   2.549
 1664TIP3    H1 4949   0.195   1.568   2.597
 1664TIP3    H2 4950   0.128   1.433   2.585
 1665TIP3   OH2 4951   0.987   4.524   4.181
 1665TIP3    H1 4952   0.943   4.608   4.169
 1665TIP3    H2 4953   0.974   4.477   4.099
 1666TIP3   OH2 4954   5.931   2.657   6.407
 1666TIP3    H1 4955   5.870   2.632   6.476
 1666TIP3    H2 4956   6.013   2.615   6.431
 1667TIP3   OH2 4957   2.036   0.405   2.335
 1667TIP3    H1 4958   2.023   0.468   2.406
 1667TIP3    H2 4959   2.044   0.458   2.256
 1668TIP3   OH2 4960   7.134   4.835   4.575
 1668TIP3    H1 4961   7.105   4.886   4.651
 1668TIP3    H2 4962   7.215   4.792   4.604
 1669TIP3   OH2 4963   8.069   5.112   5.734
 1669TIP3    H1 4964   8.089   5.174   5.804
 1669TIP3    H2 4965   7.983   5.139   5.702
 1670TIP3   OH2 4966   4.750   2.261   1.848
 1670TIP3    H1 4967   4.824   2.208   1.880
 1670TIP3    H2 4968   4.683   2.253   1.916
 1671TIP3   OH2 4969   0.513   0.368   3.310
 1671TIP3    H1 4970   0.527   0.274   3.300
 1671TIP3    H2 4971   0.450   0.390   3.241
 1672TIP3   OH2 4972   2.068   0.951   0.714
 1672TIP3    H1 4973   1.981   0.917   0.734
 1672TIP3    H2 4974   2.128   0.889   0.755
 1673TIP3   OH2 4975   7.884   1.926   0.117
 1673TIP3    H1 4976   7.884   1.858   0.050
 1673TIP3    H2 4977   7.882   2.008   0.068
 1674TIP3   OH2 4978   7.470   5.431   1.780
 1674TIP3    H1 4979   7.410   5.483   1.726
 1674TIP3    H2 4980   7.515   5.496   1.834
 1675TIP3   OH2 4981   5.662   5.271   3.845
 1675TIP3    H1 4982   5.628   5.235   3.926
 1675TIP3    H2 4983   5.705   5.197   3.801
 1676TIP3   OH2 4984   7.387   0.611   6.093
 1676TIP3    H1 4985   7.466   0.572   6.055
 1676TIP3    H2 4986   7.324   0.613   6.021
 1677TIP3   OH2 4987   4.207   3.337   5.202
 1677TIP3    H1 4988   4.155   3.381   5.135
 1677TIP3    H2 4989   4.148   3.272   5.239
 1678TIP3   OH2 4990   4.105   2.058   5.885
 1678TIP3    H1 4991   4.094   2.145   5.924
 1678TIP3    H2 4992   4.100   2.073   5.791
 1679TIP3   OH2 4993   4.814   7.253   3.885
 1679TIP3    H1 4994   4.846   7.297   3.806
 1679TIP3    H2 4995   4.728   7.292   3.900
 1680TIP3   OH2 4996   2.011   7.355   5.428
 1680TIP3    H1 4997   1.983   7.359   5.519
 1680TIP3    H2 4998   1.991   7.441   5.392
 1681TIP3   OH2 4999   7.117   5.533   5.956
 1681TIP3    H1 5000   7.068   5.612   5.936
 1681TIP3    H2 5001   7.051   5.468   5.977
 1682TIP3   OH2 5002   5.457   0.175   6.562
 1682TIP3    H1 5003   5.369   0.211   6.577
 1682TIP3    H2 5004   5.441   0.093   6.514
 1683TIP3   OH2 5005   1.787   6.511   5.545
 1683TIP3    H1 5006   1.849   6.538   5.477
 1683TIP3    H2 5007   1.710   6.481   5.497
 1684TIP3   OH2 5008   4.957   3.888   0.512
 1684TIP3    H1 5009   4.873   3.873   0.555
 1684TIP3    H2 5010   4.943   3.859   0.422
 1685TIP3   OH2 5011   2.911   4.654   2.062
 1685TIP3    H1 5012   2.834   4.599   2.049
 1685TIP3    H2 5013   2.930   4.648   2.155
 1686TIP3   OH2 5014   8.100   6.919   0.098
 1686TIP3    H1 5015   8.185   6.907   0.055
 1686TIP3    H2 5016   8.084   7.013   0.095
 1687TIP3   OH2 5017   7.691   5.049   4.354
 1687TIP3    H1 5018   7.617   5.094   4.394
 1687TIP3    H2 5019   7.697   4.966   4.402
 1688TIP3   OH2 5020   5.560   3.744   6.258
 1688TIP3    H1 5021   5.488   3.777   6.312
 1688TIP3    H2 5022   5.564   3.805   6.184
 1689TIP3   OH2 5023   0.861   1.205   5.409
 1689TIP3    H1 5024   0.789   1.168   5.358
 1689TIP3    H2 5025   0.868   1.147   5.486
 1690TIP3   OH2 5026   2.444   4.261   1.496
 1690TIP3    H1 5027   2.496   4.194   1.539
 1690TIP3    H2 5028   2.408   4.218   1.419
 1691TIP3   OH2 5029   5.593   7.614   0.164
 1691TIP3    H1 5030   5.646   7.652   0.234
 1691TIP3    H2 5031   5.547   7.541   0.205
 1692TIP3   OH2 5032   1.368   5.122   3.974
 1692TIP3    H1 5033   1.439   5.164   3.926
 1692TIP3    H2 5034   1.360   5.035   3.935
 1693TIP3   OH2 5035   7.966   4.455   5.311
 1693TIP3    H1 5036   7.895   4.487   5.366
 1693TIP3    H2 5037   8.017   4.533   5.289
 1694TIP3   OH2 5038   1.352   5.517   1.772
 1694TIP3    H1 5039   1.271   5.467   1.778
 1694TIP3    H2 5040   1.417   5.463   1.818
 1695TIP3   OH2 5041   7.757   5.221   2.508
 1695TIP3    H1 5042   7.680   5.167   2.489
 1695TIP3    H2 5043   7.768   5.275   2.430
 1696TIP3   OH2 5044   4.381   7.481   0.184
 1696TIP3    H1 5045   4.324   7.465   0.109
 1696TIP3    H2 5046   4.358   7.569   0.214
 1697TIP3   OH2 5047   3.461   7.428   3.479
 1697TIP3    H1 5048   3.458   7.393   3.389
 1697TIP3    H2 5049   3.402   7.503   3.478
 1698TIP3   OH2 5050   5.106   0.785   3.066
 1698TIP3    H1 5051   5.196   0.807   3.043
 1698TIP3    H2 5052   5.065   0.870   3.087
 1699TIP3   OH2 5053   7.784   1.773   6.735
 1699TIP3    H1 5054   7.814   1.858   6.702
 1699TIP3    H2 5055   7.802   1.712   6.663
 1700TIP3   OH2 5056   5.571   4.429   3.534
 1700TIP3    H1 5057   5.581   4.336   3.555
 1700TIP3    H2 5058   5.485   4.452   3.570
 1701TIP3   OH2 5059   7.350   3.690   1.597
 1701TIP3    H1 5060   7.260   3.673   1.568
 1701TIP3    H2 5061   7.372   3.615   1.653
 1702TIP3   OH2 5062   2.007   0.588   0.719
 1702TIP3    H1 5063   1.962   0.548   0.793
 1702TIP3    H2 5064   2.090   0.619   0.755
 1703TIP3   OH2 5065   4.411   3.949   1.006
 1703TIP3    H1 5066   4.482   3.899   1.047
 1703TIP3    H2 5067   4.349   3.966   1.076
 1704TIP3   OH2 5068   2.428   2.928   2.583
 1704TIP3    H1 5069   2.367   2.987   2.539
 1704TIP3    H2 5070   2.379   2.846   2.592
 1705TIP3   OH2 5071   7.158   4.698   4.893
 1705TIP3    H1 5072   7.084   4.643   4.867
 1705TIP3    H2 5073   7.227   4.635   4.915
 1706TIP3   OH2 5074   0.739   5.362   2.824
 1706TIP3    H1 5075   0.669   5.394   2.766
 1706TIP3    H2 5076   0.761   5.276   2.790
 1707TIP3   OH2 5077   7.909   6.386   5.008
 1707TIP3    H1 5078   7.873   6.306   5.045
 1707TIP3    H2 5079   8.002   6.367   4.996
 1708TIP3   OH2 5080   3.219   3.808   0.855
 1708TIP3    H1 5081   3.132   3.848   0.861
 1708TIP3    H2 5082   3.241   3.784   0.946
 1709TIP3   OH2 5083   7.831   0.472   0.909
 1709TIP3    H1 5084   7.898   0.405   0.919
 1709TIP3    H2 5085   7.749   0.423   0.904
 1710TIP3   OH2 5086   6.815   4.537   2.283
 1710TIP3    H1 5087   6.847   4.514   2.370
 1710TIP3    H2 5088   6.745   4.475   2.266
 1711TIP3   OH2 5089   1.650   4.872   0.122
 1711TIP3    H1 5090   1.656   4.836   0.211
 1711TIP3    H2 5091   1.564   4.915   0.120
 1712TIP3   OH2 5092   7.148   4.844   3.303
 1712TIP3    H1 5093   7.156   4.789   3.381
 1712TIP3    H2 5094   7.208   4.916   3.318
 1713TIP3   OH2 5095   3.941   2.493   0.305
 1713TIP3    H1 5096   3.873   2.555   0.279
 1713TIP3    H2 5097   3.893   2.422   0.348
 1714TIP3   OH2 5098   4.735   1.579   3.667
 1714TIP3    H1 5099   4.749   1.660   3.618
 1714TIP3    H2 5100   4.696   1.608   3.750
 1715TIP3   OH2 5101   0.624   3.764   4.373
 1715TIP3    H1 5102   0.568   3.792   4.301
 1715TIP3    H2 5103   0.654   3.677   4.347
 1716TIP3   OH2 5104   4.991   4.462   3.980
 1716TIP3    H1 5105   5.044   4.537   3.953
 1716TIP3    H2 5106   5.037   4.426   4.056
 1717TIP3   OH2 5107   5.005   5.714   6.476
 1717TIP3    H1 5108   4.991   5.679   6.388
 1717TIP3    H2 5109   5.045   5.641   6.525
 1718TIP3   OH2 5110   4.975   6.547   2.383
 1718TIP3    H1 5111   5.034   6.618   2.411
 1718TIP3    H2 5112   4.957   6.565   2.291
 1719TIP3   OH2 5113   2.421   4.976   3.819
 1719TIP3    H1 5114   2.371   5.002   3.742
 1719TIP3    H2 5115   2.510   4.963   3.786
 1720TIP3   OH2 5116   8.187   5.925   0.519
 1720TIP3    H1 5117   8.241   5.952   0.593
 1720TIP3    H2 5118   8.248   5.924   0.445
 1721TIP3   OH2 5119   6.530   5.719   5.372
 1721TIP3    H1 5120   6.614   5.691   5.408
 1721TIP3    H2 5121   6.520   5.810   5.401
 1722TIP3   OH2 5122   7.523   6.359   5.423
 1722TIP3    H1 5123   7.435   6.394   5.437
 1722TIP3    H2 5124   7.567   6.425   5.370
 1723TIP3   OH2 5125   3.707   4.079   1.874
 1723TIP3    H1 5126   3.766   4.109   1.943
 1723TIP3    H2 5127   3.635   4.037   1.921
 1724TIP3   OH2 5128   2.888   7.597   3.938
 1724TIP3    H1 5129   2.949   7.643   3.995
 1724TIP3    H2 5130   2.941   7.569   3.863
 1725TIP3   OH2 5131   2.786   2.166   4.451
 1725TIP3    H1 5132   2.840   2.210   4.385
 1725TIP3    H2 5133   2.749   2.090   4.405
 1726TIP3   OH2 5134   5.453   6.871   0.345
 1726TIP3    H1 5135   5.504   6.847   0.422
 1726TIP3    H2 5136   5.405   6.791   0.322
 1727TIP3   OH2 5137   0.412   2.708   0.736
 1727TIP3    H1 5138   0.400   2.737   0.645
 1727TIP3    H2 5139   0.340   2.751   0.783
 1728TIP3   OH2 5140   6.635   5.333   4.910
 1728TIP3    H1 5141   6.706   5.395   4.892
 1728TIP3    H2 5142   6.556   5.386   4.910
 1729TIP3   OH2 5143   2.999   6.522   5.142
 1729TIP3    H1 5144   2.935   6.592   5.126
 1729TIP3    H2 5145   3.082   6.559   5.111
 1730TIP3   OH2 5146   4.386   3.160   0.998
 1730TIP3    H1 5147   4.367   3.090   1.060
 1730TIP3    H2 5148   4.303   3.178   0.955
 1731TIP3   OH2 5149   0.311   3.005   0.639
 1731TIP3    H1 5150   0.279   2.988   0.727
 1731TIP3    H2 5151   0.402   3.032   0.650
 1732TIP3   OH2 5152   6.107   1.237   3.191
 1732TIP3    H1 5153   6.028   1.194   3.225
 1732TIP3    H2 5154   6.122   1.310   3.251
 1733TIP3   OH2 5155   0.724   1.645   0.769
 1733TIP3    H1 5156   0.644   1.671   0.724
 1733TIP3    H2 5157   0.750   1.723   0.819
 1734TIP3   OH2 5158   6.071   7.463   3.997
 1734TIP3    H1 5159   6.048   7.526   4.065
 1734TIP3    H2 5160   5.988   7.440   3.955
 1735TIP3   OH2 5161   0.090   6.229   4.683
 1735TIP3    H1 5162   0.144   6.159   4.647
 1735TIP3    H2 5163   0.094   6.215   4.778
 1736TIP3   OH2 5164   2.117   2.307   1.541
 1736TIP3    H1 5165   2.163   2.224   1.554
 1736TIP3    H2 5166   2.172   2.357   1.481
 1737TIP3   OH2 5167   0.162   3.400   6.704
 1737TIP3    H1 5168   0.135   3.341   6.774
 1737TIP3    H2 5169   0.254   3.417   6.722
 1738TIP3   OH2 5170   6.552   7.544   5.046
 1738TIP3    H1 5171   6.546   7.493   4.966
 1738TIP3    H2 5172   6.479   7.606   5.041
 1739TIP3   OH2 5173   7.767   5.649   3.500
 1739TIP3    H1 5174   7.758   5.557   3.477
 1739TIP3    H2 5175   7.680   5.674   3.532
 1740TIP3   OH2 5176   5.518   0.626   1.241
 1740TIP3    H1 5177   5.612   0.606   1.250
 1740TIP3    H2 5178   5.508   0.649   1.149
 1741TIP3   OH2 5179   4.754   1.310   4.228
 1741TIP3    H1 5180   4.677   1.257   4.208
 1741TIP3    H2 5181   4.820   1.247   4.257
 1742TIP3   OH2 5182   5.514   7.738   4.707
 1742TIP3    H1 5183   5.604   7.703   4.707
 1742TIP3    H2 5184   5.466   7.679   4.765
 1743TIP3   OH2 5185   0.625   2.860   3.872
 1743TIP3    H1 5186   0.649   2.773   3.840
 1743TIP3    H2 5187   0.562   2.892   3.807
 1744TIP3   OH2 5188   6.781   6.583   0.556
 1744TIP3    H1 5189   6.753   6.540   0.475
 1744TIP3    H2 5190   6.873   6.605   0.541
 1745TIP3   OH2 5191   1.061   0.693   5.638
 1745TIP3    H1 5192   1.157   0.692   5.647
 1745TIP3    H2 5193   1.030   0.636   5.708
 1746TIP3   OH2 5194   4.537   5.990   1.315
 1746TIP3    H1 5195   4.517   6.078   1.348
 1746TIP3    H2 5196   4.454   5.959   1.278
 1747TIP3   OH2 5197   1.069   6.253   0.099
 1747TIP3    H1 5198   1.159   6.222   0.110
 1747TIP3    H2 5199   1.024   6.225   0.179
 1748TIP3   OH2 5200   1.861   2.408   4.714
 1748TIP3    H1 5201   1.890   2.457   4.791
 1748TIP3    H2 5202   1.915   2.441   4.642
 1749TIP3   OH2 5203   7.565   2.408   6.429
 1749TIP3    H1 5204   7.562   2.503   6.432
 1749TIP3    H2 5205   7.512   2.385   6.352
 1750TIP3   OH2 5206   4.800   0.909   5.916
 1750TIP3    H1 5207   4.713   0.932   5.949
 1750TIP3    H2 5208   4.831   0.842   5.977
 1751TIP3   OH2 5209   2.621   3.844   4.861
 1751TIP3    H1 5210   2.596   3.934   4.884
 1751TIP3    H2 5211   2.715   3.841   4.880
 1752TIP3   OH2 5212   5.883   7.312   2.495
 1752TIP3    H1 5213   5.818   7.299   2.564
 1752TIP3    H2 5214   5.872   7.236   2.438
 1753TIP3   OH2 5215   5.706   7.195   6.408
 1753TIP3    H1 5216   5.684   7.178   6.500
 1753TIP3    H2 5217   5.797   7.164   6.399
 1754TIP3   OH2 5218   2.841   4.507   6.239
 1754TIP3    H1 5219   2.892   4.588   6.238
 1754TIP3    H2 5220   2.841   4.477   6.149
 1755TIP3   OH2 5221   6.824   2.923   5.015
 1755TIP3    H1 5222   6.857   2.849   5.066
 1755TIP3    H2 5223   6.894   2.988   5.018
 1756TIP3   OH2 5224   5.860   3.194   2.710
 1756TIP3    H1 5225   5.933   3.136   2.728
 1756TIP3    H2 5226   5.794   3.171   2.776
 1757TIP3   OH2 5227   5.612   7.796   2.391
 1757TIP3    H1 5228   5.583   7.817   2.480
 1757TIP3    H2 5229   5.636   7.704   2.395
 1758TIP3   OH2 5230   0.674   2.455   2.634
 1758TIP3    H1 5231   0.628   2.371   2.629
 1758TIP3    H2 5232   0.604   2.521   2.627
 1759TIP3   OH2 5233   8.344   3.756   3.796
 1759TIP3    H1 5234   8.251   3.744   3.817
 1759TIP3    H2 5235   8.389   3.691   3.850
 1760TIP3   OH2 5236   4.905   5.777   0.401
 1760TIP3    H1 5237   4.956   5.703   0.367
 1760TIP3    H2 5238   4.890   5.832   0.324
 1761TIP3   OH2 5239   6.617   2.081   6.299
 1761TIP3    H1 5240   6.546   2.096   6.361
 1761TIP3    H2 5241   6.697   2.094   6.350
 1762TIP3   OH2 5242   5.999   6.638   6.277
 1762TIP3    H1 5243   5.929   6.689   6.318
 1762TIP3    H2 5244   6.077   6.694   6.286
 1763TIP3   OH2 5245   5.766   5.515   2.409
 1763TIP3    H1 5246   5.792   5.459   2.482
 1763TIP3    H2 5247   5.677   5.542   2.430
 1764TIP3   OH2 5248   0.516   2.695   5.251
 1764TIP3    H1 5249   0.496   2.663   5.163
 1764TIP3    H2 5250   0.436   2.739   5.279
 1765TIP3   OH2 5251   6.956   2.384   3.728
 1765TIP3    H1 5252   6.960   2.468   3.774
 1765TIP3    H2 5253   7.045   2.371   3.695
 1766TIP3   OH2 5254   4.793   2.875   1.094
 1766TIP3    H1 5255   4.750   2.925   1.025
 1766TIP3    H2 5256   4.867   2.929   1.121
 1767TIP3   OH2 5257   6.979   1.932   2.865
 1767TIP3    H1 5258   7.043   1.930   2.937
 1767TIP3    H2 5259   6.896   1.953   2.908
 1768TIP3   OH2 5260   2.492   2.622   2.088
 1768TIP3    H1 5261   2.424   2.677   2.125
 1768TIP3    H2 5262   2.486   2.540   2.136
 1769TIP3   OH2 5263   1.135   5.304   6.572
 1769TIP3    H1 5264   1.190   5.281   6.498
 1769TIP3    H2 5265   1.183   5.373   6.618
 1770TIP3   OH2 5266   0.287   1.644   1.272
 1770TIP3    H1 5267   0.247   1.613   1.353
 1770TIP3    H2 5268   0.271   1.739   1.273
 1771TIP3   OH2 5269   4.917   0.461   3.569
 1771TIP3    H1 5270   4.961   0.523   3.627
 1771TIP3    H2 5271   4.857   0.413   3.627
 1772TIP3   OH2 5272   4.731   1.924   1.858
 1772TIP3    H1 5273   4.685   2.005   1.838
 1772TIP3    H2 5274   4.666   1.869   1.902
 1773TIP3   OH2 5275   2.566   6.619   5.541
 1773TIP3    H1 5276   2.536   6.533   5.512
 1773TIP3    H2 5277   2.557   6.616   5.636
 1774TIP3   OH2 5278   1.884   0.584   4.843
 1774TIP3    H1 5279   1.882   0.670   4.803
 1774TIP3    H2 5280   1.949   0.535   4.792
 1775TIP3   OH2 5281   5.275   3.079   1.334
 1775TIP3    H1 5282   5.331   3.013   1.374
 1775TIP3    H2 5283   5.287   3.157   1.389
 1776TIP3   OH2 5284   3.763   1.678   0.877
 1776TIP3    H1 5285   3.823   1.605   0.861
 1776TIP3    H2 5286   3.727   1.699   0.791
 1777TIP3   OH2 5287   1.017   3.109   5.541
 1777TIP3    H1 5288   0.966   3.115   5.460
 1777TIP3    H2 5289   1.006   3.018   5.569
 1778TIP3   OH2 5290   4.681   4.674   2.674
 1778TIP3    H1 5291   4.676   4.679   2.769
 1778TIP3    H2 5292   4.768   4.636   2.657
 1779TIP3   OH2 5293   3.239   7.331   4.239
 1779TIP3    H1 5294   3.264   7.298   4.152
 1779TIP3    H2 5295   3.281   7.416   4.246
 1780TIP3   OH2 5296   8.025   6.930   2.588
 1780TIP3    H1 5297   7.954   6.870   2.567
 1780TIP3    H2 5298   8.095   6.908   2.526
 1781TIP3   OH2 5299   6.634   7.609   3.595
 1781TIP3    H1 5300   6.622   7.691   3.547
 1781TIP3    H2 5301   6.718   7.618   3.639
 1782TIP3   OH2 5302   3.614   4.828   2.350
 1782TIP3    H1 5303   3.693   4.857   2.395
 1782TIP3    H2 5304   3.562   4.786   2.418
 1783TIP3   OH2 5305   3.681   7.512   2.182
 1783TIP3    H1 5306   3.627   7.591   2.188
 1783TIP3    H2 5307   3.717   7.501   2.270
 1784TIP3   OH2 5308   4.189   6.805   1.882
 1784TIP3    H1 5309   4.261   6.743   1.882
 1784TIP3    H2 5310   4.179   6.831   1.974
 1785TIP3   OH2 5311   2.990  -0.002   1.184
 1785TIP3    H1 5312   2.915   0.049   1.155
 1785TIP3    H2 5313   3.064   0.036   1.139
 1786TIP3   OH2 5314   4.661   4.877   3.382
 1786TIP3    H1 5315   4.576   4.902   3.419
 1786TIP3    H2 5316   4.687   4.952   3.328
 1787TIP3   OH2 5317   1.821   2.110   3.895
 1787TIP3    H1 5318   1.867   2.026   3.892
 1787TIP3    H2 5319   1.751   2.101   3.830
 1788TIP3   OH2 5320   0.518   0.826   0.028
 1788TIP3    H1 5321   0.428   0.848   0.004
 1788TIP3    H2 5322   0.529   0.858   0.117
 1789TIP3   OH2 5323   0.648   6.768   0.350
 1789TIP3    H1 5324   0.738   6.790   0.329
 1789TIP3    H2 5325   0.601   6.852   0.345
 1790TIP3   OH2 5326   8.267   5.191   0.220
 1790TIP3    H1 5327   8.197   5.256   0.214
 1790TIP3    H2 5328   8.223   5.108   0.235
 1791TIP3   OH2 5329   6.362   7.017   6.595
 1791TIP3    H1 5330   6.355   7.064   6.513
 1791TIP3    H2 5331   6.453   6.990   6.601
 1792TIP3   OH2 5332   2.649   0.219   3.814
 1792TIP3    H1 5333   2.621   0.217   3.905
 1792TIP3    H2 5334   2.646   0.312   3.790
 1793TIP3   OH2 5335   2.553   2.155   0.603
 1793TIP3    H1 5336   2.488   2.203   0.551
 1793TIP3    H2 5337   2.534   2.063   0.584
 1794TIP3   OH2 5338   6.968   6.866   4.536
 1794TIP3    H1 5339   7.040   6.872   4.598
 1794TIP3    H2 5340   6.998   6.803   4.470
 1795TIP3   OH2 5341   2.756   1.154   6.328
 1795TIP3    H1 5342   2.747   1.091   6.256
 1795TIP3    H2 5343   2.703   1.229   6.300
 1796TIP3   OH2 5344   6.117   4.028   0.984
 1796TIP3    H1 5345   6.209   4.003   0.987
 1796TIP3    H2 5346   6.094   4.048   1.075
 1797TIP3   OH2 5347   0.832   0.119   4.027
 1797TIP3    H1 5348   0.772   0.057   3.986
 1797TIP3    H2 5349   0.845   0.085   4.116
 1798TIP3   OH2 5350   6.158   1.019   4.224
 1798TIP3    H1 5351   6.063   1.028   4.225
 1798TIP3    H2 5352   6.187   1.068   4.301
 1799TIP3   OH2 5353   7.343   3.418   2.958
 1799TIP3    H1 5354   7.304   3.501   2.984
 1799TIP3    H2 5355   7.406   3.441   2.889
 1800TIP3   OH2 5356   4.353   2.052   1.267
 1800TIP3    H1 5357   4.311   2.051   1.353
 1800TIP3    H2 5358   4.353   2.144   1.241
 1801TIP3   OH2 5359   2.646   5.901   4.550
 1801TIP3    H1 5360   2.740   5.921   4.545
 1801TIP3    H2 5361   2.642   5.807   4.569
 1802TIP3   OH2 5362   3.759   1.801   3.402
 1802TIP3    H1 5363   3.845   1.762   3.417
 1802TIP3    H2 5364   3.779   1.890   3.370
 1803TIP3   OH2 5365   0.552   1.492   3.046
 1803TIP3    H1 5366   0.604   1.571   3.032
 1803TIP3    H2 5367   0.531   1.461   2.957
 1804TIP3   OH2 5368   0.836   7.011   1.769
 1804TIP3    H1 5369   0.761   7.029   1.826
 1804TIP3    H2 5370   0.814   7.052   1.686
 1805TIP3   OH2 5371   1.181   7.358   0.201
 1805TIP3    H1 5372   1.111   7.309   0.244
 1805TIP3    H2 5373   1.161   7.450   0.220
 1806TIP3   OH2 5374   1.042   0.992   2.662
 1806TIP3    H1 5375   0.978   0.974   2.731
 1806TIP3    H2 5376   0.991   1.031   2.591
 1807TIP3   OH2 5377   5.968   1.086   6.409
 1807TIP3    H1 5378   5.979   1.158   6.472
 1807TIP3    H2 5379   5.989   1.007   6.460
 1808TIP3   OH2 5380   3.498   6.331   2.622
 1808TIP3    H1 5381   3.560   6.267   2.585
 1808TIP3    H2 5382   3.552   6.384   2.681
 1809TIP3   OH2 5383   4.453   1.363   4.728
 1809TIP3    H1 5384   4.522   1.366   4.662
 1809TIP3    H2 5385   4.435   1.269   4.738
 1810TIP3   OH2 5386   3.889   7.030   5.237
 1810TIP3    H1 5387   3.795   7.028   5.221
 1810TIP3    H2 5388   3.911   7.123   5.243
 1811TIP3   OH2 5389   0.337   4.279   2.963
 1811TIP3    H1 5390   0.378   4.364   2.945
 1811TIP3    H2 5391   0.332   4.274   3.058
 1812TIP3   OH2 5392   6.639   4.784   1.016
 1812TIP3    H1 5393   6.654   4.782   1.110
 1812TIP3    H2 5394   6.576   4.855   1.003
 1813TIP3   OH2 5395   4.583   6.933   1.680
 1813TIP3    H1 5396   4.518   6.993   1.717
 1813TIP3    H2 5397   4.601   6.871   1.751
 1814TIP3   OH2 5398   0.187   3.392   3.963
 1814TIP3    H1 5399   0.206   3.306   3.925
 1814TIP3    H2 5400   0.244   3.452   3.915
 1815TIP3   OH2 5401   0.364   0.572   6.060
 1815TIP3    H1 5402   0.418   0.579   6.139
 1815TIP3    H2 5403   0.427   0.559   5.989
 1816TIP3   OH2 5404   3.831   2.947   1.997
 1816TIP3    H1 5405   3.907   2.935   1.940
 1816TIP3    H2 5406   3.756   2.955   1.938
 1817TIP3   OH2 5407   5.158   7.559   2.159
 1817TIP3    H1 5408   5.081   7.569   2.103
 1817TIP3    H2 5409   5.184   7.649   2.181
 1818TIP3   OH2 5410   7.132   1.059   2.319
 1818TIP3    H1 5411   7.058   1.120   2.310
 1818TIP3    H2 5412   7.093   0.980   2.357
 1819TIP3   OH2 5413   7.197   7.135   1.891
 1819TIP3    H1 5414   7.139   7.211   1.890
 1819TIP3    H2 5415   7.187   7.097   1.979
 1820TIP3   OH2 5416   5.169   0.974   4.838
 1820TIP3    H1 5417   5.212   1.036   4.897
 1820TIP3    H2 5418   5.116   0.919   4.897
 1821TIP3   OH2 5419   5.530   3.425   5.656
 1821TIP3    H1 5420   5.441   3.458   5.644
 1821TIP3    H2 5421   5.518   3.334   5.682
 1822TIP3   OH2 5422   0.957   2.460   3.347
 1822TIP3    H1 5423   0.959   2.507   3.431
 1822TIP3    H2 5424   1.041   2.480   3.307
 1823TIP3   OH2 5425   0.887   7.181   4.253
 1823TIP3    H1 5426   0.824   7.252   4.262
 1823TIP3    H2 5427   0.838   7.102   4.277
 1824TIP3   OH2 5428   2.900   3.106   6.604
 1824TIP3    H1 5429   2.883   3.161   6.528
 1824TIP3    H2 5430   2.983   3.062   6.583
 1825TIP3   OH2 5431   0.773   1.858   0.954
 1825TIP3    H1 5432   0.681   1.864   0.979
 1825TIP3    H2 5433   0.817   1.923   1.008
 1826TIP3   OH2 5434   8.015   2.746   1.885
 1826TIP3    H1 5435   7.964   2.678   1.841
 1826TIP3    H2 5436   8.105   2.715   1.880
 1827TIP3   OH2 5437   6.092   0.003   6.211
 1827TIP3    H1 5438   6.061  -0.082   6.242
 1827TIP3    H2 5439   6.182  -0.012   6.184
 1828TIP3   OH2 5440   7.339   7.065   5.141
 1828TIP3    H1 5441   7.325   6.971   5.131
 1828TIP3    H2 5442   7.401   7.073   5.213
 1829TIP3   OH2 5443   2.595   5.105   1.884
 1829TIP3    H1 5444   2.501   5.114   1.866
 1829TIP3    H2 5445   2.621   5.027   1.834
 1830TIP3   OH2 5446   7.501   5.626   1.149
 1830TIP3    H1 5447   7.514   5.534   1.170
 1830TIP3    H2 5448   7.589   5.659   1.130
 1831TIP3   OH2 5449   1.045   5.237   4.809
 1831TIP3    H1 5450   1.088   5.272   4.887
 1831TIP3    H2 5451   1.082   5.149   4.799
 1832TIP3   OH2 5452   1.245   0.314   5.731
 1832TIP3    H1 5453   1.259   0.408   5.741
 1832TIP3    H2 5454   1.249   0.299   5.637
 1833TIP3   OH2 5455   2.008   5.808   2.765
 1833TIP3    H1 5456   1.943   5.790   2.697
 1833TIP3    H2 5457   2.059   5.728   2.771
 1834TIP3   OH2 5458   7.010   4.370   0.174
 1834TIP3    H1 5459   7.018   4.334   0.262
 1834TIP3    H2 5460   6.994   4.463   0.188
 1835TIP3   OH2 5461   1.415   1.612   3.941
 1835TIP3    H1 5462   1.473   1.593   3.867
 1835TIP3    H2 5463   1.453   1.690   3.982
 1836TIP3   OH2 5464   2.205   1.480   5.590
 1836TIP3    H1 5465   2.261   1.533   5.647
 1836TIP3    H2 5466   2.127   1.463   5.642
 1837TIP3   OH2 5467   6.207   5.366   2.972
 1837TIP3    H1 5468   6.149   5.306   2.924
 1837TIP3    H2 5469   6.289   5.317   2.981
 1838TIP3   OH2 5470   7.345   1.121   3.963
 1838TIP3    H1 5471   7.339   1.162   3.876
 1838TIP3    H2 5472   7.428   1.074   3.962
 1839TIP3   OH2 5473   6.723   5.710   2.823
 1839TIP3    H1 5474   6.777   5.646   2.777
 1839TIP3    H2 5475   6.722   5.787   2.766
 1840TIP3   OH2 5476   2.310   1.217   5.120
 1840TIP3    H1 5477   2.348   1.196   5.206
 1840TIP3    H2 5478   2.218   1.234   5.139
 1841TIP3   OH2 5479   2.829   0.695   0.923
 1841TIP3    H1 5480   2.799   0.607   0.902
 1841TIP3    H2 5481   2.784   0.752   0.861
 1842TIP3   OH2 5482   3.436   6.908   6.295
 1842TIP3    H1 5483   3.493   6.868   6.361
 1842TIP3    H2 5484   3.445   6.852   6.218
 1843TIP3   OH2 5485   5.290   6.129   1.194
 1843TIP3    H1 5486   5.200   6.160   1.184
 1843TIP3    H2 5487   5.299   6.111   1.288
 1844TIP3   OH2 5488   0.417   2.825   5.612
 1844TIP3    H1 5489   0.468   2.880   5.552
 1844TIP3    H2 5490   0.326   2.845   5.591
 1845TIP3   OH2 5491   5.958   4.186   5.625
 1845TIP3    H1 5492   6.024   4.154   5.686
 1845TIP3    H2 5493   5.986   4.154   5.540
 1846TIP3   OH2 5494   4.492   4.133   6.296
 1846TIP3    H1 5495   4.492   4.159   6.388
 1846TIP3    H2 5496   4.411   4.171   6.260
 1847TIP3   OH2 5497   8.042   4.977   6.169
 1847TIP3    H1 5498   8.126   5.009   6.203
 1847TIP3    H2 5499   8.023   4.899   6.221
 1848TIP3   OH2 5500   6.897   3.012   4.284
 1848TIP3    H1 5501   6.843   3.017   4.205
 1848TIP3    H2 5502   6.935   3.099   4.294
 1849TIP3   OH2 5503   0.419   3.176   2.844
 1849TIP3    H1 5504   0.503   3.170   2.799
 1849TIP3    H2 5505   0.387   3.264   2.825
 1850TIP3   OH2 5506   4.636   7.491   2.814
 1850TIP3    H1 5507   4.698   7.562   2.828
 1850TIP3    H2 5508   4.584   7.487   2.894
 1851TIP3   OH2 5509   7.100   4.420   5.030
 1851TIP3    H1 5510   7.030   4.391   4.972
 1851TIP3    H2 5511   7.157   4.343   5.039
 1852TIP3   OH2 5512   3.964   0.704   4.702
 1852TIP3    H1 5513   3.870   0.720   4.713
 1852TIP3    H2 5514   3.972   0.609   4.699
 1853TIP3   OH2 5515   5.943   5.504   3.438
 1853TIP3    H1 5516   5.897   5.424   3.464
 1853TIP3    H2 5517   5.876   5.557   3.395
 1854TIP3   OH2 5518   3.216   2.333   1.161
 1854TIP3    H1 5519   3.264   2.416   1.172
 1854TIP3    H2 5520   3.245   2.300   1.076
 1855TIP3   OH2 5521   4.377   0.052   3.226
 1855TIP3    H1 5522   4.314  -0.009   3.187
 1855TIP3    H2 5523   4.451  -0.002   3.251
 1856TIP3   OH2 5524   6.120   0.030   3.701
 1856TIP3    H1 5525   6.081   0.118   3.700
 1856TIP3    H2 5526   6.144   0.016   3.793
 1857TIP3   OH2 5527   1.242   2.291   5.800
 1857TIP3    H1 5528   1.213   2.347   5.728
 1857TIP3    H2 5529   1.287   2.352   5.860
 1858TIP3   OH2 5530   0.755   3.616   5.101
 1858TIP3    H1 5531   0.702   3.621   5.181
 1858TIP3    H2 5532   0.789   3.705   5.089
 1859TIP3   OH2 5533   7.491   0.841   3.280
 1859TIP3    H1 5534   7.421   0.776   3.279
 1859TIP3    H2 5535   7.469   0.901   3.208
 1860TIP3   OH2 5536   7.258   4.198   3.566
 1860TIP3    H1 5537   7.164   4.197   3.550
 1860TIP3    H2 5538   7.283   4.290   3.561
 1861TIP3   OH2 5539   0.932   3.719   6.545
 1861TIP3    H1 5540   0.975   3.686   6.466
 1861TIP3    H2 5541   0.934   3.814   6.537
 1862TIP3   OH2 5542   2.553   7.849   2.351
 1862TIP3    H1 5543   2.635   7.894   2.329
 1862TIP3    H2 5544   2.579   7.758   2.365
 1863TIP3   OH2 5545   4.386   4.683   3.390
 1863TIP3    H1 5546   4.471   4.722   3.366
 1863TIP3    H2 5547   4.393   4.592   3.362
 1864TIP3   OH2 5548   2.985   2.851   1.487
 1864TIP3    H1 5549   2.922   2.891   1.428
 1864TIP3    H2 5550   3.070   2.880   1.455
 1865TIP3   OH2 5551   0.768   4.594   3.909
 1865TIP3    H1 5552   0.677   4.621   3.920
 1865TIP3    H2 5553   0.812   4.625   3.988
 1866TIP3   OH2 5554   5.975   4.853   1.446
 1866TIP3    H1 5555   5.964   4.867   1.540
 1866TIP3    H2 5556   5.887   4.839   1.413
 1867TIP3   OH2 5557   5.848   2.626   4.264
 1867TIP3    H1 5558   5.828   2.540   4.226
 1867TIP3    H2 5559   5.899   2.606   4.343
 1868TIP3   OH2 5560   4.675   6.870   3.116
 1868TIP3    H1 5561   4.727   6.798   3.153
 1868TIP3    H2 5562   4.701   6.946   3.169
 1869TIP3   OH2 5563   0.642   2.352   1.427
 1869TIP3    H1 5564   0.642   2.265   1.467
 1869TIP3    H2 5565   0.662   2.336   1.334
 1870TIP3   OH2 5566   6.331   2.199   4.228
 1870TIP3    H1 5567   6.368   2.266   4.285
 1870TIP3    H2 5568   6.304   2.129   4.287
 1871TIP3   OH2 5569   4.519   6.530   2.510
 1871TIP3    H1 5570   4.608   6.516   2.478
 1871TIP3    H2 5571   4.516   6.622   2.534
 1872TIP3   OH2 5572   6.597   5.845   2.466
 1872TIP3    H1 5573   6.543   5.768   2.450
 1872TIP3    H2 5574   6.594   5.894   2.384
 1873TIP3   OH2 5575   6.546   4.760   1.958
 1873TIP3    H1 5576   6.460   4.760   1.999
 1873TIP3    H2 5577   6.529   4.745   1.865
 1874TIP3   OH2 5578   3.454   6.312   0.440
 1874TIP3    H1 5579   3.390   6.258   0.394
 1874TIP3    H2 5580   3.465   6.269   0.525
 1875TIP3   OH2 5581   3.871   3.728   4.308
 1875TIP3    H1 5582   3.853   3.645   4.353
 1875TIP3    H2 5583   3.965   3.742   4.322
 1876TIP3   OH2 5584   3.199   3.603   5.712
 1876TIP3    H1 5585   3.226   3.676   5.656
 1876TIP3    H2 5586   3.114   3.631   5.748
 1877TIP3   OH2 5587   5.145   4.615   2.812
 1877TIP3    H1 5588   5.098   4.657   2.883
 1877TIP3    H2 5589   5.183   4.536   2.851
 1878TIP3   OH2 5590   6.746   0.470   1.827
 1878TIP3    H1 5591   6.718   0.392   1.780
 1878TIP3    H2 5592   6.704   0.463   1.913
 1879TIP3   OH2 5593   0.798   0.389   0.009
 1879TIP3    H1 5594   0.717   0.432   0.037
 1879TIP3    H2 5595   0.866   0.426   0.066
 1880TIP3   OH2 5596   6.611   1.335   4.458
 1880TIP3    H1 5597   6.579   1.392   4.388
 1880TIP3    H2 5598   6.591   1.246   4.428
 1881TIP3   OH2 5599   5.180   2.365   1.665
 1881TIP3    H1 5600   5.130   2.434   1.708
 1881TIP3    H2 5601   5.175   2.387   1.572
 1882TIP3   OH2 5602   8.250   4.451   3.558
 1882TIP3    H1 5603   8.319   4.461   3.493
 1882TIP3    H2 5604   8.169   4.464   3.509
 1883TIP3   OH2 5605   4.728   3.903   3.117
 1883TIP3    H1 5606   4.798   3.840   3.101
 1883TIP3    H2 5607   4.670   3.859   3.179
 1884TIP3   OH2 5608   4.596   1.220   1.080
 1884TIP3    H1 5609   4.528   1.286   1.073
 1884TIP3    H2 5610   4.650   1.232   1.001
 1885TIP3   OH2 5611   0.272   1.418   0.333
 1885TIP3    H1 5612   0.199   1.446   0.278
 1885TIP3    H2 5613   0.327   1.365   0.276
 1886TIP3   OH2 5614   2.557   7.219   0.185
 1886TIP3    H1 5615   2.528   7.128   0.183
 1886TIP3    H2 5616   2.520   7.258   0.107
 1887TIP3   OH2 5617   2.102   2.689   5.831
 1887TIP3    H1 5618   2.078   2.733   5.749
 1887TIP3    H2 5619   2.182   2.641   5.810
 1888TIP3   OH2 5620   2.324   4.200   2.228
 1888TIP3    H1 5621   2.371   4.206   2.311
 1888TIP3    H2 5622   2.262   4.273   2.231
 1889TIP3   OH2 5623   2.486   3.656   4.283
 1889TIP3    H1 5624   2.481   3.622   4.193
 1889TIP3    H2 5625   2.484   3.751   4.273
 1890TIP3   OH2 5626   5.771   5.157   6.699
 1890TIP3    H1 5627   5.701   5.210   6.661
 1890TIP3    H2 5628   5.735   5.068   6.703
 1891TIP3   OH2 5629   3.741   1.355   6.671
 1891TIP3    H1 5630   3.722   1.448   6.665
 1891TIP3    H2 5631   3.715   1.331   6.760
 1892TIP3   OH2 5632   0.224   4.852   5.893
 1892TIP3    H1 5633   0.256   4.899   5.970
 1892TIP3    H2 5634   0.145   4.900   5.867
 1893TIP3   OH2 5635   5.403   1.908   5.423
 1893TIP3    H1 5636   5.347   1.984   5.433
 1893TIP3    H2 5637   5.445   1.897   5.508
 1894TIP3   OH2 5638   4.276   3.172   2.310
 1894TIP3    H1 5639   4.213   3.243   2.319
 1894TIP3    H2 5640   4.299   3.149   2.400
 1895TIP3   OH2 5641   8.044   6.253   2.393
 1895TIP3    H1 5642   8.093   6.335   2.390
 1895TIP3    H2 5643   8.108   6.186   2.366
 1896TIP3   OH2 5644   1.052   0.520   6.320
 1896TIP3    H1 5645   1.019   0.535   6.408
 1896TIP3    H2 5646   0.974   0.514   6.265
 1897TIP3   OH2 5647   2.250   7.510   3.209
 1897TIP3    H1 5648   2.321   7.560   3.170
 1897TIP3    H2 5649   2.225   7.446   3.142
 1898TIP3   OH2 5650   3.260   2.035   2.339
 1898TIP3    H1 5651   3.324   2.099   2.308
 1898TIP3    H2 5652   3.312   1.956   2.355
 1899TIP3   OH2 5653   1.098   2.137   6.655
 1899TIP3    H1 5654   1.053   2.054   6.675
 1899TIP3    H2 5655   1.034   2.205   6.678
 1900TIP3   OH2 5656   0.392   5.295   1.095
 1900TIP3    H1 5657   0.446   5.372   1.076
 1900TIP3    H2 5658   0.449   5.221   1.077
 1901TIP3   OH2 5659   3.375   2.301   2.326
 1901TIP3    H1 5660   3.416   2.273   2.407
 1901TIP3    H2 5661   3.333   2.385   2.347
 1902TIP3   OH2 5662   7.513   2.037   6.009
 1902TIP3    H1 5663   7.563   2.052   6.089
 1902TIP3    H2 5664   7.545   2.103   5.948
 1903TIP3   OH2 5665   2.462   6.774   2.674
 1903TIP3    H1 5666   2.488   6.685   2.651
 1903TIP3    H2 5667   2.538   6.828   2.650
 1904TIP3   OH2 5668   4.062   4.261   2.391
 1904TIP3    H1 5669   3.991   4.255   2.454
 1904TIP3    H2 5670   4.136   4.219   2.435
 1905TIP3   OH2 5671   3.201   7.511   2.541
 1905TIP3    H1 5672   3.238   7.467   2.618
 1905TIP3    H2 5673   3.135   7.570   2.577
 1906TIP3   OH2 5674   5.796   1.606   4.913
 1906TIP3    H1 5675   5.703   1.600   4.931
 1906TIP3    H2 5676   5.823   1.515   4.895
 1907TIP3   OH2 5677   7.497   6.846   2.578
 1907TIP3    H1 5678   7.441   6.912   2.620
 1907TIP3    H2 5679   7.459   6.762   2.606
 1908TIP3   OH2 5680   6.957   1.678   1.835
 1908TIP3    H1 5681   6.886   1.613   1.835
 1908TIP3    H2 5682   6.921   1.753   1.882
 1909TIP3   OH2 5683   7.289   5.070   3.329
 1909TIP3    H1 5684   7.375   5.033   3.351
 1909TIP3    H2 5685   7.309   5.157   3.296
 1910TIP3   OH2 5686   7.987   4.364   3.939
 1910TIP3    H1 5687   7.926   4.347   4.010
 1910TIP3    H2 5688   7.942   4.334   3.860
 1911TIP3   OH2 5689   3.039   2.950   2.374
 1911TIP3    H1 5690   3.021   2.905   2.292
 1911TIP3    H2 5691   3.118   2.908   2.408
 1912TIP3   OH2 5692   1.159   0.232   4.639
 1912TIP3    H1 5693   1.185   0.298   4.574
 1912TIP3    H2 5694   1.241   0.206   4.680
 1913TIP3   OH2 5695   1.445   1.848   2.754
 1913TIP3    H1 5696   1.363   1.853   2.706
 1913TIP3    H2 5697   1.495   1.780   2.709
 1914TIP3   OH2 5698   0.744   7.814   3.062
 1914TIP3    H1 5699   0.824   7.864   3.045
 1914TIP3    H2 5700   0.694   7.820   2.981
 1915TIP3   OH2 5701   4.757   1.687   2.503
 1915TIP3    H1 5702   4.838   1.657   2.543
 1915TIP3    H2 5703   4.688   1.640   2.549
 1916TIP3   OH2 5704   3.692   4.945   4.568
 1916TIP3    H1 5705   3.669   4.853   4.576
 1916TIP3    H2 5706   3.739   4.950   4.485
 1917TIP3   OH2 5707   1.959   1.524   4.647
 1917TIP3    H1 5708   1.951   1.619   4.636
 1917TIP3    H2 5709   2.045   1.502   4.612
 1918TIP3   OH2 5710   4.604   3.909   3.841
 1918TIP3    H1 5711   4.679   3.923   3.899
 1918TIP3    H2 5712   4.575   3.997   3.817
 1919TIP3   OH2 5713   2.515   2.459   0.270
 1919TIP3    H1 5714   2.520   2.553   0.252
 1919TIP3    H2 5715   2.594   2.423   0.231
 1920TIP3   OH2 5716   2.220   0.001   2.250
 1920TIP3    H1 5717   2.278   0.030   2.321
 1920TIP3    H2 5718   2.137   0.045   2.268
 1921TIP3   OH2 5719   5.804   7.178   4.750
 1921TIP3    H1 5720   5.710   7.188   4.739
 1921TIP3    H2 5721   5.816   7.085   4.770
 1922TIP3   OH2 5722   5.116   5.341   4.583
 1922TIP3    H1 5723   5.122   5.247   4.600
 1922TIP3    H2 5724   5.041   5.371   4.635
 1923TIP3   OH2 5725   3.356   6.654   1.011
 1923TIP3    H1 5726   3.323   6.565   1.025
 1923TIP3    H2 5727   3.449   6.649   1.029
 1924TIP3   OH2 5728   3.856   0.529   0.798
 1924TIP3    H1 5729   3.851   0.454   0.739
 1924TIP3    H2 5730   3.818   0.497   0.880
 1925TIP3   OH2 5731   0.948   4.211   1.667
 1925TIP3    H1 5732   0.873   4.214   1.608
 1925TIP3    H2 5733   0.951   4.120   1.698
 1926TIP3   OH2 5734   0.977   0.787   0.594
 1926TIP3    H1 5735   1.008   0.782   0.503
 1926TIP3    H2 5736   1.056   0.772   0.647
 1927TIP3   OH2 5737   4.476   5.944   4.868
 1927TIP3    H1 5738   4.483   5.911   4.957
 1927TIP3    H2 5739   4.500   6.037   4.875
 1928TIP3   OH2 5740   3.751   5.207   5.845
 1928TIP3    H1 5741   3.829   5.194   5.791
 1928TIP3    H2 5742   3.718   5.293   5.818
 1929TIP3   OH2 5743   4.655   3.630   3.873
 1929TIP3    H1 5744   4.616   3.710   3.837
 1929TIP3    H2 5745   4.583   3.567   3.874
 1930TIP3   OH2 5746   7.959   2.556   1.676
 1930TIP3    H1 5747   7.892   2.514   1.622
 1930TIP3    H2 5748   8.027   2.489   1.686
 1931TIP3   OH2 5749   6.965   2.600   3.892
 1931TIP3    H1 5750   7.049   2.646   3.895
 1931TIP3    H2 5751   6.934   2.604   3.983
 1932TIP3   OH2 5752   8.024   0.588   3.925
 1932TIP3    H1 5753   7.972   0.642   3.985
 1932TIP3    H2 5754   7.991   0.611   3.838
 1933TIP3   OH2 5755   7.417   5.669   0.207
 1933TIP3    H1 5756   7.372   5.623   0.136
 1933TIP3    H2 5757   7.387   5.759   0.201
 1934TIP3   OH2 5758   2.613   7.111   2.101
 1934TIP3    H1 5759   2.644   7.025   2.071
 1934TIP3    H2 5760   2.544   7.091   2.165
 1935TIP3   OH2 5761   2.176   5.293   3.191
 1935TIP3    H1 5762   2.223   5.346   3.256
 1935TIP3    H2 5763   2.224   5.211   3.188
 1936TIP3   OH2 5764   6.188   1.315   1.028
 1936TIP3    H1 5765   6.128   1.383   1.056
 1936TIP3    H2 5766   6.172   1.305   0.934
 1937TIP3   OH2 5767   7.227   2.650   2.211
 1937TIP3    H1 5768   7.313   2.658   2.253
 1937TIP3    H2 5769   7.243   2.676   2.120
 1938TIP3   OH2 5770   3.010   0.900   5.379
 1938TIP3    H1 5771   2.990   0.823   5.434
 1938TIP3    H2 5772   3.011   0.865   5.290
 1939TIP3   OH2 5773   4.780   6.260   6.262
 1939TIP3    H1 5774   4.804   6.169   6.246
 1939TIP3    H2 5775   4.863   6.306   6.272
 1940TIP3   OH2 5776   6.595   5.141   1.520
 1940TIP3    H1 5777   6.573   5.134   1.613
 1940TIP3    H2 5778   6.573   5.055   1.484
 1941TIP3   OH2 5779   7.089   0.250   2.395
 1941TIP3    H1 5780   7.177   0.213   2.397
 1941TIP3    H2 5781   7.047   0.216   2.474
 1942TIP3   OH2 5782   0.229   4.632   2.880
 1942TIP3    H1 5783   0.283   4.608   2.805
 1942TIP3    H2 5784   0.292   4.669   2.942
 1943TIP3   OH2 5785   5.349   5.992   4.955
 1943TIP3    H1 5786   5.277   5.936   4.928
 1943TIP3    H2 5787   5.390   6.019   4.873
 1944TIP3   OH2 5788   6.353   6.858   5.572
 1944TIP3    H1 5789   6.386   6.897   5.653
 1944TIP3    H2 5790   6.339   6.931   5.513
 1945TIP3   OH2 5791   3.446   5.016   0.660
 1945TIP3    H1 5792   3.414   5.027   0.749
 1945TIP3    H2 5793   3.524   4.961   0.670
 1946TIP3   OH2 5794   1.576   0.005   2.155
 1946TIP3    H1 5795   1.580   0.077   2.092
 1946TIP3    H2 5796   1.511  -0.055   2.117
 1947TIP3   OH2 5797   2.586   4.514   2.324
 1947TIP3    H1 5798   2.535   4.510   2.405
 1947TIP3    H2 5799   2.596   4.608   2.307
 1948TIP3   OH2 5800   6.335   1.964   2.610
 1948TIP3    H1 5801   6.344   1.943   2.703
 1948TIP3    H2 5802   6.271   1.901   2.578
 1949TIP3   OH2 5803   1.722   1.085   2.044
 1949TIP3    H1 5804   1.755   1.106   2.132
 1949TIP3    H2 5805   1.732   1.166   1.995
 1950TIP3   OH2 5806   1.852   2.102   5.464
 1950TIP3    H1 5807   1.833   2.014   5.431
 1950TIP3    H2 5808   1.768   2.134   5.497
 1951TIP3   OH2 5809   0.167   7.404   4.982
 1951TIP3    H1 5810   0.210   7.478   4.939
 1951TIP3    H2 5811   0.075   7.411   4.956
 1952TIP3   OH2 5812   6.454   1.474   6.388
 1952TIP3    H1 5813   6.547   1.493   6.375
 1952TIP3    H2 5814   6.425   1.440   6.304
 1953TIP3   OH2 5815   4.779   1.694   0.366
 1953TIP3    H1 5816   4.857   1.685   0.422
 1953TIP3    H2 5817   4.715   1.635   0.405
 1954TIP3   OH2 5818   0.077   1.965   4.334
 1954TIP3    H1 5819   0.130   1.995   4.261
 1954TIP3    H2 5820  -0.003   1.930   4.293
 1955TIP3   OH2 5821   7.488   1.036   1.638
 1955TIP3    H1 5822   7.567   1.000   1.679
 1955TIP3    H2 5823   7.464   1.110   1.694
 1956TIP3   OH2 5824   8.197   1.550   1.469
 1956TIP3    H1 5825   8.151   1.627   1.501
 1956TIP3    H2 5826   8.290   1.573   1.475
 1957TIP3   OH2 5827   1.513   5.870   3.345
 1957TIP3    H1 5828   1.446   5.906   3.403
 1957TIP3    H2 5829   1.536   5.943   3.287
 1958TIP3   OH2 5830   7.430   7.141   1.374
 1958TIP3    H1 5831   7.406   7.050   1.389
 1958TIP3    H2 5832   7.516   7.137   1.333
 1959TIP3   OH2 5833   7.405   5.142   4.072
 1959TIP3    H1 5834   7.373   5.094   4.149
 1959TIP3    H2 5835   7.350   5.113   4.000
 1960TIP3   OH2 5836   3.037   5.969   0.372
 1960TIP3    H1 5837   3.005   6.047   0.327
 1960TIP3    H2 5838   2.992   5.969   0.457
 1961TIP3   OH2 5839   3.371   3.140   3.883
 1961TIP3    H1 5840   3.398   3.052   3.857
 1961TIP3    H2 5841   3.449   3.178   3.923
 1962TIP3   OH2 5842   3.919   4.280   0.412
 1962TIP3    H1 5843   3.931   4.254   0.321
 1962TIP3    H2 5844   3.935   4.199   0.462
 1963TIP3   OH2 5845   4.724   7.354   4.600
 1963TIP3    H1 5846   4.760   7.369   4.687
 1963TIP3    H2 5847   4.795   7.375   4.540
 1964TIP3   OH2 5848   0.205   2.839   0.863
 1964TIP3    H1 5849   0.164   2.753   0.874
 1964TIP3    H2 5850   0.134   2.897   0.836
 1965TIP3   OH2 5851   6.576   4.881   3.318
 1965TIP3    H1 5852   6.630   4.960   3.318
 1965TIP3    H2 5853   6.637   4.810   3.299
 1966TIP3   OH2 5854   3.037   2.511   2.495
 1966TIP3    H1 5855   2.958   2.563   2.479
 1966TIP3    H2 5856   3.010   2.421   2.476
 1967TIP3   OH2 5857   0.582   3.189   5.450
 1967TIP3    H1 5858   0.619   3.252   5.511
 1967TIP3    H2 5859   0.488   3.189   5.468
 1968TIP3   OH2 5860   5.271   2.687   2.493
 1968TIP3    H1 5861   5.278   2.746   2.568
 1968TIP3    H2 5862   5.177   2.670   2.485
 1969TIP3   OH2 5863   1.632   2.751   4.104
 1969TIP3    H1 5864   1.621   2.671   4.156
 1969TIP3    H2 5865   1.671   2.814   4.165
 1970TIP3   OH2 5866   3.753   1.593   1.434
 1970TIP3    H1 5867   3.714   1.526   1.489
 1970TIP3    H2 5868   3.739   1.561   1.344
 1971TIP3   OH2 5869   4.230   3.603   1.505
 1971TIP3    H1 5870   4.178   3.524   1.520
 1971TIP3    H2 5871   4.318   3.570   1.486
 1972TIP3   OH2 5872   5.425   1.163   4.886
 1972TIP3    H1 5873   5.414   1.247   4.841
 1972TIP3    H2 5874   5.406   1.097   4.820
 1973TIP3   OH2 5875   2.045   2.411   0.273
 1973TIP3    H1 5876   2.122   2.394   0.219
 1973TIP3    H2 5877   1.981   2.346   0.243
 1974TIP3   OH2 5878   5.865   5.356   5.718
 1974TIP3    H1 5879   5.957   5.345   5.742
 1974TIP3    H2 5880   5.822   5.380   5.801
 1975TIP3   OH2 5881   1.645   5.476   6.333
 1975TIP3    H1 5882   1.628   5.415   6.404
 1975TIP3    H2 5883   1.692   5.425   6.267
 1976TIP3   OH2 5884   1.510   6.117   2.545
 1976TIP3    H1 5885   1.553   6.074   2.619
 1976TIP3    H2 5886   1.420   6.085   2.548
 1977TIP3   OH2 5887   7.848   3.516   4.855
 1977TIP3    H1 5888   7.902   3.460   4.911
 1977TIP3    H2 5889   7.885   3.603   4.864
 1978TIP3   OH2 5890   4.003   6.951   6.289
 1978TIP3    H1 5891   3.996   6.986   6.377
 1978TIP3    H2 5892   4.044   6.865   6.300
 1979TIP3   OH2 5893   8.270   7.619   0.054
 1979TIP3    H1 5894   8.259   7.646  -0.037
 1979TIP3    H2 5895   8.199   7.661   0.101
 1980TIP3   OH2 5896   1.000   3.891   1.777
 1980TIP3    H1 5897   0.916   3.891   1.822
 1980TIP3    H2 5898   1.061   3.927   1.840
 1981TIP3   OH2 5899   1.049   2.940   5.293
 1981TIP3    H1 5900   1.074   2.911   5.206
 1981TIP3    H2 5901   0.957   2.912   5.302
 1982TIP3   OH2 5902   5.213   7.175   2.044
 1982TIP3    H1 5903   5.117   7.170   2.038
 1982TIP3    H2 5904   5.236   7.105   2.106
 1983TIP3   OH2 5905   4.749   5.728   3.584
 1983TIP3    H1 5906   4.694   5.789   3.634
 1983TIP3    H2 5907   4.771   5.776   3.504
 1984TIP3   OH2 5908   6.544   1.714   4.955
 1984TIP3    H1 5909   6.637   1.716   4.976
 1984TIP3    H2 5910   6.505   1.783   5.008
 1985TIP3   OH2 5911   8.218   7.267   4.196
 1985TIP3    H1 5912   8.313   7.256   4.209
 1985TIP3    H2 5913   8.203   7.361   4.208
 1986TIP3   OH2 5914   4.173   6.586   3.112
 1986TIP3    H1 5915   4.103   6.611   3.173
 1986TIP3    H2 5916   4.166   6.491   3.106
 1987TIP3   OH2 5917   5.240   6.028   2.763
 1987TIP3    H1 5918   5.245   6.122   2.746
 1987TIP3    H2 5919   5.287   6.016   2.846
 1988TIP3   OH2 5920   0.842   1.401   4.192
 1988TIP3    H1 5921   0.754   1.436   4.179
 1988TIP3    H2 5922   0.856   1.345   4.116
 1989TIP3   OH2 5923   1.010   0.932   0.844
 1989TIP3    H1 5924   0.984   0.987   0.770
 1989TIP3    H2 5925   1.088   0.884   0.813
 1990TIP3   OH2 5926   5.840   3.364   3.967
 1990TIP3    H1 5927   5.779   3.342   4.037
 1990TIP3    H2 5928   5.784   3.399   3.897
 1991TIP3   OH2 5929   3.974   0.235   4.470
 1991TIP3    H1 5930   3.941   0.314   4.426
 1991TIP3    H2 5931   4.069   0.239   4.459
 1992TIP3   OH2 5932   0.521   7.108   6.171
 1992TIP3    H1 5933   0.535   7.189   6.122
 1992TIP3    H2 5934   0.504   7.138   6.261
 1993TIP3   OH2 5935   4.171   6.863   3.346
 1993TIP3    H1 5936   4.257   6.833   3.316
 1993TIP3    H2 5937   4.188   6.903   3.431
 1994TIP3   OH2 5938   6.792   0.252   3.686
 1994TIP3    H1 5939   6.861   0.312   3.714
 1994TIP3    H2 5940   6.798   0.179   3.748
 1995TIP3   OH2 5941   6.917   6.730   5.470
 1995TIP3    H1 5942   6.896   6.806   5.415
 1995TIP3    H2 5943   6.960   6.669   5.411
 1996TIP3   OH2 5944   0.501   7.143   4.228
 1996TIP3    H1 5945   0.546   7.148   4.312
 1996TIP3    H2 5946   0.533   7.219   4.179
 1997TIP3   OH2 5947   1.044   3.597   3.104
 1997TIP3    H1 5948   1.036   3.688   3.130
 1997TIP3    H2 5949   0.953   3.566   3.097
 1998TIP3   OH2 5950   1.633   6.002   3.725
 1998TIP3    H1 5951   1.717   5.954   3.724
 1998TIP3    H2 5952   1.628   6.039   3.813
 1999TIP3   OH2 5953   6.900   2.979   0.681
 1999TIP3    H1 5954   6.861   2.903   0.636
 1999TIP3    H2 5955   6.973   3.004   0.625
 2000TIP3   OH2 5956   1.936   5.689   0.867
 2000TIP3    H1 5957   1.842   5.708   0.863
 2000TIP3    H2 5958   1.942   5.595   0.851
 2001TIP3   OH2 5959   6.783   4.994   5.259
 2001TIP3    H1 5960   6.698   4.960   5.284
 2001TIP3    H2 5961   6.766   5.086   5.236
 2002TIP3   OH2 5962   2.820   0.689   3.946
 2002TIP3    H1 5963   2.739   0.719   3.905
 2002TIP3    H2 5964   2.849   0.616   3.891
 2003TIP3   OH2 5965   7.350   7.489   1.770
 2003TIP3    H1 5966   7.260   7.456   1.768
 2003TIP3    H2 5967   7.361   7.521   1.860
 2004TIP3   OH2 5968   6.271   2.762   3.723
 2004TIP3    H1 5969   6.289   2.828   3.655
 2004TIP3    H2 5970   6.184   2.729   3.701
 2005TIP3   OH2 5971   4.637   7.637   1.845
 2005TIP3    H1 5972   4.570   7.635   1.777
 2005TIP3    H2 5973   4.720   7.646   1.797
 2006TIP3   OH2 5974   0.279   6.502   1.763
 2006TIP3    H1 5975   0.234   6.432   1.716
 2006TIP3    H2 5976   0.327   6.550   1.696
 2007TIP3   OH2 5977   0.040   5.611   0.481
 2007TIP3    H1 5978   0.111   5.571   0.531
 2007TIP3    H2 5979  -0.015   5.653   0.547
 2008TIP3   OH2 5980   4.295   1.824   0.399
 2008TIP3    H1 5981   4.256   1.805   0.314
 2008TIP3    H2 5982   4.234   1.884   0.441
 2009TIP3   OH2 5983   1.171   2.575   0.048
 2009TIP3    H1 5984   1.193   2.612   0.133
 2009TIP3    H2 5985   1.080   2.547   0.055
 2010TIP3   OH2 5986   7.155   1.315   4.819
 2010TIP3    H1 5987   7.239   1.286   4.856
 2010TIP3    H2 5988   7.143   1.262   4.740
 2011TIP3   OH2 5989   8.115   5.362   4.745
 2011TIP3    H1 5990   8.052   5.430   4.771
 2011TIP3    H2 5991   8.148   5.328   4.828
 2012TIP3   OH2 5992   4.588   0.390   5.311
 2012TIP3    H1 5993   4.542   0.321   5.262
 2012TIP3    H2 5994   4.534   0.404   5.389
 2013TIP3   OH2 5995   2.868   3.567   4.044
 2013TIP3    H1 5996   2.837   3.654   4.068
 2013TIP3    H2 5997   2.946   3.553   4.097
 2014TIP3   OH2 5998   6.734   3.495   3.447
 2014TIP3    H1 5999   6.707   3.429   3.511
 2014TIP3    H2 6000   6.802   3.453   3.395
 2015TIP3   OH2 6001   4.731   7.242   0.841
 2015TIP3    H1 6002   4.747   7.331   0.873
 2015TIP3    H2 6003   4.781   7.236   0.760
 2016TIP3   OH2 6004   5.744   4.596   5.365
 2016TIP3    H1 6005   5.750   4.676   5.313
 2016TIP3    H2 6006   5.657   4.601   5.405
 2017TIP3   OH2 6007   0.847   3.763   0.506
 2017TIP3    H1 6008   0.782   3.734   0.443
 2017TIP3    H2 6009   0.818   3.725   0.589
 2018TIP3   OH2 6010   6.208   5.180   1.648
 2018TIP3    H1 6011   6.204   5.124   1.725
 2018TIP3    H2 6012   6.116   5.205   1.632
 2019TIP3   OH2 6013   7.302   5.339   3.272
 2019TIP3    H1 6014   7.282   5.329   3.365
 2019TIP3    H2 6015   7.308   5.433   3.259
 2020TIP3   OH2 6016   5.254   3.585   3.397
 2020TIP3    H1 6017   5.322   3.624   3.451
 2020TIP3    H2 6018   5.172   3.613   3.439
 2021TIP3   OH2 6019   1.161   3.594   2.291
 2021TIP3    H1 6020   1.144   3.627   2.380
 2021TIP3    H2 6021   1.113   3.511   2.287
 2022TIP3   OH2 6022   3.149   2.714   4.696
 2022TIP3    H1 6023   3.070   2.663   4.675
 2022TIP3    H2 6024   3.200   2.713   4.615
 2023TIP3   OH2 6025   5.952   1.918   1.894
 2023TIP3    H1 6026   5.862   1.888   1.880
 2023TIP3    H2 6027   5.993   1.913   1.807
 2024TIP3   OH2 6028   2.686   3.660   5.725
 2024TIP3    H1 6029   2.667   3.654   5.819
 2024TIP3    H2 6030   2.775   3.627   5.717
 2025TIP3   OH2 6031   2.696   5.690   3.863
 2025TIP3    H1 6032   2.674   5.745   3.938
 2025TIP3    H2 6033   2.668   5.741   3.787
 2026TIP3   OH2 6034   7.139   6.261   2.984
 2026TIP3    H1 6035   7.086   6.208   3.043
 2026TIP3    H2 6036   7.142   6.348   3.025
 2027TIP3   OH2 6037   7.036   0.834   1.648
 2027TIP3    H1 6038   7.011   0.794   1.565
 2027TIP3    H2 6039   7.128   0.859   1.636
 2028TIP3   OH2 6040   3.907   1.808   4.740
 2028TIP3    H1 6041   3.878   1.786   4.652
 2028TIP3    H2 6042   4.002   1.795   4.738
 2029TIP3   OH2 6043   3.246   1.071   1.462
 2029TIP3    H1 6044   3.214   1.014   1.533
 2029TIP3    H2 6045   3.216   1.029   1.382
 2030TIP3   OH2 6046   5.469   4.965   2.715
 2030TIP3    H1 6047   5.482   5.014   2.633
 2030TIP3    H2 6048   5.540   4.901   2.716
 2031TIP3   OH2 6049   4.647   4.410   4.857
 2031TIP3    H1 6050   4.664   4.350   4.784
 2031TIP3    H2 6051   4.619   4.353   4.928
 2032TIP3   OH2 6052   6.614   2.687   2.167
 2032TIP3    H1 6053   6.671   2.744   2.116
 2032TIP3    H2 6054   6.653   2.684   2.254
 2033TIP3   OH2 6055   4.484   0.443   4.036
 2033TIP3    H1 6056   4.457   0.371   3.979
 2033TIP3    H2 6057   4.421   0.513   4.017
 2034TIP3   OH2 6058   2.190   6.057   1.105
 2034TIP3    H1 6059   2.170   6.150   1.094
 2034TIP3    H2 6060   2.119   6.012   1.058
 2035TIP3   OH2 6061   7.403   5.045   6.715
 2035TIP3    H1 6062   7.324   4.999   6.687
 2035TIP3    H2 6063   7.432   5.093   6.637
 2036TIP3   OH2 6064   3.209   6.728   3.280
 2036TIP3    H1 6065   3.149   6.687   3.218
 2036TIP3    H2 6066   3.153   6.760   3.350
 2037TIP3   OH2 6067   6.822   3.005   5.814
 2037TIP3    H1 6068   6.728   3.006   5.835
 2037TIP3    H2 6069   6.864   3.041   5.892
 2038TIP3   OH2 6070   0.308   0.478   3.527
 2038TIP3    H1 6071   0.357   0.401   3.498
 2038TIP3    H2 6072   0.370   0.525   3.583
 2039TIP3   OH2 6073   1.310   6.004   2.690
 2039TIP3    H1 6074   1.228   5.989   2.644
 2039TIP3    H2 6075   1.298   5.962   2.776
 2040TIP3   OH2 6076   7.942   1.641   2.232
 2040TIP3    H1 6077   7.969   1.625   2.323
 2040TIP3    H2 6078   7.956   1.735   2.220
 2041TIP3   OH2 6079   3.643   1.427   0.758
 2041TIP3    H1 6080   3.735   1.402   0.752
 2041TIP3    H2 6081   3.642   1.502   0.817
 2042TIP3   OH2 6082   5.270   1.701   2.102
 2042TIP3    H1 6083   5.306   1.749   2.027
 2042TIP3    H2 6084   5.204   1.643   2.064
 2043TIP3   OH2 6085   6.321   6.731   0.758
 2043TIP3    H1 6086   6.406   6.718   0.799
 2043TIP3    H2 6087   6.274   6.648   0.773
 2044TIP3   OH2 6088   3.752   3.850   4.573
 2044TIP3    H1 6089   3.819   3.917   4.583
 2044TIP3    H2 6090   3.768   3.813   4.486
 2045TIP3   OH2 6091   6.957   1.259   2.219
 2045TIP3    H1 6092   6.995   1.343   2.192
 2045TIP3    H2 6093   6.870   1.281   2.252
 2046TIP3   OH2 6094   7.683   1.541   6.213
 2046TIP3    H1 6095   7.645   1.629   6.210
 2046TIP3    H2 6096   7.621   1.486   6.167
 2047TIP3   OH2 6097   1.256   3.602   1.418
 2047TIP3    H1 6098   1.252   3.675   1.479
 2047TIP3    H2 6099   1.169   3.598   1.378
 2048TIP3   OH2 6100   7.130   7.231   3.523
 2048TIP3    H1 6101   7.184   7.309   3.537
 2048TIP3    H2 6102   7.141   7.179   3.602
 2049TIP3   OH2 6103   6.391   1.282   2.175
 2049TIP3    H1 6104   6.388   1.216   2.245
 2049TIP3    H2 6105   6.357   1.361   2.216
 2050TIP3   OH2 6106   7.672   4.481   5.888
 2050TIP3    H1 6107   7.676   4.441   5.801
 2050TIP3    H2 6108   7.596   4.440   5.930
 2051TIP3   OH2 6109   0.411   1.527   1.702
 2051TIP3    H1 6110   0.474   1.455   1.703
 2051TIP3    H2 6111   0.461   1.603   1.732
 2052TIP3   OH2 6112   6.771   5.475   4.606
 2052TIP3    H1 6113   6.774   5.478   4.702
 2052TIP3    H2 6114   6.700   5.535   4.583
 2053TIP3   OH2 6115   5.861   2.067   1.139
 2053TIP3    H1 6116   5.852   2.113   1.222
 2053TIP3    H2 6117   5.939   2.013   1.150
 2054TIP3   OH2 6118   4.704   6.636   5.799
 2054TIP3    H1 6119   4.762   6.566   5.769
 2054TIP3    H2 6120   4.616   6.599   5.797
 2055TIP3   OH2 6121   5.386   1.265   1.200
 2055TIP3    H1 6122   5.340   1.241   1.280
 2055TIP3    H2 6123   5.402   1.182   1.155
 2056TIP3   OH2 6124   1.433   0.135   3.622
 2056TIP3    H1 6125   1.358   0.193   3.637
 2056TIP3    H2 6126   1.396   0.057   3.581
 2057TIP3   OH2 6127   7.907   0.789   2.013
 2057TIP3    H1 6128   7.962   0.833   1.948
 2057TIP3    H2 6129   7.855   0.860   2.052
 2058TIP3   OH2 6130   0.869   0.856   5.810
 2058TIP3    H1 6131   0.867   0.765   5.782
 2058TIP3    H2 6132   0.786   0.869   5.856
 2059TIP3   OH2 6133   4.500   3.930   2.375
 2059TIP3    H1 6134   4.470   3.875   2.303
 2059TIP3    H2 6135   4.593   3.943   2.358
 2060TIP3   OH2 6136   6.773   5.728   3.130
 2060TIP3    H1 6137   6.737   5.728   3.041
 2060TIP3    H2 6138   6.844   5.792   3.128
 2061TIP3   OH2 6139   6.901   2.528   0.359
 2061TIP3    H1 6140   6.895   2.592   0.288
 2061TIP3    H2 6141   6.815   2.528   0.400
 2062TIP3   OH2 6142   2.656   5.336   0.490
 2062TIP3    H1 6143   2.625   5.396   0.422
 2062TIP3    H2 6144   2.599   5.355   0.565
 2063TIP3   OH2 6145   4.448   7.843   2.147
 2063TIP3    H1 6146   4.458   7.932   2.113
 2063TIP3    H2 6147   4.531   7.800   2.128
 2064TIP3   OH2 6148   1.155   3.345   6.447
 2064TIP3    H1 6149   1.113   3.307   6.524
 2064TIP3    H2 6150   1.200   3.423   6.480
 2065TIP3   OH2 6151   4.530   4.363   0.424
 2065TIP3    H1 6152   4.495   4.378   0.512
 2065TIP3    H2 6153   4.601   4.426   0.415
 2066TIP3   OH2 6154   2.211   1.725   0.229
 2066TIP3    H1 6155   2.178   1.699   0.143
 2066TIP3    H2 6156   2.279   1.791   0.210
 2067TIP3   OH2 6157   2.174   4.847   4.338
 2067TIP3    H1 6158   2.100   4.795   4.307
 2067TIP3    H2 6159   2.134   4.921   4.385
 2068TIP3   OH2 6160   5.228   7.578   3.642
 2068TIP3    H1 6161   5.200   7.669   3.641
 2068TIP3    H2 6162   5.320   7.582   3.669
 2069TIP3   OH2 6163   3.990   4.053   4.653
 2069TIP3    H1 6164   4.085   4.039   4.645
 2069TIP3    H2 6165   3.965   4.001   4.729
 2070TIP3   OH2 6166   7.078   7.039   5.353
 2070TIP3    H1 6167   7.130   7.034   5.433
 2070TIP3    H2 6168   7.142   7.057   5.284
 2071TIP3   OH2 6169   8.107   1.524   4.019
 2071TIP3    H1 6170   8.025   1.530   4.068
 2071TIP3    H2 6171   8.088   1.567   3.935
 2072TIP3   OH2 6172   1.339   4.633   5.535
 2072TIP3    H1 6173   1.379   4.720   5.532
 2072TIP3    H2 6174   1.245   4.650   5.542
 2073TIP3   OH2 6175   1.238   5.258   5.918
 2073TIP3    H1 6176   1.208   5.168   5.929
 2073TIP3    H2 6177   1.280   5.259   5.832
 2074TIP3   OH2 6178   3.880   5.812   6.306
 2074TIP3    H1 6179   3.915   5.722   6.305
 2074TIP3    H2 6180   3.814   5.811   6.375
 2075TIP3   OH2 6181   4.923   5.525   0.573
 2075TIP3    H1 6182   5.018   5.516   0.577
 2075TIP3    H2 6183   4.903   5.524   0.479
 2076TIP3   OH2 6184   3.135   7.108   3.089
 2076TIP3    H1 6185   3.212   7.075   3.135
 2076TIP3    H2 6186   3.149   7.202   3.081
 2077TIP3   OH2 6187   6.259   3.604   6.650
 2077TIP3    H1 6188   6.185   3.606   6.590
 2077TIP3    H2 6189   6.330   3.564   6.600
 2078TIP3   OH2 6190   2.421   2.073   4.800
 2078TIP3    H1 6191   2.363   2.149   4.791
 2078TIP3    H2 6192   2.482   2.080   4.727
 2079TIP3   OH2 6193   5.082   3.504   6.084
 2079TIP3    H1 6194   5.034   3.441   6.030
 2079TIP3    H2 6195   5.171   3.503   6.047
 2080TIP3   OH2 6196   7.857   7.264   0.288
 2080TIP3    H1 6197   7.817   7.210   0.356
 2080TIP3    H2 6198   7.842   7.354   0.318
 2081TIP3   OH2 6199   4.222   7.677   2.530
 2081TIP3    H1 6200   4.233   7.642   2.442
 2081TIP3    H2 6201   4.274   7.619   2.586
 2082TIP3   OH2 6202   2.013   2.580   1.616
 2082TIP3    H1 6203   2.107   2.595   1.620
 2082TIP3    H2 6204   2.004   2.485   1.606
 2083TIP3   OH2 6205   0.091   7.647   4.529
 2083TIP3    H1 6206   0.086   7.699   4.449
 2083TIP3    H2 6207   0.075   7.710   4.600
 2084TIP3   OH2 6208   6.783   1.822   2.003
 2084TIP3    H1 6209   6.701   1.817   2.052
 2084TIP3    H2 6210   6.835   1.888   2.049
 2085TIP3   OH2 6211   5.873   0.894   4.009
 2085TIP3    H1 6212   5.958   0.858   4.036
 2085TIP3    H2 6213   5.816   0.879   4.085
 2086TIP3   OH2 6214   5.508   4.484   3.269
 2086TIP3    H1 6215   5.526   4.413   3.207
 2086TIP3    H2 6216   5.549   4.456   3.351
 2087TIP3   OH2 6217   4.921   6.228   0.465
 2087TIP3    H1 6218   4.946   6.156   0.408
 2087TIP3    H2 6219   4.854   6.276   0.416
 2088TIP3   OH2 6220   0.853   1.109   5.126
 2088TIP3    H1 6221   0.933   1.059   5.109
 2088TIP3    H2 6222   0.792   1.045   5.163
 2089TIP3   OH2 6223   0.406   3.283   4.333
 2089TIP3    H1 6224   0.426   3.213   4.272
 2089TIP3    H2 6225   0.421   3.364   4.284
 2090TIP3   OH2 6226   7.892   6.907   4.957
 2090TIP3    H1 6227   7.831   6.941   4.891
 2090TIP3    H2 6228   7.912   6.982   5.013
 2091TIP3   OH2 6229   3.646   1.478   0.272
 2091TIP3    H1 6230   3.594   1.469   0.352
 2091TIP3    H2 6231   3.608   1.554   0.227
 2092TIP3   OH2 6232   6.927   3.346   3.334
 2092TIP3    H1 6233   6.954   3.377   3.248
 2092TIP3    H2 6234   6.862   3.278   3.316
 2093TIP3   OH2 6235   1.362   0.952   0.474
 2093TIP3    H1 6236   1.315   0.879   0.435
 2093TIP3    H2 6237   1.444   0.957   0.425
 2094TIP3   OH2 6238   2.584   1.542   3.438
 2094TIP3    H1 6239   2.651   1.476   3.456
 2094TIP3    H2 6240   2.598   1.610   3.504
 2095TIP3   OH2 6241   3.823   3.198   5.044
 2095TIP3    H1 6242   3.802   3.286   5.076
 2095TIP3    H2 6243   3.856   3.212   4.955
 2096TIP3   OH2 6244   6.285   0.322   1.371
 2096TIP3    H1 6245   6.357   0.383   1.386
 2096TIP3    H2 6246   6.247   0.349   1.288
 2097TIP3   OH2 6247   1.437   4.068   0.893
 2097TIP3    H1 6248   1.429   4.022   0.809
 2097TIP3    H2 6249   1.370   4.028   0.949
 2098TIP3   OH2 6250   1.021   6.357   5.394
 2098TIP3    H1 6251   0.969   6.396   5.325
 2098TIP3    H2 6252   1.000   6.263   5.390
 2099TIP3   OH2 6253   1.848   6.662   1.847
 2099TIP3    H1 6254   1.876   6.633   1.760
 2099TIP3    H2 6255   1.861   6.757   1.846
 2100TIP3   OH2 6256   1.362   6.350   5.112
 2100TIP3    H1 6257   1.357   6.256   5.131
 2100TIP3    H2 6258   1.434   6.358   5.050
 2101TIP3   OH2 6259   2.159   3.891   5.493
 2101TIP3    H1 6260   2.221   3.818   5.500
 2101TIP3    H2 6261   2.074   3.852   5.513
 2102TIP3   OH2 6262   7.197   1.562   1.380
 2102TIP3    H1 6263   7.211   1.470   1.403
 2102TIP3    H2 6264   7.103   1.567   1.360
 2103TIP3   OH2 6265   0.214   2.364   3.975
 2103TIP3    H1 6266   0.176   2.307   3.908
 2103TIP3    H2 6267   0.189   2.323   4.058
 2104TIP3   OH2 6268   3.433   1.398   3.992
 2104TIP3    H1 6269   3.373   1.328   3.967
 2104TIP3    H2 6270   3.453   1.443   3.910
 2105TIP3   OH2 6271   2.556   3.340   6.616
 2105TIP3    H1 6272   2.484   3.284   6.644
 2105TIP3    H2 6273   2.629   3.315   6.673
 2106TIP3   OH2 6274   1.496   6.481   0.967
 2106TIP3    H1 6275   1.444   6.550   1.010
 2106TIP3    H2 6276   1.516   6.419   1.037
 2107TIP3   OH2 6277   6.806   0.852   0.888
 2107TIP3    H1 6278   6.734   0.813   0.838
 2107TIP3    H2 6279   6.828   0.786   0.954
 2108TIP3   OH2 6280   6.112   1.080   2.802
 2108TIP3    H1 6281   6.032   1.123   2.771
 2108TIP3    H2 6282   6.176   1.097   2.733
 2109TIP3   OH2 6283   0.068   4.626   4.588
 2109TIP3    H1 6284   0.003   4.557   4.574
 2109TIP3    H2 6285   0.028   4.704   4.549
 2110TIP3   OH2 6286   4.095   2.912   4.801
 2110TIP3    H1 6287   4.143   2.832   4.782
 2110TIP3    H2 6288   4.141   2.952   4.874
 2111TIP3   OH2 6289   4.633   3.535   2.451
 2111TIP3    H1 6290   4.671   3.447   2.455
 2111TIP3    H2 6291   4.539   3.521   2.458
 2112TIP3   OH2 6292   5.173   6.888   4.020
 2112TIP3    H1 6293   5.260   6.893   3.981
 2112TIP3    H2 6294   5.187   6.840   4.102
 2113TIP3   OH2 6295   1.582   5.908   2.145
 2113TIP3    H1 6296   1.543   5.831   2.186
 2113TIP3    H2 6297   1.618   5.959   2.218
 2114TIP3   OH2 6298   7.876   4.753   0.102
 2114TIP3    H1 6299   7.929   4.750   0.182
 2114TIP3    H2 6300   7.786   4.743   0.133
 2115TIP3   OH2 6301   6.267   1.625   6.187
 2115TIP3    H1 6302   6.306   1.647   6.272
 2115TIP3    H2 6303   6.173   1.640   6.199
 2116TIP3   OH2 6304   4.011   1.867   4.310
 2116TIP3    H1 6305   3.994   1.825   4.226
 2116TIP3    H2 6306   4.087   1.821   4.345
 2117TIP3   OH2 6307   4.227   1.714   1.953
 2117TIP3    H1 6308   4.145   1.755   1.982
 2117TIP3    H2 6309   4.212   1.620   1.961
 2118TIP3   OH2 6310   2.469   5.264   2.164
 2118TIP3    H1 6311   2.544   5.265   2.106
 2118TIP3    H2 6312   2.502   5.298   2.247
 2119TIP3   OH2 6313   8.087   1.727   5.429
 2119TIP3    H1 6314   8.011   1.672   5.409
 2119TIP3    H2 6315   8.137   1.731   5.347
 2120TIP3   OH2 6316   4.865   1.188   2.285
 2120TIP3    H1 6317   4.774   1.183   2.255
 2120TIP3    H2 6318   4.867   1.133   2.363
 2121TIP3   OH2 6319   1.802   5.306   3.339
 2121TIP3    H1 6320   1.759   5.340   3.261
 2121TIP3    H2 6321   1.889   5.280   3.310
 2122TIP3   OH2 6322   7.623   4.951   0.851
 2122TIP3    H1 6323   7.659   4.986   0.933
 2122TIP3    H2 6324   7.536   4.920   0.875
 2123TIP3   OH2 6325   0.548   1.391   0.465
 2123TIP3    H1 6326   0.507   1.396   0.378
 2123TIP3    H2 6327   0.474   1.392   0.526
 2124TIP3   OH2 6328   4.720   4.149   0.420
 2124TIP3    H1 6329   4.686   4.237   0.404
 2124TIP3    H2 6330   4.705   4.133   0.513
 2125TIP3   OH2 6331   6.114   3.021   4.214
 2125TIP3    H1 6332   6.111   2.973   4.131
 2125TIP3    H2 6333   6.188   3.082   4.204
 2126TIP3   OH2 6334   2.627   1.111   2.506
 2126TIP3    H1 6335   2.671   1.172   2.565
 2126TIP3    H2 6336   2.534   1.121   2.528
 2127TIP3   OH2 6337   1.335   6.944   3.352
 2127TIP3    H1 6338   1.313   6.867   3.299
 2127TIP3    H2 6339   1.294   7.017   3.305
 2128TIP3   OH2 6340   3.631   1.653   3.192
 2128TIP3    H1 6341   3.682   1.652   3.273
 2128TIP3    H2 6342   3.572   1.728   3.202
 2129TIP3   OH2 6343   7.813   2.426   3.145
 2129TIP3    H1 6344   7.908   2.432   3.155
 2129TIP3    H2 6345   7.778   2.494   3.203
 2130TIP3   OH2 6346   2.943   3.891   5.399
 2130TIP3    H1 6347   2.855   3.899   5.365
 2130TIP3    H2 6348   2.967   3.799   5.384
 2131TIP3   OH2 6349   1.538   5.045   5.431
 2131TIP3    H1 6350   1.551   5.136   5.406
 2131TIP3    H2 6351   1.624   5.005   5.421
 2132TIP3   OH2 6352   1.417   3.862   1.952
 2132TIP3    H1 6353   1.490   3.835   2.007
 2132TIP3    H2 6354   1.450   3.853   1.862
 2133TIP3   OH2 6355   0.464   4.582   0.002
 2133TIP3    H1 6356   0.408   4.541  -0.063
 2133TIP3    H2 6357   0.425   4.558   0.086
 2134TIP3   OH2 6358   0.592   4.069   3.652
 2134TIP3    H1 6359   0.610   4.028   3.737
 2134TIP3    H2 6360   0.594   4.163   3.670
 2135TIP3   OH2 6361   6.230   2.054   1.457
 2135TIP3    H1 6362   6.161   2.001   1.416
 2135TIP3    H2 6363   6.282   2.087   1.384
 2136TIP3   OH2 6364   1.256   7.545   4.623
 2136TIP3    H1 6365   1.286   7.634   4.639
 2136TIP3    H2 6366   1.163   7.547   4.644
 2137TIP3   OH2 6367   7.977   5.217   1.890
 2137TIP3    H1 6368   7.947   5.275   1.820
 2137TIP3    H2 6369   8.039   5.270   1.939
 2138TIP3   OH2 6370   3.366   1.890   3.617
 2138TIP3    H1 6371   3.410   1.975   3.617
 2138TIP3    H2 6372   3.390   1.851   3.701
 2139TIP3   OH2 6373   4.679   5.448   2.204
 2139TIP3    H1 6374   4.697   5.493   2.122
 2139TIP3    H2 6375   4.628   5.510   2.256
 2140TIP3   OH2 6376   1.562   6.131   3.189
 2140TIP3    H1 6377   1.653   6.103   3.179
 2140TIP3    H2 6378   1.517   6.090   3.115
 2141TIP3   OH2 6379   4.598   7.753   4.125
 2141TIP3    H1 6380   4.638   7.834   4.091
 2141TIP3    H2 6381   4.622   7.751   4.217
 2142TIP3   OH2 6382   3.735   0.141   4.862
 2142TIP3    H1 6383   3.645   0.166   4.884
 2142TIP3    H2 6384   3.787   0.169   4.937
 2143TIP3   OH2 6385   5.192   7.618   6.637
 2143TIP3    H1 6386   5.117   7.635   6.694
 2143TIP3    H2 6387   5.154   7.616   6.549
 2144TIP3   OH2 6388   0.099   3.541   1.406
 2144TIP3    H1 6389   0.120   3.524   1.498
 2144TIP3    H2 6390   0.043   3.619   1.409
 2145TIP3   OH2 6391   6.825   2.546   0.993
 2145TIP3    H1 6392   6.913   2.518   1.017
 2145TIP3    H2 6393   6.769   2.472   1.019
 2146TIP3   OH2 6394   4.496   0.894   5.148
 2146TIP3    H1 6395   4.524   0.802   5.144
 2146TIP3    H2 6396   4.402   0.889   5.166
 2147TIP3   OH2 6397   2.761   0.710   0.152
 2147TIP3    H1 6398   2.800   0.705   0.239
 2147TIP3    H2 6399   2.805   0.785   0.110
 2148TIP3   OH2 6400   4.593   0.345   3.750
 2148TIP3    H1 6401   4.505   0.338   3.787
 2148TIP3    H2 6402   4.582   0.320   3.658
 2149TIP3   OH2 6403   2.663   3.245   3.221
 2149TIP3    H1 6404   2.582   3.260   3.270
 2149TIP3    H2 6405   2.640   3.265   3.130
 2150TIP3   OH2 6406   3.450   4.749   5.911
 2150TIP3    H1 6407   3.405   4.821   5.868
 2150TIP3    H2 6408   3.514   4.719   5.846
 2151TIP3   OH2 6409   4.030   4.910   0.885
 2151TIP3    H1 6410   4.045   4.830   0.835
 2151TIP3    H2 6411   3.944   4.942   0.856
 2152TIP3   OH2 6412   2.686   2.800   5.164
 2152TIP3    H1 6413   2.673   2.830   5.074
 2152TIP3    H2 6414   2.725   2.875   5.210
 2153TIP3   OH2 6415   4.011   7.686   3.439
 2153TIP3    H1 6416   4.050   7.764   3.481
 2153TIP3    H2 6417   4.076   7.660   3.373
 2154TIP3   OH2 6418   6.509   2.875   3.325
 2154TIP3    H1 6419   6.486   2.965   3.303
 2154TIP3    H2 6420   6.471   2.861   3.412
 2155TIP3   OH2 6421   0.519   3.249   0.138
 2155TIP3    H1 6422   0.453   3.195   0.181
 2155TIP3    H2 6423   0.474   3.286   0.062
 2156TIP3   OH2 6424   2.989   7.538   4.744
 2156TIP3    H1 6425   2.969   7.550   4.836
 2156TIP3    H2 6426   2.968   7.446   4.726
 2157TIP3   OH2 6427   6.518   6.152   1.878
 2157TIP3    H1 6428   6.535   6.203   1.958
 2157TIP3    H2 6429   6.445   6.095   1.901
 2158TIP3   OH2 6430   2.060   1.124   3.572
 2158TIP3    H1 6431   1.966   1.141   3.578
 2158TIP3    H2 6432   2.067   1.037   3.534
 2159TIP3   OH2 6433   6.816   7.789   2.640
 2159TIP3    H1 6434   6.833   7.699   2.669
 2159TIP3    H2 6435   6.748   7.780   2.573
 2160TIP3   OH2 6436   3.006   4.150   1.170
 2160TIP3    H1 6437   2.973   4.099   1.244
 2160TIP3    H2 6438   2.928   4.197   1.138
 2161TIP3   OH2 6439   3.898   7.665   3.922
 2161TIP3    H1 6440   3.808   7.669   3.890
 2161TIP3    H2 6441   3.891   7.682   4.016
 2162TIP3   OH2 6442   1.974   1.840   3.818
 2162TIP3    H1 6443   2.003   1.771   3.877
 2162TIP3    H2 6444   1.900   1.801   3.771
 2163TIP3   OH2 6445   7.580   1.900   6.506
 2163TIP3    H1 6446   7.555   1.855   6.586
 2163TIP3    H2 6447   7.676   1.900   6.508
 2164TIP3   OH2 6448   1.125   0.057   3.490
 2164TIP3    H1 6449   1.173   0.121   3.437
 2164TIP3    H2 6450   1.044   0.103   3.515
 2165TIP3   OH2 6451   3.220   4.988   1.864
 2165TIP3    H1 6452   3.308   5.019   1.842
 2165TIP3    H2 6453   3.233   4.897   1.891
 2166TIP3   OH2 6454   0.508   6.426   0.826
 2166TIP3    H1 6455   0.418   6.456   0.812
 2166TIP3    H2 6456   0.560   6.507   0.829
 2167TIP3   OH2 6457   1.115   2.263   1.049
 2167TIP3    H1 6458   1.085   2.238   1.137
 2167TIP3    H2 6459   1.211   2.260   1.055
 2168TIP3   OH2 6460   6.276   7.644   3.414
 2168TIP3    H1 6461   6.258   7.555   3.444
 2168TIP3    H2 6462   6.215   7.658   3.341
 2169TIP3   OH2 6463   7.586   7.380   5.302
 2169TIP3    H1 6464   7.566   7.461   5.349
 2169TIP3    H2 6465   7.618   7.409   5.217
 2170TIP3   OH2 6466   1.635   7.520   3.526
 2170TIP3    H1 6467   1.591   7.605   3.520
 2170TIP3    H2 6468   1.631   7.498   3.619
 2171TIP3   OH2 6469   0.384   2.591   4.099
 2171TIP3    H1 6470   0.372   2.661   4.035
 2171TIP3    H2 6471   0.344   2.514   4.059
 2172TIP3   OH2 6472   7.248   7.500   6.583
 2172TIP3    H1 6473   7.278   7.565   6.647
 2172TIP3    H2 6474   7.210   7.430   6.636
 2173TIP3   OH2 6475   0.301   4.778   2.128
 2173TIP3    H1 6476   0.336   4.720   2.061
 2173TIP3    H2 6477   0.374   4.793   2.187
 2174TIP3   OH2 6478   7.178   0.608   3.756
 2174TIP3    H1 6479   7.225   0.691   3.751
 2174TIP3    H2 6480   7.246   0.542   3.769
 2175TIP3   OH2 6481   5.970   5.968   2.466
 2175TIP3    H1 6482   5.918   5.905   2.417
 2175TIP3    H2 6483   5.957   6.051   2.421
 2176TIP3   OH2 6484   6.396   5.662   5.756
 2176TIP3    H1 6485   6.405   5.578   5.712
 2176TIP3    H2 6486   6.485   5.698   5.757
 2177TIP3   OH2 6487   2.446   6.463   0.708
 2177TIP3    H1 6488   2.360   6.505   0.700
 2177TIP3    H2 6489   2.483   6.467   0.620
 2178TIP3   OH2 6490   0.585   3.674   5.900
 2178TIP3    H1 6491   0.648   3.602   5.903
 2178TIP3    H2 6492   0.608   3.722   5.821
 2179TIP3   OH2 6493   1.157   5.626   2.775
 2179TIP3    H1 6494   1.081   5.617   2.717
 2179TIP3    H2 6495   1.210   5.694   2.734
 2180TIP3   OH2 6496   3.287   7.006   0.570
 2180TIP3    H1 6497   3.231   7.020   0.646
 2180TIP3    H2 6498   3.376   7.017   0.603
 2181TIP3   OH2 6499   5.487   0.545   0.051
 2181TIP3    H1 6500   5.495   0.528   0.144
 2181TIP3    H2 6501   5.558   0.494   0.011
 2182TIP3   OH2 6502   5.617   0.097   5.878
 2182TIP3    H1 6503   5.535   0.048   5.882
 2182TIP3    H2 6504   5.637   0.102   5.785
 2183TIP3   OH2 6505   1.775   4.924   2.164
 2183TIP3    H1 6506   1.798   4.943   2.255
 2183TIP3    H2 6507   1.787   4.829   2.156
 2184TIP3   OH2 6508   4.316   6.761   5.722
 2184TIP3    H1 6509   4.234   6.759   5.673
 2184TIP3    H2 6510   4.342   6.669   5.728
 2185TIP3   OH2 6511   7.200   1.484   6.626
 2185TIP3    H1 6512   7.279   1.480   6.573
 2185TIP3    H2 6513   7.228   1.449   6.711
 2186TIP3   OH2 6514   1.004   0.662   2.808
 2186TIP3    H1 6515   1.023   0.568   2.811
 2186TIP3    H2 6516   1.072   0.697   2.750
 2187TIP3   OH2 6517   7.072   4.285   0.446
 2187TIP3    H1 6518   7.030   4.199   0.445
 2187TIP3    H2 6519   6.999   4.347   0.454
 2188TIP3   OH2 6520   1.586   5.596   3.655
 2188TIP3    H1 6521   1.612   5.615   3.745
 2188TIP3    H2 6522   1.613   5.506   3.641
 2189TIP3   OH2 6523   3.324   6.878   1.442
 2189TIP3    H1 6524   3.238   6.920   1.450
 2189TIP3    H2 6525   3.344   6.848   1.531
 2190TIP3   OH2 6526   0.894   4.453   2.095
 2190TIP3    H1 6527   0.808   4.451   2.136
 2190TIP3    H2 6528   0.894   4.533   2.043
 2191TIP3   OH2 6529   3.561   7.131   6.213
 2191TIP3    H1 6530   3.627   7.149   6.279
 2191TIP3    H2 6531   3.543   7.037   6.221
 2192TIP3   OH2 6532   0.990   1.036   3.982
 2192TIP3    H1 6533   0.921   1.020   4.047
 2192TIP3    H2 6534   1.048   0.960   3.990
 2193TIP3   OH2 6535   6.659   3.731   5.428
 2193TIP3    H1 6536   6.733   3.684   5.466
 2193TIP3    H2 6537   6.646   3.805   5.487
 2194TIP3   OH2 6538   4.148   5.517   4.361
 2194TIP3    H1 6539   4.151   5.502   4.456
 2194TIP3    H2 6540   4.194   5.600   4.348
 2195TIP3   OH2 6541   2.911   7.146   4.935
 2195TIP3    H1 6542   2.827   7.167   4.893
 2195TIP3    H2 6543   2.965   7.111   4.864
 2196TIP3   OH2 6544   2.442   1.417   3.032
 2196TIP3    H1 6545   2.361   1.432   2.983
 2196TIP3    H2 6546   2.416   1.425   3.124
 2197TIP3   OH2 6547  -0.002   5.958   4.527
 2197TIP3    H1 6548  -0.078   6.011   4.551
 2197TIP3    H2 6549   0.005   5.893   4.596
 2198TIP3   OH2 6550   2.864   2.231   1.330
 2198TIP3    H1 6551   2.928   2.301   1.343
 2198TIP3    H2 6552   2.797   2.246   1.397
 2199TIP3   OH2 6553   7.384   6.780   5.861
 2199TIP3    H1 6554   7.331   6.723   5.915
 2199TIP3    H2 6555   7.325   6.851   5.835
 2200TIP3   OH2 6556   5.765   1.039   5.962
 2200TIP3    H1 6557   5.848   1.085   5.975
 2200TIP3    H2 6558   5.789   0.946   5.960
 2201TIP3   OH2 6559   6.276   1.159   4.730
 2201TIP3    H1 6560   6.370   1.161   4.710
 2201TIP3    H2 6561   6.262   1.073   4.771
 2202TIP3   OH2 6562   2.717   2.058   3.536
 2202TIP3    H1 6563   2.762   2.141   3.550
 2202TIP3    H2 6564   2.684   2.034   3.622
 2203TIP3   OH2 6565   2.260   4.471   2.298
 2203TIP3    H1 6566   2.167   4.449   2.299
 2203TIP3    H2 6567   2.271   4.531   2.372
 2204TIP3   OH2 6568   2.054   3.196   1.119
 2204TIP3    H1 6569   2.131   3.152   1.084
 2204TIP3    H2 6570   1.989   3.190   1.049
 2205TIP3   OH2 6571   0.654   2.206   5.390
 2205TIP3    H1 6572   0.666   2.267   5.317
 2205TIP3    H2 6573   0.738   2.161   5.397
 2206TIP3   OH2 6574   2.127   1.100   0.480
 2206TIP3    H1 6575   2.101   1.061   0.564
 2206TIP3    H2 6576   2.057   1.162   0.461
 2207TIP3   OH2 6577   7.568   1.431   4.251
 2207TIP3    H1 6578   7.540   1.356   4.304
 2207TIP3    H2 6579   7.632   1.476   4.307
 2208TIP3   OH2 6580   7.305   3.082   1.565
 2208TIP3    H1 6581   7.235   3.087   1.630
 2208TIP3    H2 6582   7.386   3.084   1.616
 2209TIP3   OH2 6583   7.224   6.254   5.856
 2209TIP3    H1 6584   7.305   6.234   5.902
 2209TIP3    H2 6585   7.203   6.344   5.883
 2210TIP3   OH2 6586   0.439   2.412   4.554
 2210TIP3    H1 6587   0.361   2.361   4.531
 2210TIP3    H2 6588   0.483   2.426   4.470
 2211TIP3   OH2 6589   3.171   4.994   6.607
 2211TIP3    H1 6590   3.139   4.907   6.631
 2211TIP3    H2 6591   3.132   5.011   6.521
 2212TIP3   OH2 6592   0.584   5.023   0.094
 2212TIP3    H1 6593   0.534   4.962   0.149
 2212TIP3    H2 6594   0.635   4.967   0.036
 2213TIP3   OH2 6595   6.265   0.466   2.655
 2213TIP3    H1 6596   6.214   0.440   2.578
 2213TIP3    H2 6597   6.313   0.386   2.680
 2214TIP3   OH2 6598   4.620   2.141   3.285
 2214TIP3    H1 6599   4.561   2.066   3.295
 2214TIP3    H2 6600   4.602   2.175   3.198
 2215TIP3   OH2 6601   0.380   3.700   0.200
 2215TIP3    H1 6602   0.389   3.773   0.138
 2215TIP3    H2 6603   0.326   3.636   0.154
 2216TIP3   OH2 6604   4.639   7.782   4.942
 2216TIP3    H1 6605   4.644   7.737   5.026
 2216TIP3    H2 6606   4.723   7.827   4.935
 2217TIP3   OH2 6607   3.465   3.325   4.846
 2217TIP3    H1 6608   3.425   3.341   4.761
 2217TIP3    H2 6609   3.455   3.231   4.860
 2218TIP3   OH2 6610   8.068   3.132   5.897
 2218TIP3    H1 6611   7.987   3.178   5.921
 2218TIP3    H2 6612   8.087   3.076   5.972
 2219TIP3   OH2 6613   6.525   1.363   3.756
 2219TIP3    H1 6614   6.474   1.395   3.830
 2219TIP3    H2 6615   6.482   1.281   3.730
 2220TIP3   OH2 6616   6.180   0.027   5.558
 2220TIP3    H1 6617   6.141   0.028   5.646
 2220TIP3    H2 6618   6.221   0.113   5.549
 2221TIP3   OH2 6619   0.618   7.535   1.119
 2221TIP3    H1 6620   0.623   7.617   1.168
 2221TIP3    H2 6621   0.672   7.474   1.170
 2222TIP3   OH2 6622   4.524   2.996   5.446
 2222TIP3    H1 6623   4.473   3.016   5.525
 2222TIP3    H2 6624   4.490   3.056   5.380
 2223TIP3   OH2 6625   5.944   3.474   1.399
 2223TIP3    H1 6626   5.859   3.513   1.417
 2223TIP3    H2 6627   5.992   3.542   1.351
 2224TIP3   OH2 6628   1.682   4.628   2.524
 2224TIP3    H1 6629   1.666   4.596   2.435
 2224TIP3    H2 6630   1.628   4.707   2.532
 2225TIP3   OH2 6631   7.860   1.791   3.261
 2225TIP3    H1 6632   7.794   1.857   3.239
 2225TIP3    H2 6633   7.809   1.715   3.290
 2226TIP3   OH2 6634   4.489   1.225   2.417
 2226TIP3    H1 6635   4.532   1.311   2.410
 2226TIP3    H2 6636   4.456   1.222   2.507
 2227TIP3   OH2 6637   5.507   3.335   1.814
 2227TIP3    H1 6638   5.495   3.352   1.907
 2227TIP3    H2 6639   5.591   3.377   1.792
 2228TIP3   OH2 6640   4.801   0.498   2.635
 2228TIP3    H1 6641   4.736   0.561   2.603
 2228TIP3    H2 6642   4.749   0.422   2.662
 2229TIP3   OH2 6643   7.115   0.852   5.291
 2229TIP3    H1 6644   7.037   0.899   5.262
 2229TIP3    H2 6645   7.173   0.854   5.215
 2230TIP3   OH2 6646   1.113   1.395   0.264
 2230TIP3    H1 6647   1.062   1.334   0.210
 2230TIP3    H2 6648   1.054   1.468   0.281
 2231TIP3   OH2 6649   6.588   4.636   4.449
 2231TIP3    H1 6650   6.533   4.705   4.485
 2231TIP3    H2 6651   6.548   4.555   4.481
 2232TIP3   OH2 6652   1.847   0.394   3.303
 2232TIP3    H1 6653   1.893   0.429   3.379
 2232TIP3    H2 6654   1.755   0.389   3.330
 2233TIP3   OH2 6655   0.478   0.495   4.494
 2233TIP3    H1 6656   0.386   0.477   4.473
 2233TIP3    H2 6657   0.526   0.424   4.453
 2234TIP3   OH2 6658   0.559   1.044   4.089
 2234TIP3    H1 6659   0.561   1.108   4.160
 2234TIP3    H2 6660   0.590   0.963   4.129
 2235TIP3   OH2 6661   6.356   6.942   6.057
 2235TIP3    H1 6662   6.446   6.971   6.074
 2235TIP3    H2 6663   6.345   6.866   6.113
 2236TIP3   OH2 6664   2.048   5.466   1.411
 2236TIP3    H1 6665   1.956   5.478   1.388
 2236TIP3    H2 6666   2.060   5.517   1.491
 2237TIP3   OH2 6667   7.712   1.120   2.979
 2237TIP3    H1 6668   7.717   1.051   2.914
 2237TIP3    H2 6669   7.785   1.103   3.039
 2238TIP3   OH2 6670   6.889   6.152   2.240
 2238TIP3    H1 6671   6.819   6.132   2.302
 2238TIP3    H2 6672   6.857   6.117   2.156
 2239TIP3   OH2 6673   3.008   6.489   1.196
 2239TIP3    H1 6674   2.930   6.470   1.249
 2239TIP3    H2 6675   3.045   6.568   1.235
 2240TIP3   OH2 6676   3.804   5.536   4.005
 2240TIP3    H1 6677   3.753   5.456   4.019
 2240TIP3    H2 6678   3.882   5.524   4.058
 2241TIP3   OH2 6679   0.387   0.164   1.040
 2241TIP3    H1 6680   0.478   0.189   1.030
 2241TIP3    H2 6681   0.338   0.232   0.991
 2242TIP3   OH2 6682   4.348   3.582   5.210
 2242TIP3    H1 6683   4.427   3.560   5.160
 2242TIP3    H2 6684   4.294   3.503   5.206
 2243TIP3   OH2 6685   5.676   4.515   2.517
 2243TIP3    H1 6686   5.605   4.451   2.527
 2243TIP3    H2 6687   5.660   4.554   2.431
 2244TIP3   OH2 6688   1.952   1.636   3.566
 2244TIP3    H1 6689   1.896   1.681   3.629
 2244TIP3    H2 6690   1.899   1.562   3.535
 2245TIP3   OH2 6691   5.653   1.184   5.039
 2245TIP3    H1 6692   5.564   1.171   5.006
 2245TIP3    H2 6693   5.700   1.226   4.967
 2246TIP3   OH2 6694   1.531   1.715   5.463
 2246TIP3    H1 6695   1.532   1.749   5.553
 2246TIP3    H2 6696   1.472   1.641   5.467
 2247TIP3   OH2 6697   5.749   5.507   6.521
 2247TIP3    H1 6698   5.719   5.531   6.433
 2247TIP3    H2 6699   5.671   5.476   6.565
 2248TIP3   OH2 6700   2.547   3.120   2.783
 2248TIP3    H1 6701   2.581   3.066   2.712
 2248TIP3    H2 6702   2.456   3.137   2.759
 2249TIP3   OH2 6703   0.608   3.111   0.572
 2249TIP3    H1 6704   0.625   3.122   0.665
 2249TIP3    H2 6705   0.633   3.021   0.553
 2250TIP3   OH2 6706   0.986   3.984   6.505
 2250TIP3    H1 6707   1.061   4.030   6.467
 2250TIP3    H2 6708   0.945   4.049   6.562
 2251TIP3   OH2 6709   0.728   2.918   4.850
 2251TIP3    H1 6710   0.750   2.887   4.938
 2251TIP3    H2 6711   0.633   2.909   4.844
 2252TIP3   OH2 6712   0.393   3.698   1.931
 2252TIP3    H1 6713   0.448   3.673   2.004
 2252TIP3    H2 6714   0.343   3.618   1.910
 2253TIP3   OH2 6715   0.578   3.994   1.068
 2253TIP3    H1 6716   0.587   4.017   1.161
 2253TIP3    H2 6717   0.542   3.905   1.069
 2254TIP3   OH2 6718   8.196   7.294   1.003
 2254TIP3    H1 6719   8.245   7.375   0.991
 2254TIP3    H2 6720   8.228   7.236   0.934
 2255TIP3   OH2 6721   5.826   2.318   2.669
 2255TIP3    H1 6722   5.814   2.410   2.695
 2255TIP3    H2 6723   5.877   2.322   2.588
 2256TIP3   OH2 6724   7.485   1.471   6.014
 2256TIP3    H1 6725   7.448   1.462   5.926
 2256TIP3    H2 6726   7.426   1.422   6.070
 2257TIP3   OH2 6727   0.781   1.660   1.668
 2257TIP3    H1 6728   0.846   1.728   1.647
 2257TIP3    H2 6729   0.833   1.583   1.691
 2258TIP3   OH2 6730   5.534   1.129   6.629
 2258TIP3    H1 6731   5.533   1.071   6.705
 2258TIP3    H2 6732   5.474   1.088   6.567
 2259TIP3   OH2 6733   4.778   4.329   6.144
 2259TIP3    H1 6734   4.696   4.289   6.114
 2259TIP3    H2 6735   4.846   4.275   6.104
 2260TIP3   OH2 6736   7.280   1.957   0.287
 2260TIP3    H1 6737   7.351   2.004   0.330
 2260TIP3    H2 6738   7.200   2.001   0.316
 2261TIP3   OH2 6739   0.717   1.582   3.559
 2261TIP3    H1 6740   0.776   1.611   3.629
 2261TIP3    H2 6741   0.630   1.604   3.591
 2262TIP3   OH2 6742   8.059   0.894   1.789
 2262TIP3    H1 6743   8.056   0.986   1.816
 2262TIP3    H2 6744   8.125   0.893   1.719
 2263TIP3   OH2 6745   5.949   4.432   4.522
 2263TIP3    H1 6746   5.982   4.384   4.599
 2263TIP3    H2 6747   5.954   4.368   4.451
 2264TIP3   OH2 6748   4.629   6.155   2.993
 2264TIP3    H1 6749   4.596   6.238   2.957
 2264TIP3    H2 6750   4.564   6.090   2.966
 2265TIP3   OH2 6751   5.621   6.012   3.041
 2265TIP3    H1 6752   5.670   5.959   2.979
 2265TIP3    H2 6753   5.687   6.047   3.101
 2266TIP3   OH2 6754   1.028   4.966   1.742
 2266TIP3    H1 6755   0.948   4.941   1.697
 2266TIP3    H2 6756   1.065   4.883   1.773
 2267TIP3   OH2 6757   8.006   7.670   0.124
 2267TIP3    H1 6758   7.937   7.622   0.078
 2267TIP3    H2 6759   7.960   7.744   0.164
 2268TIP3   OH2 6760   6.340   6.331   3.453
 2268TIP3    H1 6761   6.384   6.273   3.391
 2268TIP3    H2 6762   6.286   6.273   3.507
 2269TIP3   OH2 6763   5.672   0.757   2.367
 2269TIP3    H1 6764   5.694   0.767   2.274
 2269TIP3    H2 6765   5.580   0.732   2.367
 2270TIP3   OH2 6766   6.903   4.515   2.944
 2270TIP3    H1 6767   6.951   4.536   3.024
 2270TIP3    H2 6768   6.939   4.431   2.916
 2271TIP3   OH2 6769   0.378   0.497   2.161
 2271TIP3    H1 6770   0.337   0.571   2.118
 2271TIP3    H2 6771   0.338   0.494   2.248
 2272TIP3   OH2 6772   5.690   6.986   2.818
 2272TIP3    H1 6773   5.685   6.907   2.872
 2272TIP3    H2 6774   5.652   7.055   2.872
 2273TIP3   OH2 6775   5.601   0.978   4.360
 2273TIP3    H1 6776   5.555   1.056   4.328
 2273TIP3    H2 6777   5.531   0.917   4.385
 2274TIP3   OH2 6778   0.672   3.058   1.402
 2274TIP3    H1 6779   0.765   3.041   1.387
 2274TIP3    H2 6780   0.656   3.142   1.360
 2275TIP3   OH2 6781   3.810   1.060   2.549
 2275TIP3    H1 6782   3.836   1.091   2.462
 2275TIP3    H2 6783   3.783   1.140   2.595
 2276TIP3   OH2 6784   3.136   3.617   0.103
 2276TIP3    H1 6785   3.181   3.693   0.140
 2276TIP3    H2 6786   3.203   3.549   0.099
 2277TIP3   OH2 6787   1.429   7.276   2.476
 2277TIP3    H1 6788   1.467   7.206   2.529
 2277TIP3    H2 6789   1.353   7.236   2.433
 2278TIP3   OH2 6790   4.281   6.165   6.495
 2278TIP3    H1 6791   4.230   6.243   6.472
 2278TIP3    H2 6792   4.252   6.143   6.584
 2279TIP3   OH2 6793   1.224   5.515   4.817
 2279TIP3    H1 6794   1.267   5.447   4.868
 2279TIP3    H2 6795   1.147   5.472   4.779
 2280TIP3   OH2 6796   1.122   3.557   5.431
 2280TIP3    H1 6797   1.104   3.579   5.522
 2280TIP3    H2 6798   1.217   3.563   5.423
 2281TIP3   OH2 6799   4.480   6.048   4.591
 2281TIP3    H1 6800   4.413   5.980   4.580
 2281TIP3    H2 6801   4.505   6.042   4.683
 2282TIP3   OH2 6802   3.065   5.651   2.083
 2282TIP3    H1 6803   2.990   5.680   2.134
 2282TIP3    H2 6804   3.078   5.719   2.017
 2283TIP3   OH2 6805   0.104   4.310   0.960
 2283TIP3    H1 6806   0.085   4.225   0.921
 2283TIP3    H2 6807   0.018   4.348   0.977
 2284TIP3   OH2 6808   4.339   0.711   2.417
 2284TIP3    H1 6809   4.267   0.665   2.375
 2284TIP3    H2 6810   4.296   0.774   2.475
 2285TIP3   OH2 6811   6.367   2.788   4.184
 2285TIP3    H1 6812   6.394   2.704   4.222
 2285TIP3    H2 6813   6.275   2.775   4.161
 2286TIP3   OH2 6814   5.041   2.743   3.695
 2286TIP3    H1 6815   5.037   2.798   3.617
 2286TIP3    H2 6816   5.019   2.655   3.664
 2287TIP3   OH2 6817   1.224   1.220   6.328
 2287TIP3    H1 6818   1.130   1.204   6.318
 2287TIP3    H2 6819   1.266   1.159   6.267
 2288TIP3   OH2 6820   6.755   1.859   3.420
 2288TIP3    H1 6821   6.709   1.855   3.504
 2288TIP3    H2 6822   6.807   1.778   3.418
 2289TIP3   OH2 6823   1.620   0.961   6.707
 2289TIP3    H1 6824   1.566   0.921   6.639
 2289TIP3    H2 6825   1.702   0.983   6.663
 2290TIP3   OH2 6826   2.826   6.893   0.451
 2290TIP3    H1 6827   2.827   6.888   0.547
 2290TIP3    H2 6828   2.885   6.965   0.429
 2291TIP3   OH2 6829   6.157   2.285   1.638
 2291TIP3    H1 6830   6.222   2.218   1.659
 2291TIP3    H2 6831   6.089   2.239   1.589
 2292TIP3   OH2 6832   4.557   7.307   1.594
 2292TIP3    H1 6833   4.573   7.401   1.587
 2292TIP3    H2 6834   4.498   7.297   1.668
 2293TIP3   OH2 6835   2.668   6.477   5.164
 2293TIP3    H1 6836   2.650   6.398   5.215
 2293TIP3    H2 6837   2.712   6.535   5.226
 2294TIP3   OH2 6838   2.243   7.099   1.692
 2294TIP3    H1 6839   2.307   7.114   1.761
 2294TIP3    H2 6840   2.180   7.171   1.701
 2295TIP3   OH2 6841   0.907   6.749   4.402
 2295TIP3    H1 6842   0.862   6.699   4.470
 2295TIP3    H2 6843   0.926   6.686   4.333
 2296TIP3   OH2 6844   2.293   7.561   5.610
 2296TIP3    H1 6845   2.305   7.549   5.704
 2296TIP3    H2 6846   2.341   7.490   5.570
 2297TIP3   OH2 6847   1.501   7.104   4.529
 2297TIP3    H1 6848   1.429   7.092   4.591
 2297TIP3    H2 6849   1.492   7.194   4.498
 2298TIP3   OH2 6850   2.967   1.484   6.773
 2298TIP3    H1 6851   3.012   1.401   6.758
 2298TIP3    H2 6852   2.956   1.490   6.868
 2299TIP3   OH2 6853   7.717   7.467   0.468
 2299TIP3    H1 6854   7.664   7.507   0.399
 2299TIP3    H2 6855   7.730   7.537   0.533
 2300TIP3   OH2 6856   6.512   5.958   0.202
 2300TIP3    H1 6857   6.508   6.052   0.216
 2300TIP3    H2 6858   6.507   5.947   0.107
 2301TIP3   OH2 6859   4.040   4.291   6.512
 2301TIP3    H1 6860   3.955   4.258   6.481
 2301TIP3    H2 6861   4.051   4.374   6.465
 2302TIP3   OH2 6862   3.895   3.198   3.883
 2302TIP3    H1 6863   3.953   3.153   3.822
 2302TIP3    H2 6864   3.892   3.288   3.851
 2303TIP3   OH2 6865   2.573   4.846   5.289
 2303TIP3    H1 6866   2.584   4.937   5.260
 2303TIP3    H2 6867   2.577   4.851   5.385
 2304TIP3   OH2 6868   5.277   1.484   5.289
 2304TIP3    H1 6869   5.247   1.552   5.348
 2304TIP3    H2 6870   5.267   1.403   5.338
 2305TIP3   OH2 6871   0.175   5.284   6.254
 2305TIP3    H1 6872   0.201   5.323   6.337
 2305TIP3    H2 6873   0.124   5.352   6.210
 2306TIP3   OH2 6874   7.648   1.409   0.094
 2306TIP3    H1 6875   7.623   1.479   0.155
 2306TIP3    H2 6876   7.609   1.435   0.011
 2307TIP3   OH2 6877   5.345   2.131   4.271
 2307TIP3    H1 6878   5.384   2.096   4.191
 2307TIP3    H2 6879   5.251   2.127   4.255
 2308TIP3   OH2 6880   8.171   1.407   4.674
 2308TIP3    H1 6881   8.138   1.384   4.588
 2308TIP3    H2 6882   8.093   1.425   4.726
 2309TIP3   OH2 6883   2.030   1.631   4.011
 2309TIP3    H1 6884   1.972   1.568   3.967
 2309TIP3    H2 6885   2.068   1.582   4.084
 2310TIP3   OH2 6886   4.397   3.204   1.834
 2310TIP3    H1 6887   4.319   3.154   1.809
 2310TIP3    H2 6888   4.369   3.257   1.908
 2311TIP3   OH2 6889   6.917   0.929   5.892
 2311TIP3    H1 6890   6.986   0.906   5.831
 2311TIP3    H2 6891   6.928   0.869   5.966
 2312TIP3   OH2 6892   1.430   5.247   0.537
 2312TIP3    H1 6893   1.365   5.292   0.483
 2312TIP3    H2 6894   1.391   5.244   0.625
 2313TIP3   OH2 6895   7.781   4.521   6.303
 2313TIP3    H1 6896   7.841   4.554   6.369
 2313TIP3    H2 6897   7.696   4.558   6.327
 2314TIP3   OH2 6898   1.799   4.895   6.610
 2314TIP3    H1 6899   1.742   4.935   6.544
 2314TIP3    H2 6900   1.882   4.942   6.602
 2315TIP3   OH2 6901   8.167   0.113   0.397
 2315TIP3    H1 6902   8.076   0.130   0.424
 2315TIP3    H2 6903   8.159   0.070   0.312
 2316TIP3   OH2 6904   5.512   4.641   5.933
 2316TIP3    H1 6905   5.421   4.624   5.911
 2316TIP3    H2 6906   5.558   4.642   5.849
 2317TIP3   OH2 6907   2.449   5.344   6.618
 2317TIP3    H1 6908   2.462   5.295   6.699
 2317TIP3    H2 6909   2.401   5.283   6.561
 2318TIP3   OH2 6910   4.854   7.677   5.740
 2318TIP3    H1 6911   4.762   7.666   5.714
 2318TIP3    H2 6912   4.893   7.727   5.668
 2319TIP3   OH2 6913   6.941   1.702   0.884
 2319TIP3    H1 6914   6.898   1.784   0.908
 2319TIP3    H2 6915   6.923   1.692   0.791
 2320TIP3   OH2 6916   8.142   3.866   5.142
 2320TIP3    H1 6917   8.107   3.927   5.206
 2320TIP3    H2 6918   8.193   3.921   5.082
 2321TIP3   OH2 6919   2.300   2.540   5.687
 2321TIP3    H1 6920   2.350   2.525   5.607
 2321TIP3    H2 6921   2.361   2.585   5.745
 2322TIP3   OH2 6922   4.695   2.837   3.123
 2322TIP3    H1 6923   4.785   2.867   3.131
 2322TIP3    H2 6924   4.646   2.916   3.098
 2323TIP3   OH2 6925   3.095   6.202   2.951
 2323TIP3    H1 6926   3.168   6.265   2.954
 2323TIP3    H2 6927   3.024   6.248   2.996
 2324TIP3   OH2 6928   6.834   1.609   0.256
 2324TIP3    H1 6929   6.829   1.698   0.292
 2324TIP3    H2 6930   6.808   1.552   0.328
 2325TIP3   OH2 6931   0.760   3.204   4.579
 2325TIP3    H1 6932   0.699   3.143   4.537
 2325TIP3    H2 6933   0.762   3.279   4.520
 2326TIP3   OH2 6934   6.435   7.455   0.084
 2326TIP3    H1 6935   6.503   7.517   0.057
 2326TIP3    H2 6936   6.354   7.492   0.050
 2327TIP3   OH2 6937   1.451   1.003   1.923
 2327TIP3    H1 6938   1.543   1.025   1.933
 2327TIP3    H2 6939   1.448   0.907   1.929
 2328TIP3   OH2 6940   0.860   2.442   6.085
 2328TIP3    H1 6941   0.900   2.436   5.998
 2328TIP3    H2 6942   0.781   2.494   6.072
 2329TIP3   OH2 6943   5.016   4.598   6.147
 2329TIP3    H1 6944   5.067   4.658   6.201
 2329TIP3    H2 6945   4.926   4.606   6.181
 2330TIP3   OH2 6946   7.987   1.238   4.539
 2330TIP3    H1 6947   8.019   1.274   4.456
 2330TIP3    H2 6948   7.898   1.207   4.520
 2331TIP3   OH2 6949   0.663   3.451   4.894
 2331TIP3    H1 6950   0.667   3.366   4.938
 2331TIP3    H2 6951   0.679   3.515   4.963
 2332TIP3   OH2 6952   1.825   5.190   2.123
 2332TIP3    H1 6953   1.731   5.200   2.108
 2332TIP3    H2 6954   1.837   5.097   2.140
 2333TIP3   OH2 6955   5.340   4.242   4.380
 2333TIP3    H1 6956   5.267   4.269   4.435
 2333TIP3    H2 6957   5.418   4.259   4.433
 2334TIP3   OH2 6958   3.702   2.366   3.008
 2334TIP3    H1 6959   3.672   2.294   3.063
 2334TIP3    H2 6960   3.797   2.358   3.007
 2335TIP3   OH2 6961   8.022   4.022   3.721
 2335TIP3    H1 6962   8.046   4.023   3.814
 2335TIP3    H2 6963   8.081   4.086   3.681
 2336TIP3   OH2 6964   3.422   6.824   5.023
 2336TIP3    H1 6965   3.377   6.739   5.025
 2336TIP3    H2 6966   3.384   6.868   4.946
 2337TIP3   OH2 6967   2.883   5.328   1.232
 2337TIP3    H1 6968   2.834   5.255   1.194
 2337TIP3    H2 6969   2.929   5.367   1.158
 2338TIP3   OH2 6970   0.306   4.589   0.829
 2338TIP3    H1 6971   0.332   4.501   0.803
 2338TIP3    H2 6972   0.371   4.647   0.789
 2339TIP3   OH2 6973   4.251   6.510   2.416
 2339TIP3    H1 6974   4.347   6.512   2.417
 2339TIP3    H2 6975   4.229   6.417   2.422
 2340TIP3   OH2 6976   5.982   5.632   6.449
 2340TIP3    H1 6977   6.007   5.612   6.359
 2340TIP3    H2 6978   5.896   5.591   6.460
 2341TIP3   OH2 6979   4.954   7.696   1.460
 2341TIP3    H1 6980   4.894   7.647   1.404
 2341TIP3    H2 6981   5.034   7.703   1.408
 2342TIP3   OH2 6982   3.116   2.131   4.006
 2342TIP3    H1 6983   3.211   2.122   4.018
 2342TIP3    H2 6984   3.102   2.225   4.000
 2343TIP3   OH2 6985   7.397   6.034   2.556
 2343TIP3    H1 6986   7.368   6.123   2.537
 2343TIP3    H2 6987   7.341   5.978   2.502
 2344TIP3   OH2 6988   0.422   4.963   3.412
 2344TIP3    H1 6989   0.517   4.955   3.417
 2344TIP3    H2 6990   0.407   5.028   3.342
 2345TIP3   OH2 6991   4.144   4.602   3.461
 2345TIP3    H1 6992   4.150   4.510   3.433
 2345TIP3    H2 6993   4.233   4.635   3.450
 2346TIP3   OH2 6994   5.674   6.262   4.780
 2346TIP3    H1 6995   5.604   6.308   4.734
 2346TIP3    H2 6996   5.755   6.299   4.743
 2347TIP3   OH2 6997   3.833   4.444   6.220
 2347TIP3    H1 6998   3.846   4.440   6.126
 2347TIP3    H2 6999   3.777   4.370   6.240
 2348TIP3   OH2 7000   7.515   7.100   4.933
 2348TIP3    H1 7001   7.520   7.195   4.929
 2348TIP3    H2 7002   7.462   7.081   5.010
 2349TIP3   OH2 7003   1.981   3.816   2.344
 2349TIP3    H1 7004   2.001   3.759   2.418
 2349TIP3    H2 7005   2.063   3.863   2.327
 2350TIP3   OH2 7006   6.261   1.694   5.101
 2350TIP3    H1 7007   6.189   1.758   5.102
 2350TIP3    H2 7008   6.330   1.737   5.049
 2351TIP3   OH2 7009   2.272   7.694   2.672
 2351TIP3    H1 7010   2.334   7.641   2.622
 2351TIP3    H2 7011   2.309   7.782   2.671
 2352TIP3   OH2 7012   0.489   6.869   4.173
 2352TIP3    H1 7013   0.573   6.845   4.211
 2352TIP3    H2 7014   0.480   6.963   4.192
 2353TIP3   OH2 7015   4.013   3.655   2.354
 2353TIP3    H1 7016   3.966   3.625   2.432
 2353TIP3    H2 7017   4.030   3.748   2.370
 2354TIP3   OH2 7018   6.553   4.883   5.407
 2354TIP3    H1 7019   6.462   4.857   5.392
 2354TIP3    H2 7020   6.550   4.935   5.488
 2355TIP3   OH2 7021   3.167   6.687   1.329
 2355TIP3    H1 7022   3.245   6.734   1.358
 2355TIP3    H2 7023   3.122   6.664   1.411
 2356TIP3   OH2 7024   6.218   4.433   4.388
 2356TIP3    H1 7025   6.296   4.422   4.443
 2356TIP3    H2 7026   6.229   4.369   4.318
 2357TIP3   OH2 7027   7.727   0.454   5.346
 2357TIP3    H1 7028   7.748   0.512   5.419
 2357TIP3    H2 7029   7.653   0.402   5.376
 2358TIP3   OH2 7030   0.705   0.395   1.572
 2358TIP3    H1 7031   0.775   0.423   1.512
 2358TIP3    H2 7032   0.736   0.313   1.608
 2359TIP3   OH2 7033   4.943   5.043   2.078
 2359TIP3    H1 7034   4.975   4.964   2.035
 2359TIP3    H2 7035   4.933   5.107   2.007
 2360TIP3   OH2 7036   0.632   4.936   4.144
 2360TIP3    H1 7037   0.618   4.843   4.161
 2360TIP3    H2 7038   0.670   4.970   4.225
 2361TIP3   OH2 7039   0.324   0.403   6.570
 2361TIP3    H1 7040   0.350   0.364   6.487
 2361TIP3    H2 7041   0.402   0.450   6.600
 2362TIP3   OH2 7042   1.190   3.940   3.335
 2362TIP3    H1 7043   1.122   3.880   3.306
 2362TIP3    H2 7044   1.170   3.957   3.427
 2363TIP3   OH2 7045   1.399   6.601   5.637
 2363TIP3    H1 7046   1.401   6.681   5.689
 2363TIP3    H2 7047   1.488   6.592   5.603
 2364TIP3   OH2 7048   7.151   0.254   1.311
 2364TIP3    H1 7049   7.098   0.310   1.368
 2364TIP3    H2 7050   7.105   0.257   1.226
 2365TIP3   OH2 7051   8.113   6.325   1.969
 2365TIP3    H1 7052   8.086   6.260   2.033
 2365TIP3    H2 7053   8.131   6.275   1.889
 2366TIP3   OH2 7054   3.220   6.539   2.854
 2366TIP3    H1 7055   3.191   6.522   2.764
 2366TIP3    H2 7056   3.140   6.538   2.906
 2367TIP3   OH2 7057   3.180   5.603   3.546
 2367TIP3    H1 7058   3.242   5.607   3.474
 2367TIP3    H2 7059   3.206   5.526   3.596
 2368TIP3   OH2 7060   4.185   5.924   6.579
 2368TIP3    H1 7061   4.262   5.871   6.598
 2368TIP3    H2 7062   4.207   5.967   6.496
 2369TIP3   OH2 7063   1.895   5.635   5.423
 2369TIP3    H1 7064   1.844   5.579   5.366
 2369TIP3    H2 7065   1.931   5.703   5.365
 2370TIP3   OH2 7066   3.310   6.785   5.285
 2370TIP3    H1 7067   3.348   6.846   5.222
 2370TIP3    H2 7068   3.231   6.830   5.317
 2371TIP3   OH2 7069   1.166   5.406   1.404
 2371TIP3    H1 7070   1.120   5.388   1.486
 2371TIP3    H2 7071   1.232   5.472   1.427
 2372TIP3   OH2 7072   4.955   5.046   5.500
 2372TIP3    H1 7073   4.868   5.072   5.473
 2372TIP3    H2 7074   4.963   5.078   5.590
 2373TIP3   OH2 7075   2.221   5.516   4.973
 2373TIP3    H1 7076   2.295   5.456   4.960
 2373TIP3    H2 7077   2.244   5.593   4.922
 2374TIP3   OH2 7078   0.332   2.888   5.315
 2374TIP3    H1 7079   0.243   2.884   5.352
 2374TIP3    H2 7080   0.320   2.925   5.228
 2375TIP3   OH2 7081   3.430   4.990   4.893
 2375TIP3    H1 7082   3.383   5.021   4.816
 2375TIP3    H2 7083   3.504   5.049   4.902
 2376TIP3   OH2 7084   0.739   2.761   1.312
 2376TIP3    H1 7085   0.682   2.753   1.388
 2376TIP3    H2 7086   0.728   2.851   1.283
 2377TIP3   OH2 7087   3.152   2.275   0.092
 2377TIP3    H1 7088   3.175   2.312   0.006
 2377TIP3    H2 7089   3.169   2.181   0.083
 2378TIP3   OH2 7090   0.071   0.110   5.489
 2378TIP3    H1 7091   0.015   0.124   5.412
 2378TIP3    H2 7092   0.079   0.015   5.496
 2379TIP3   OH2 7093   3.169   0.910   0.774
 2379TIP3    H1 7094   3.248   0.926   0.722
 2379TIP3    H2 7095   3.153   0.993   0.819
 2380TIP3   OH2 7096   5.952   1.810   1.617
 2380TIP3    H1 7097   5.911   1.723   1.606
 2380TIP3    H2 7098   6.046   1.793   1.608
 2381TIP3   OH2 7099   5.063   2.621   0.472
 2381TIP3    H1 7100   5.146   2.669   0.473
 2381TIP3    H2 7101   5.022   2.646   0.389
 2382TIP3   OH2 7102   8.198   3.101   3.173
 2382TIP3    H1 7103   8.169   3.051   3.249
 2382TIP3    H2 7104   8.214   3.035   3.105
 2383TIP3   OH2 7105   5.918   2.261   0.017
 2383TIP3    H1 7106   6.003   2.268  -0.027
 2383TIP3    H2 7107   5.918   2.174   0.055
 2384TIP3   OH2 7108   7.878   3.432   0.372
 2384TIP3    H1 7109   7.874   3.425   0.277
 2384TIP3    H2 7110   7.871   3.526   0.389
 2385TIP3   OH2 7111   6.077   4.877   2.152
 2385TIP3    H1 7112   6.062   4.913   2.240
 2385TIP3    H2 7113   6.069   4.953   2.094
 2386TIP3   OH2 7114   4.457   7.106   3.414
 2386TIP3    H1 7115   4.450   7.013   3.435
 2386TIP3    H2 7116   4.372   7.128   3.377
 2387TIP3   OH2 7117   8.076   2.599   2.135
 2387TIP3    H1 7118   8.012   2.596   2.063
 2387TIP3    H2 7119   8.151   2.645   2.098
 2388TIP3   OH2 7120   8.004   3.926   4.369
 2388TIP3    H1 7121   7.916   3.891   4.384
 2388TIP3    H2 7122   8.051   3.855   4.326
 2389TIP3   OH2 7123   7.436   7.377   4.938
 2389TIP3    H1 7124   7.366   7.425   4.893
 2389TIP3    H2 7125   7.480   7.443   4.992
 2390TIP3   OH2 7126   8.085   2.787   0.770
 2390TIP3    H1 7127   7.995   2.794   0.736
 2390TIP3    H2 7128   8.080   2.720   0.838
 2391TIP3   OH2 7129   3.576   3.572   5.200
 2391TIP3    H1 7130   3.523   3.494   5.184
 2391TIP3    H2 7131   3.665   3.547   5.176
 2392TIP3   OH2 7132   1.993   7.154   5.201
 2392TIP3    H1 7133   1.985   7.220   5.270
 2392TIP3    H2 7134   2.083   7.163   5.169
 2393TIP3   OH2 7135   5.368   3.842   1.798
 2393TIP3    H1 7136   5.277   3.854   1.773
 2393TIP3    H2 7137   5.365   3.786   1.875
 2394TIP3   OH2 7138   3.735   6.270   0.670
 2394TIP3    H1 7139   3.742   6.342   0.607
 2394TIP3    H2 7140   3.681   6.304   0.741
 2395TIP3   OH2 7141   4.096   5.817   5.782
 2395TIP3    H1 7142   4.008   5.804   5.748
 2395TIP3    H2 7143   4.083   5.845   5.873
 2396TIP3   OH2 7144   5.660   3.828   2.761
 2396TIP3    H1 7145   5.619   3.783   2.834
 2396TIP3    H2 7146   5.588   3.856   2.705
 2397TIP3   OH2 7147   1.322   0.483   5.262
 2397TIP3    H1 7148   1.348   0.436   5.342
 2397TIP3    H2 7149   1.402   0.526   5.233
 2398TIP3   OH2 7150   3.900   4.401   5.641
 2398TIP3    H1 7151   3.834   4.337   5.617
 2398TIP3    H2 7152   3.896   4.467   5.571
 2399TIP3   OH2 7153   5.266   2.571   4.776
 2399TIP3    H1 7154   5.177   2.562   4.743
 2399TIP3    H2 7155   5.256   2.584   4.870
 2400TIP3   OH2 7156   6.156   2.689   6.688
 2400TIP3    H1 7157   6.190   2.662   6.773
 2400TIP3    H2 7158   6.138   2.782   6.697
 2401TIP3   OH2 7159   2.266   2.058   0.567
 2401TIP3    H1 7160   2.283   2.138   0.517
 2401TIP3    H2 7161   2.325   1.993   0.529
 2402TIP3   OH2 7162   6.690   5.739   4.992
 2402TIP3    H1 7163   6.737   5.661   5.020
 2402TIP3    H2 7164   6.600   5.725   5.024
 2403TIP3   OH2 7165   1.424   6.073   1.263
 2403TIP3    H1 7166   1.499   6.085   1.322
 2403TIP3    H2 7167   1.403   5.980   1.269
 2404TIP3   OH2 7168   4.787   7.160   0.235
 2404TIP3    H1 7169   4.781   7.193   0.145
 2404TIP3    H2 7170   4.704   7.187   0.276
 2405TIP3   OH2 7171   0.874   5.059   0.719
 2405TIP3    H1 7172   0.911   5.140   0.685
 2405TIP3    H2 7173   0.824   5.086   0.796
 2406TIP3   OH2 7174   3.651   2.075   6.656
 2406TIP3    H1 7175   3.595   1.998   6.653
 2406TIP3    H2 7176   3.734   2.046   6.618
 2407TIP3   OH2 7177   0.097   2.863   4.579
 2407TIP3    H1 7178   0.008   2.851   4.544
 2407TIP3    H2 7179   0.084   2.870   4.674
 2408TIP3   OH2 7180   6.554   7.755   0.858
 2408TIP3    H1 7181   6.482   7.694   0.878
 2408TIP3    H2 7182   6.536   7.785   0.769
 2409TIP3   OH2 7183   3.895   7.738   6.594
 2409TIP3    H1 7184   3.914   7.656   6.549
 2409TIP3    H2 7185   3.890   7.803   6.524
 2410TIP3   OH2 7186   0.721   5.687   1.887
 2410TIP3    H1 7187   0.687   5.746   1.954
 2410TIP3    H2 7188   0.668   5.707   1.809
 2411TIP3   OH2 7189   0.262   4.071   0.297
 2411TIP3    H1 7190   0.346   4.028   0.281
 2411TIP3    H2 7191   0.207   4.045   0.223
 2412TIP3   OH2 7192   0.294   2.609   5.973
 2412TIP3    H1 7193   0.302   2.700   5.945
 2412TIP3    H2 7194   0.344   2.605   6.055
 2413TIP3   OH2 7195   6.489   4.876   4.963
 2413TIP3    H1 7196   6.540   4.953   4.940
 2413TIP3    H2 7197   6.519   4.808   4.902
 2414TIP3   OH2 7198   6.784   5.910   3.839
 2414TIP3    H1 7199   6.786   5.850   3.913
 2414TIP3    H2 7200   6.751   5.857   3.766
 2415TIP3   OH2 7201   1.903   3.760   0.106
 2415TIP3    H1 7202   1.964   3.832   0.091
 2415TIP3    H2 7203   1.833   3.799   0.159
 2416TIP3   OH2 7204   4.088   0.883   4.488
 2416TIP3    H1 7205   4.069   0.815   4.552
 2416TIP3    H2 7206   4.057   0.964   4.528
 2417TIP3   OH2 7207   4.536   1.581   3.013
 2417TIP3    H1 7208   4.500   1.592   2.926
 2417TIP3    H2 7209   4.619   1.535   2.999
 2418TIP3   OH2 7210   7.685   4.023   0.204
 2418TIP3    H1 7211   7.660   4.086   0.136
 2418TIP3    H2 7212   7.735   4.074   0.267
 2419TIP3   OH2 7213   1.889   4.714   5.819
 2419TIP3    H1 7214   1.853   4.676   5.739
 2419TIP3    H2 7215   1.984   4.709   5.807
 2420TIP3   OH2 7216   6.126   2.037   6.717
 2420TIP3    H1 7217   6.071   2.103   6.675
 2420TIP3    H2 7218   6.095   2.034   6.807
 2421TIP3   OH2 7219   4.210   0.349   6.278
 2421TIP3    H1 7220   4.299   0.315   6.265
 2421TIP3    H2 7221   4.223   0.435   6.318
 2422TIP3   OH2 7222   0.868   5.819   5.070
 2422TIP3    H1 7223   0.773   5.822   5.078
 2422TIP3    H2 7224   0.894   5.908   5.047
 2423TIP3   OH2 7225   2.027   2.240   6.101
 2423TIP3    H1 7226   2.077   2.250   6.181
 2423TIP3    H2 7227   2.038   2.323   6.054
 2424TIP3   OH2 7228   2.111   6.722   1.156
 2424TIP3    H1 7229   2.117   6.651   1.220
 2424TIP3    H2 7230   2.183   6.706   1.095
 2425TIP3   OH2 7231   3.183   2.919   0.872
 2425TIP3    H1 7232   3.226   2.886   0.792
 2425TIP3    H2 7233   3.120   2.851   0.895
 2426TIP3   OH2 7234   3.915   1.444   0.805
 2426TIP3    H1 7235   3.937   1.408   0.720
 2426TIP3    H2 7236   4.000   1.459   0.848
 2427TIP3   OH2 7237   6.617   4.464   2.739
 2427TIP3    H1 7238   6.690   4.434   2.686
 2427TIP3    H2 7239   6.560   4.512   2.678
 2428TIP3   OH2 7240   1.973   3.341   5.889
 2428TIP3    H1 7241   2.067   3.336   5.871
 2428TIP3    H2 7242   1.967   3.351   5.984
 2429TIP3   OH2 7243   1.455   5.131   1.156
 2429TIP3    H1 7244   1.404   5.212   1.158
 2429TIP3    H2 7245   1.418   5.082   1.083
 2430TIP3   OH2 7246   3.487   4.435   2.410
 2430TIP3    H1 7247   3.559   4.404   2.355
 2430TIP3    H2 7248   3.527   4.455   2.494
 2431TIP3   OH2 7249   3.843   0.336   4.685
 2431TIP3    H1 7250   3.871   0.292   4.605
 2431TIP3    H2 7251   3.826   0.265   4.747
 2432TIP3   OH2 7252   0.345   2.868   5.887
 2432TIP3    H1 7253   0.374   2.858   5.797
 2432TIP3    H2 7254   0.425   2.864   5.939
 2433TIP3   OH2 7255   7.834   7.162   5.340
 2433TIP3    H1 7256   7.884   7.156   5.259
 2433TIP3    H2 7257   7.790   7.247   5.335
 2434TIP3   OH2 7258   6.447   5.910   3.032
 2434TIP3    H1 7259   6.451   5.872   2.945
 2434TIP3    H2 7260   6.354   5.920   3.051
 2435TIP3   OH2 7261   7.902   1.868   4.867
 2435TIP3    H1 7262   7.926   1.852   4.958
 2435TIP3    H2 7263   7.838   1.939   4.871
 2436TIP3   OH2 7264   4.324   5.194   2.192
 2436TIP3    H1 7265   4.250   5.192   2.253
 2436TIP3    H2 7266   4.402   5.191   2.247
 2437TIP3   OH2 7267   3.743   5.860   0.086
 2437TIP3    H1 7268   3.759   5.769   0.059
 2437TIP3    H2 7269   3.649   5.865   0.100
 2438TIP3   OH2 7270   0.211   3.793   4.718
 2438TIP3    H1 7271   0.298   3.793   4.678
 2438TIP3    H2 7272   0.152   3.769   4.647
 2439TIP3   OH2 7273   4.898   3.043   3.941
 2439TIP3    H1 7274   4.813   3.000   3.953
 2439TIP3    H2 7275   4.960   2.985   3.986
 2440TIP3   OH2 7276   1.953   1.069   6.172
 2440TIP3    H1 7277   1.904   1.028   6.101
 2440TIP3    H2 7278   1.949   1.006   6.243
 2441TIP3   OH2 7279   7.584   3.594   0.779
 2441TIP3    H1 7280   7.495   3.588   0.744
 2441TIP3    H2 7281   7.635   3.535   0.725
 2442TIP3   OH2 7282   4.009   0.586   4.094
 2442TIP3    H1 7283   3.956   0.595   4.014
 2442TIP3    H2 7284   4.014   0.675   4.129
 2443TIP3   OH2 7285   3.263   2.025   5.959
 2443TIP3    H1 7286   3.331   1.966   5.926
 2443TIP3    H2 7287   3.302   2.064   6.037
 2444TIP3   OH2 7288   2.420   6.749   5.278
 2444TIP3    H1 7289   2.466   6.696   5.214
 2444TIP3    H2 7290   2.368   6.687   5.328
 2445TIP3   OH2 7291   5.842   4.879   0.792
 2445TIP3    H1 7292   5.856   4.965   0.753
 2445TIP3    H2 7293   5.842   4.896   0.886
 2446TIP3   OH2 7294   0.194   3.994   0.994
 2446TIP3    H1 7295   0.249   4.070   1.016
 2446TIP3    H2 7296   0.115   4.005   1.047
 2447TIP3   OH2 7297   5.564   4.449   5.162
 2447TIP3    H1 7298   5.659   4.446   5.163
 2447TIP3    H2 7299   5.541   4.521   5.221
 2448TIP3   OH2 7300   1.099   2.342   4.963
 2448TIP3    H1 7301   1.047   2.310   4.890
 2448TIP3    H2 7302   1.147   2.416   4.927
 2449TIP3   OH2 7303   7.728   6.918   5.908
 2449TIP3    H1 7304   7.786   6.929   5.832
 2449TIP3    H2 7305   7.748   6.994   5.963
 2450TIP3   OH2 7306   6.645   1.894   1.691
 2450TIP3    H1 7307   6.570   1.843   1.660
 2450TIP3    H2 7308   6.618   1.929   1.775
 2451TIP3   OH2 7309   7.959   0.317   5.420
 2451TIP3    H1 7310   7.994   0.381   5.481
 2451TIP3    H2 7311   7.868   0.344   5.407
 2452TIP3   OH2 7312   0.939   2.907   3.363
 2452TIP3    H1 7313   0.954   2.897   3.457
 2452TIP3    H2 7314   0.979   2.991   3.341
 2453TIP3   OH2 7315   5.587   2.747   3.971
 2453TIP3    H1 7316   5.563   2.839   3.957
 2453TIP3    H2 7317   5.630   2.748   4.057
 2454TIP3   OH2 7318   2.359   7.100   6.431
 2454TIP3    H1 7319   2.281   7.113   6.376
 2454TIP3    H2 7320   2.429   7.081   6.369
 2455TIP3   OH2 7321   5.300   7.370   2.862
 2455TIP3    H1 7322   5.244   7.347   2.788
 2455TIP3    H2 7323   5.270   7.314   2.933
 2456TIP3   OH2 7324   3.477   0.098   5.867
 2456TIP3    H1 7325   3.522   0.177   5.895
 2456TIP3    H2 7326   3.416   0.078   5.938
 2457TIP3   OH2 7327   3.911   2.564   3.293
 2457TIP3    H1 7328   3.980   2.617   3.254
 2457TIP3    H2 7329   3.884   2.614   3.371
 2458TIP3   OH2 7330   7.347   1.162   2.483
 2458TIP3    H1 7331   7.294   1.125   2.412
 2458TIP3    H2 7332   7.433   1.176   2.444
 2459TIP3   OH2 7333   5.091   6.566   0.746
 2459TIP3    H1 7334   5.126   6.538   0.831
 2459TIP3    H2 7335   5.044   6.648   0.765
 2460TIP3   OH2 7336   2.459   1.789   2.388
 2460TIP3    H1 7337   2.424   1.835   2.312
 2460TIP3    H2 7338   2.542   1.834   2.408
 2461TIP3   OH2 7339   7.328   1.260   3.731
 2461TIP3    H1 7340   7.313   1.241   3.638
 2461TIP3    H2 7341   7.315   1.355   3.738
 2462TIP3   OH2 7342   6.248   1.524   3.463
 2462TIP3    H1 7343   6.321   1.586   3.464
 2462TIP3    H2 7344   6.290   1.438   3.466
 2463TIP3   OH2 7345   6.277   1.817   5.688
 2463TIP3    H1 7346   6.290   1.912   5.697
 2463TIP3    H2 7347   6.210   1.809   5.620
 2464TIP3   OH2 7348   5.826   7.224   3.398
 2464TIP3    H1 7349   5.732   7.228   3.377
 2464TIP3    H2 7350   5.860   7.308   3.369
 2465TIP3   OH2 7351   5.568   2.046   1.680
 2465TIP3    H1 7352   5.520   2.126   1.702
 2465TIP3    H2 7353   5.596   2.011   1.764
 2466TIP3   OH2 7354   4.170   1.156   5.238
 2466TIP3    H1 7355   4.110   1.082   5.232
 2466TIP3    H2 7356   4.254   1.118   5.262
 2467TIP3   OH2 7357   1.041   7.260   4.607
 2467TIP3    H1 7358   0.965   7.312   4.583
 2467TIP3    H2 7359   1.078   7.305   4.684
 2468TIP3   OH2 7360   1.731   5.326   0.145
 2468TIP3    H1 7361   1.705   5.271   0.219
 2468TIP3    H2 7362   1.827   5.326   0.148
 2469TIP3   OH2 7363   6.810   6.322   4.889
 2469TIP3    H1 7364   6.807   6.324   4.984
 2469TIP3    H2 7365   6.722   6.293   4.863
 2470TIP3   OH2 7366   4.720   7.066   6.710
 2470TIP3    H1 7367   4.755   7.115   6.636
 2470TIP3    H2 7368   4.757   6.978   6.700
 2471TIP3   OH2 7369   6.241   6.958   1.171
 2471TIP3    H1 7370   6.224   6.960   1.265
 2471TIP3    H2 7371   6.277   7.044   1.151
 2472TIP3   OH2 7372   6.322   2.448   3.017
 2472TIP3    H1 7373   6.308   2.368   3.068
 2472TIP3    H2 7374   6.348   2.513   3.082
 2473TIP3   OH2 7375   6.180   5.411   1.941
 2473TIP3    H1 7376   6.233   5.398   2.019
 2473TIP3    H2 7377   6.137   5.326   1.927
 2474TIP3   OH2 7378   1.376   4.130   0.119
 2474TIP3    H1 7379   1.387   4.133   0.024
 2474TIP3    H2 7380   1.332   4.046   0.136
 2475TIP3   OH2 7381   4.219   0.712   4.833
 2475TIP3    H1 7382   4.139   0.733   4.784
 2475TIP3    H2 7383   4.205   0.752   4.919
 2476TIP3   OH2 7384   3.602   6.431   3.881
 2476TIP3    H1 7385   3.658   6.363   3.843
 2476TIP3    H2 7386   3.662   6.503   3.901
 2477TIP3   OH2 7387   4.877   5.647   1.324
 2477TIP3    H1 7388   4.809   5.651   1.257
 2477TIP3    H2 7389   4.829   5.648   1.407
 2478TIP3   OH2 7390   7.766   1.530   1.418
 2478TIP3    H1 7391   7.709   1.573   1.481
 2478TIP3    H2 7392   7.801   1.454   1.465
 2479TIP3   OH2 7393   0.657   3.450   0.398
 2479TIP3    H1 7394   0.692   3.407   0.476
 2479TIP3    H2 7395   0.634   3.378   0.339
 2480TIP3   OH2 7396   7.742   0.692   4.580
 2480TIP3    H1 7397   7.769   0.620   4.638
 2480TIP3    H2 7398   7.684   0.651   4.516
 2481TIP3   OH2 7399   8.274   5.052   6.260
 2481TIP3    H1 7400   8.259   5.019   6.349
 2481TIP3    H2 7401   8.334   5.125   6.271
 2482TIP3   OH2 7402   3.695   6.041   4.301
 2482TIP3    H1 7403   3.750   6.113   4.269
 2482TIP3    H2 7404   3.607   6.065   4.274
 2483TIP3   OH2 7405   4.926   5.793   2.602
 2483TIP3    H1 7406   4.844   5.746   2.589
 2483TIP3    H2 7407   4.986   5.727   2.639
 2484TIP3   OH2 7408   3.478   2.785   3.344
 2484TIP3    H1 7409   3.529   2.712   3.308
 2484TIP3    H2 7410   3.487   2.855   3.279
 2485TIP3   OH2 7411   4.896   4.628   6.651
 2485TIP3    H1 7412   4.851   4.556   6.608
 2485TIP3    H2 7413   4.937   4.677   6.580
 2486TIP3   OH2 7414   6.482   3.647   0.385
 2486TIP3    H1 7415   6.492   3.665   0.478
 2486TIP3    H2 7416   6.517   3.724   0.341
 2487TIP3   OH2 7417   6.525   1.093   6.251
 2487TIP3    H1 7418   6.527   1.086   6.347
 2487TIP3    H2 7419   6.469   1.168   6.234
 2488TIP3   OH2 7420   0.640   6.064   0.323
 2488TIP3    H1 7421   0.560   6.029   0.285
 2488TIP3    H2 7422   0.612   6.110   0.401
 2489TIP3   OH2 7423   3.293   2.374   0.489
 2489TIP3    H1 7424   3.243   2.360   0.409
 2489TIP3    H2 7425   3.255   2.452   0.528
 2490TIP3   OH2 7426   3.883   1.919   0.664
 2490TIP3    H1 7427   3.874   1.976   0.587
 2490TIP3    H2 7428   3.963   1.870   0.647
 2491TIP3   OH2 7429   4.324   6.879   3.571
 2491TIP3    H1 7430   4.304   6.938   3.644
 2491TIP3    H2 7431   4.357   6.800   3.614
 2492TIP3   OH2 7432   2.641   0.807   1.713
 2492TIP3    H1 7433   2.695   0.747   1.661
 2492TIP3    H2 7434   2.620   0.878   1.652
 2493TIP3   OH2 7435   4.786   0.610   4.132
 2493TIP3    H1 7436   4.768   0.546   4.064
 2493TIP3    H2 7437   4.706   0.662   4.137
 2494TIP3   OH2 7438   0.033   3.612   6.030
 2494TIP3    H1 7439   0.118   3.598   5.987
 2494TIP3    H2 7440   0.048   3.686   6.089
 2495TIP3   OH2 7441   2.186   6.196   0.789
 2495TIP3    H1 7442   2.128   6.124   0.766
 2495TIP3    H2 7443   2.127   6.270   0.806
 2496TIP3   OH2 7444   7.689   2.052   6.236
 2496TIP3    H1 7445   7.729   2.014   6.314
 2496TIP3    H2 7446   7.717   2.144   6.236
 2497TIP3   OH2 7447   3.207   3.228   4.116
 2497TIP3    H1 7448   3.241   3.206   4.203
 2497TIP3    H2 7449   3.264   3.181   4.055
 2498TIP3   OH2 7450   3.687   4.833   2.985
 2498TIP3    H1 7451   3.634   4.787   2.920
 2498TIP3    H2 7452   3.744   4.765   3.021
 2499TIP3   OH2 7453   3.455   0.850   1.381
 2499TIP3    H1 7454   3.431   0.943   1.375
 2499TIP3    H2 7455   3.373   0.805   1.397
 2500TIP3   OH2 7456   3.666   3.113   3.647
 2500TIP3    H1 7457   3.658   3.200   3.687
 2500TIP3    H2 7458   3.593   3.108   3.586
 2501TIP3   OH2 7459   1.369   7.500   6.162
 2501TIP3    H1 7460   1.311   7.424   6.173
 2501TIP3    H2 7461   1.353   7.529   6.073
 2502TIP3   OH2 7462   6.911   4.493   0.467
 2502TIP3    H1 7463   6.979   4.555   0.438
 2502TIP3    H2 7464   6.872   4.535   0.543
 2503TIP3   OH2 7465   4.846   5.266   6.170
 2503TIP3    H1 7466   4.859   5.178   6.207
 2503TIP3    H2 7467   4.783   5.308   6.230
 2504TIP3   OH2 7468   5.449   4.296   5.740
 2504TIP3    H1 7469   5.370   4.348   5.750
 2504TIP3    H2 7470   5.444   4.261   5.650
 2505TIP3   OH2 7471   7.582   4.735   1.329
 2505TIP3    H1 7472   7.654   4.691   1.284
 2505TIP3    H2 7473   7.508   4.675   1.319
 2506TIP3   OH2 7474   5.827   4.534   1.828
 2506TIP3    H1 7475   5.802   4.503   1.915
 2506TIP3    H2 7476   5.782   4.618   1.819
 2507TIP3   OH2 7477   0.519   6.934   1.314
 2507TIP3    H1 7478   0.436   6.976   1.291
 2507TIP3    H2 7479   0.557   6.991   1.380
 2508TIP3   OH2 7480   6.695   3.461   5.120
 2508TIP3    H1 7481   6.633   3.397   5.155
 2508TIP3    H2 7482   6.756   3.477   5.192
 2509TIP3   OH2 7483   5.645   1.702   2.579
 2509TIP3    H1 7484   5.666   1.699   2.672
 2509TIP3    H2 7485   5.688   1.780   2.547
 2510TIP3   OH2 7486   1.160   1.399   1.081
 2510TIP3    H1 7487   1.069   1.372   1.091
 2510TIP3    H2 7488   1.155   1.481   1.032
 2511TIP3   OH2 7489   0.818   7.358   1.260
 2511TIP3    H1 7490   0.860   7.300   1.197
 2511TIP3    H2 7491   0.880   7.364   1.333
 2512TIP3   OH2 7492   6.027   3.003   5.093
 2512TIP3    H1 7493   6.026   3.022   4.999
 2512TIP3    H2 7494   5.955   2.942   5.105
 2513TIP3   OH2 7495   0.151   6.531   6.739
 2513TIP3    H1 7496   0.171   6.460   6.677
 2513TIP3    H2 7497   0.207   6.513   6.814
 2514TIP3   OH2 7498   1.219   2.035   5.470
 2514TIP3    H1 7499   1.309   2.050   5.500
 2514TIP3    H2 7500   1.227   2.029   5.375
 2515TIP3   OH2 7501   7.552   7.701   3.792
 2515TIP3    H1 7502   7.603   7.640   3.740
 2515TIP3    H2 7503   7.563   7.670   3.882
 2516TIP3   OH2 7504   4.814   0.913   1.451
 2516TIP3    H1 7505   4.826   0.840   1.390
 2516TIP3    H2 7506   4.773   0.982   1.399
 2517TIP3   OH2 7507   3.726   4.820   3.420
 2517TIP3    H1 7508   3.712   4.902   3.467
 2517TIP3    H2 7509   3.638   4.789   3.399
 2518TIP3   OH2 7510   2.557   7.360   5.992
 2518TIP3    H1 7511   2.605   7.428   5.945
 2518TIP3    H2 7512   2.608   7.344   6.071
 2519TIP3   OH2 7513   1.894   6.443   0.055
 2519TIP3    H1 7514   1.828   6.431   0.123
 2519TIP3    H2 7515   1.927   6.354   0.039
 2520TIP3   OH2 7516   7.081   2.573   0.772
 2520TIP3    H1 7517   7.088   2.624   0.853
 2520TIP3    H2 7518   7.166   2.532   0.762
 2521TIP3   OH2 7519   2.409   0.437   5.410
 2521TIP3    H1 7520   2.326   0.464   5.448
 2521TIP3    H2 7521   2.475   0.489   5.456
 2522TIP3   OH2 7522   1.550   2.379   3.933
 2522TIP3    H1 7523   1.524   2.292   3.903
 2522TIP3    H2 7524   1.471   2.415   3.973
 2523TIP3   OH2 7525   5.498   1.209   4.288
 2523TIP3    H1 7526   5.478   1.249   4.204
 2523TIP3    H2 7527   5.429   1.241   4.347
 2524TIP3   OH2 7528   5.180   0.934   0.087
 2524TIP3    H1 7529   5.165   0.839   0.092
 2524TIP3    H2 7530   5.097   0.973   0.116
 2525TIP3   OH2 7531   6.720   7.449   1.446
 2525TIP3    H1 7532   6.805   7.405   1.453
 2525TIP3    H2 7533   6.727   7.501   1.366
 2526TIP3   OH2 7534   7.941   2.243   5.479
 2526TIP3    H1 7535   7.856   2.227   5.438
 2526TIP3    H2 7536   8.005   2.215   5.413
 2527TIP3   OH2 7537   7.396   5.807   6.555
 2527TIP3    H1 7538   7.482   5.777   6.526
 2527TIP3    H2 7539   7.414   5.877   6.617
 2528TIP3   OH2 7540   2.806   2.758   0.661
 2528TIP3    H1 7541   2.837   2.675   0.626
 2528TIP3    H2 7542   2.811   2.818   0.586
 2529TIP3   OH2 7543   6.826   1.624   5.079
 2529TIP3    H1 7544   6.830   1.538   5.120
 2529TIP3    H2 7545   6.772   1.677   5.138
 2530TIP3   OH2 7546   0.124   1.059   3.205
 2530TIP3    H1 7547   0.156   1.111   3.278
 2530TIP3    H2 7548   0.203   1.017   3.169
 2531TIP3   OH2 7549   7.653   3.100   3.411
 2531TIP3    H1 7550   7.560   3.083   3.394
 2531TIP3    H2 7551   7.685   3.145   3.333
 2532TIP3   OH2 7552   3.649   3.059   2.158
 2532TIP3    H1 7553   3.683   3.060   2.247
 2532TIP3    H2 7554   3.723   3.028   2.105
 2533TIP3   OH2 7555   1.466   2.652   4.808
 2533TIP3    H1 7556   1.453   2.745   4.790
 2533TIP3    H2 7557   1.519   2.620   4.735
 2534TIP3   OH2 7558   6.942   4.122   2.416
 2534TIP3    H1 7559   6.969   4.031   2.399
 2534TIP3    H2 7560   7.017   4.174   2.387
 2535TIP3   OH2 7561   7.286   7.027   2.628
 2535TIP3    H1 7562   7.285   7.093   2.697
 2535TIP3    H2 7563   7.271   7.077   2.547
 2536TIP3   OH2 7564   4.179   7.673   0.551
 2536TIP3    H1 7565   4.228   7.592   0.537
 2536TIP3    H2 7566   4.104   7.666   0.492
 2537TIP3   OH2 7567   5.547   0.614   4.131
 2537TIP3    H1 7568   5.559   0.606   4.037
 2537TIP3    H2 7569   5.453   0.618   4.144
 2538TIP3   OH2 7570   1.265   3.614   2.782
 2538TIP3    H1 7571   1.306   3.632   2.867
 2538TIP3    H2 7572   1.171   3.628   2.797
 2539TIP3   OH2 7573   6.844   0.582   0.612
 2539TIP3    H1 7574   6.787   0.629   0.550
 2539TIP3    H2 7575   6.859   0.497   0.571
 2540TIP3   OH2 7576   6.738   6.785   5.079
 2540TIP3    H1 7577   6.769   6.749   4.996
 2540TIP3    H2 7578   6.811   6.775   5.139
 2541TIP3   OH2 7579   4.443   7.121   5.619
 2541TIP3    H1 7580   4.491   7.112   5.701
 2541TIP3    H2 7581   4.502   7.171   5.562
 2542TIP3   OH2 7582   1.237   1.138   4.222
 2542TIP3    H1 7583   1.235   1.087   4.303
 2542TIP3    H2 7584   1.258   1.227   4.251
 2543TIP3   OH2 7585   2.423   3.744   5.416
 2543TIP3    H1 7586   2.517   3.734   5.399
 2543TIP3    H2 7587   2.418   3.779   5.504
 2544TIP3   OH2 7588   6.395   6.138   6.557
 2544TIP3    H1 7589   6.342   6.218   6.560
 2544TIP3    H2 7590   6.447   6.140   6.637
 2545TIP3   OH2 7591   0.183   1.423   1.083
 2545TIP3    H1 7592   0.091   1.405   1.100
 2545TIP3    H2 7593   0.200   1.506   1.127
 2546TIP3   OH2 7594   1.945   6.282   3.418
 2546TIP3    H1 7595   1.900   6.354   3.374
 2546TIP3    H2 7596   1.886   6.257   3.489
 2547TIP3   OH2 7597   5.409   5.334   1.650
 2547TIP3    H1 7598   5.484   5.278   1.668
 2547TIP3    H2 7599   5.429   5.416   1.695
 2548TIP3   OH2 7600   1.153   2.469   1.404
 2548TIP3    H1 7601   1.128   2.377   1.410
 2548TIP3    H2 7602   1.096   2.506   1.336
 2549TIP3   OH2 7603   7.935   4.496   4.233
 2549TIP3    H1 7604   7.866   4.495   4.299
 2549TIP3    H2 7605   7.898   4.544   4.159
 2550TIP3   OH2 7606   7.049   2.945   3.640
 2550TIP3    H1 7607   7.051   2.850   3.627
 2550TIP3    H2 7608   6.991   2.977   3.572
 2551TIP3   OH2 7609   7.902   1.306   0.084
 2551TIP3    H1 7610   7.904   1.227   0.138
 2551TIP3    H2 7611   7.810   1.332   0.082
 2552TIP3   OH2 7612   1.719   3.399   1.279
 2552TIP3    H1 7613   1.635   3.428   1.243
 2552TIP3    H2 7614   1.784   3.440   1.222
 2553TIP3   OH2 7615   6.030   2.490   1.288
 2553TIP3    H1 7616   5.954   2.528   1.244
 2553TIP3    H2 7617   6.044   2.545   1.365
 2554TIP3   OH2 7618   0.082   5.557   4.305
 2554TIP3    H1 7619  -0.008   5.585   4.292
 2554TIP3    H2 7620   0.133   5.609   4.244
 2555TIP3   OH2 7621   6.624   1.412   3.505
 2555TIP3    H1 7622   6.594   1.495   3.467
 2555TIP3    H2 7623   6.581   1.408   3.590
 2556TIP3   OH2 7624   1.007   3.215   3.071
 2556TIP3    H1 7625   0.977   3.293   3.119
 2556TIP3    H2 7626   1.064   3.169   3.134
 2557TIP3   OH2 7627   7.190   5.279   3.522
 2557TIP3    H1 7628   7.190   5.323   3.607
 2557TIP3    H2 7629   7.151   5.194   3.539
 2558TIP3   OH2 7630   1.569   0.276   0.952
 2558TIP3    H1 7631   1.515   0.202   0.978
 2558TIP3    H2 7632   1.612   0.305   1.032
 2559TIP3   OH2 7633   7.923   2.559   3.831
 2559TIP3    H1 7634   7.950   2.471   3.806
 2559TIP3    H2 7635   7.832   2.549   3.860
 2560TIP3   OH2 7636   7.294   4.407   4.605
 2560TIP3    H1 7637   7.332   4.328   4.644
 2560TIP3    H2 7638   7.201   4.402   4.627
 2561TIP3   OH2 7639   7.541   4.028   5.905
 2561TIP3    H1 7640   7.588   3.956   5.864
 2561TIP3    H2 7641   7.552   4.015   5.999
 2562TIP3   OH2 7642   4.886   1.385   6.594
 2562TIP3    H1 7643   4.935   1.406   6.673
 2562TIP3    H2 7644   4.795   1.404   6.616
 2563TIP3   OH2 7645   3.857   7.708   6.192
 2563TIP3    H1 7646   3.861   7.670   6.104
 2563TIP3    H2 7647   3.946   7.698   6.226
 2564TIP3   OH2 7648   0.139   1.477   4.336
 2564TIP3    H1 7649   0.144   1.453   4.244
 2564TIP3    H2 7650   0.186   1.560   4.342
 2565TIP3   OH2 7651   5.653   4.117   4.834
 2565TIP3    H1 7652   5.656   4.051   4.904
 2565TIP3    H2 7653   5.724   4.177   4.855
 2566TIP3   OH2 7654   4.425   1.363   0.660
 2566TIP3    H1 7655   4.352   1.366   0.722
 2566TIP3    H2 7656   4.488   1.304   0.700
 2567TIP3   OH2 7657   1.869   0.643   6.377
 2567TIP3    H1 7658   1.884   0.548   6.377
 2567TIP3    H2 7659   1.873   0.667   6.470
 2568TIP3   OH2 7660   5.844   4.874   4.489
 2568TIP3    H1 7661   5.907   4.803   4.487
 2568TIP3    H2 7662   5.781   4.850   4.557
 2569TIP3   OH2 7663   7.669   5.336   6.303
 2569TIP3    H1 7664   7.765   5.338   6.299
 2569TIP3    H2 7665   7.644   5.258   6.254
 2570TIP3   OH2 7666   7.672   3.392   1.734
 2570TIP3    H1 7667   7.731   3.422   1.664
 2570TIP3    H2 7668   7.634   3.311   1.701
 2571TIP3   OH2 7669   2.146   6.794   4.981
 2571TIP3    H1 7670   2.216   6.793   4.916
 2571TIP3    H2 7671   2.076   6.844   4.940
 2572TIP3   OH2 7672   8.031   2.269   1.270
 2572TIP3    H1 7673   8.083   2.339   1.231
 2572TIP3    H2 7674   7.988   2.227   1.195
 2573TIP3   OH2 7675   0.450   1.418   2.786
 2573TIP3    H1 7676   0.449   1.512   2.771
 2573TIP3    H2 7677   0.363   1.389   2.759
 2574TIP3   OH2 7678   2.552   3.318   1.544
 2574TIP3    H1 7679   2.493   3.279   1.479
 2574TIP3    H2 7680   2.596   3.388   1.498
 2575TIP3   OH2 7681   3.486   2.214   2.572
 2575TIP3    H1 7682   3.525   2.281   2.628
 2575TIP3    H2 7683   3.534   2.134   2.592
 2576TIP3   OH2 7684   3.435   5.546   1.051
 2576TIP3    H1 7685   3.451   5.486   1.124
 2576TIP3    H2 7686   3.447   5.633   1.088
 2577TIP3   OH2 7687   3.965   6.941   1.545
 2577TIP3    H1 7688   3.929   6.975   1.627
 2577TIP3    H2 7689   4.004   6.857   1.568
 2578TIP3   OH2 7690   5.177   2.791   5.950
 2578TIP3    H1 7691   5.179   2.751   6.037
 2578TIP3    H2 7692   5.125   2.871   5.961
 2579TIP3   OH2 7693   3.196   2.246   5.206
 2579TIP3    H1 7694   3.111   2.289   5.215
 2579TIP3    H2 7695   3.175   2.155   5.186
 2580TIP3   OH2 7696   7.889   5.303   3.166
 2580TIP3    H1 7697   7.955   5.366   3.135
 2580TIP3    H2 7698   7.835   5.285   3.089
 2581TIP3   OH2 7699   0.510   6.061   2.672
 2581TIP3    H1 7700   0.552   5.979   2.696
 2581TIP3    H2 7701   0.528   6.120   2.745
 2582TIP3   OH2 7702   7.980   5.958   5.463
 2582TIP3    H1 7703   8.058   5.903   5.458
 2582TIP3    H2 7704   7.921   5.923   5.396
 2583TIP3   OH2 7705   0.119   1.141   5.818
 2583TIP3    H1 7706   0.036   1.109   5.853
 2583TIP3    H2 7707   0.154   1.068   5.768
 2584TIP3   OH2 7708   0.640   7.865   0.391
 2584TIP3    H1 7709   0.691   7.803   0.339
 2584TIP3    H2 7710   0.579   7.904   0.328
 2585TIP3   OH2 7711   6.606   4.869  -0.009
 2585TIP3    H1 7712   6.593   4.780   0.022
 2585TIP3    H2 7713   6.664   4.909   0.057
 2586TIP3   OH2 7714   5.517   4.230   5.991
 2586TIP3    H1 7715   5.433   4.275   5.991
 2586TIP3    H2 7716   5.541   4.225   5.898
 2587TIP3   OH2 7717   0.957   0.234   1.750
 2587TIP3    H1 7718   0.884   0.286   1.783
 2587TIP3    H2 7719   0.951   0.151   1.797
 2588TIP3   OH2 7720   0.684   6.856   6.641
 2588TIP3    H1 7721   0.593   6.842   6.614
 2588TIP3    H2 7722   0.728   6.773   6.622
 2589TIP3   OH2 7723   6.290   4.449   3.101
 2589TIP3    H1 7724   6.333   4.510   3.161
 2589TIP3    H2 7725   6.360   4.423   3.040
 2590TIP3   OH2 7726   5.353   2.570   4.008
 2590TIP3    H1 7727   5.435   2.614   4.032
 2590TIP3    H2 7728   5.306   2.635   3.954
 2591TIP3   OH2 7729   5.095   4.815   5.514
 2591TIP3    H1 7730   5.050   4.734   5.538
 2591TIP3    H2 7731   5.025   4.878   5.501
 2592TIP3   OH2 7732   3.611   0.714   6.170
 2592TIP3    H1 7733   3.523   0.751   6.170
 2592TIP3    H2 7734   3.599   0.622   6.145
 2593TIP3   OH2 7735   2.221   1.961   4.526
 2593TIP3    H1 7736   2.211   2.008   4.608
 2593TIP3    H2 7737   2.154   1.893   4.529
 2594TIP3   OH2 7738   7.347   0.510   4.768
 2594TIP3    H1 7739   7.304   0.444   4.715
 2594TIP3    H2 7740   7.409   0.461   4.822
 2595TIP3   OH2 7741   4.473   6.516   3.295
 2595TIP3    H1 7742   4.498   6.438   3.344
 2595TIP3    H2 7743   4.378   6.514   3.293
 2596TIP3   OH2 7744   0.125   6.484   4.576
 2596TIP3    H1 7745   0.193   6.524   4.629
 2596TIP3    H2 7746   0.116   6.396   4.612
 2597TIP3   OH2 7747   6.582   3.213   2.165
 2597TIP3    H1 7748   6.561   3.158   2.240
 2597TIP3    H2 7749   6.660   3.173   2.126
 2598TIP3   OH2 7750   4.502   1.471   3.280
 2598TIP3    H1 7751   4.595   1.448   3.287
 2598TIP3    H2 7752   4.491   1.499   3.189
 2599TIP3   OH2 7753   6.927   1.355   0.429
 2599TIP3    H1 7754   6.866   1.289   0.397
 2599TIP3    H2 7755   6.885   1.390   0.508
 2600TIP3   OH2 7756   8.154   2.531   1.195
 2600TIP3    H1 7757   8.244   2.498   1.188
 2600TIP3    H2 7758   8.127   2.546   1.105
 2601TIP3   OH2 7759   1.053   5.271   0.590
 2601TIP3    H1 7760   0.991   5.332   0.551
 2601TIP3    H2 7761   1.117   5.326   0.634
 2602TIP3   OH2 7762   5.294   4.492   5.363
 2602TIP3    H1 7763   5.257   4.544   5.292
 2602TIP3    H2 7764   5.345   4.554   5.415
 2603TIP3   OH2 7765   6.044   4.222   2.763
 2603TIP3    H1 7766   5.992   4.152   2.803
 2603TIP3    H2 7767   6.135   4.198   2.782
 2604TIP3   OH2 7768   7.738   2.151   0.268
 2604TIP3    H1 7769   7.795   2.182   0.198
 2604TIP3    H2 7770   7.795   2.098   0.324
 2605TIP3   OH2 7771   1.166   4.592  -0.008
 2605TIP3    H1 7772   1.246   4.573  -0.056
 2605TIP3    H2 7773   1.195   4.646   0.066
 2606TIP3   OH2 7774   6.353   1.265   3.441
 2606TIP3    H1 7775   6.279   1.207   3.421
 2606TIP3    H2 7776   6.405   1.266   3.361
 2607TIP3   OH2 7777   5.488   4.192   1.359
 2607TIP3    H1 7778   5.436   4.256   1.311
 2607TIP3    H2 7779   5.495   4.228   1.447
 2608TIP3   OH2 7780   0.762   3.015   5.341
 2608TIP3    H1 7781   0.801   3.079   5.282
 2608TIP3    H2 7782   0.695   3.063   5.388
 2609TIP3   OH2 7783   6.951   2.731   4.230
 2609TIP3    H1 7784   6.856   2.733   4.221
 2609TIP3    H2 7785   6.975   2.822   4.248
 2610TIP3   OH2 7786   4.528   3.869   6.291
 2610TIP3    H1 7787   4.562   3.850   6.378
 2610TIP3    H2 7788   4.533   3.965   6.283
 2611TIP3   OH2 7789   3.368   3.881   2.638
 2611TIP3    H1 7790   3.380   3.810   2.574
 2611TIP3    H2 7791   3.279   3.913   2.623
 2612TIP3   OH2 7792   4.491   1.201   6.527
 2612TIP3    H1 7793   4.515   1.201   6.434
 2612TIP3    H2 7794   4.397   1.221   6.527
 2613TIP3   OH2 7795   7.130   2.134   1.676
 2613TIP3    H1 7796   7.040   2.106   1.691
 2613TIP3    H2 7797   7.149   2.193   1.749
 2614TIP3   OH2 7798   0.769   3.391   2.556
 2614TIP3    H1 7799   0.798   3.352   2.639
 2614TIP3    H2 7800   0.789   3.325   2.490
 2615TIP3   OH2 7801   3.494   4.122   5.344
 2615TIP3    H1 7802   3.438   4.167   5.281
 2615TIP3    H2 7803   3.570   4.094   5.293
 2616TIP3   OH2 7804   1.986   3.572   1.329
 2616TIP3    H1 7805   1.952   3.525   1.254
 2616TIP3    H2 7806   1.910   3.617   1.366
 2617TIP3   OH2 7807   5.445   2.791   4.747
 2617TIP3    H1 7808   5.357   2.761   4.726
 2617TIP3    H2 7809   5.472   2.737   4.821
 2618TIP3   OH2 7810   2.002   3.143   1.483
 2618TIP3    H1 7811   1.946   3.125   1.558
 2618TIP3    H2 7812   1.948   3.119   1.407
 2619TIP3   OH2 7813   3.871   3.585   2.580
 2619TIP3    H1 7814   3.803   3.623   2.635
 2619TIP3    H2 7815   3.860   3.490   2.592
 2620TIP3   OH2 7816   7.503   0.452   1.346
 2620TIP3    H1 7817   7.478   0.365   1.313
 2620TIP3    H2 7818   7.597   0.445   1.362
 2621TIP3   OH2 7819   3.706   1.058   5.323
 2621TIP3    H1 7820   3.783   1.096   5.366
 2621TIP3    H2 7821   3.699   1.106   5.241
 2622TIP3   OH2 7822   6.421   7.163   4.307
 2622TIP3    H1 7823   6.341   7.216   4.308
 2622TIP3    H2 7824   6.406   7.099   4.238
 2623TIP3   OH2 7825   0.986   6.225   6.497
 2623TIP3    H1 7826   0.973   6.253   6.407
 2623TIP3    H2 7827   1.007   6.305   6.545
 2624TIP3   OH2 7828   1.517   1.316   5.661
 2624TIP3    H1 7829   1.472   1.384   5.712
 2624TIP3    H2 7830   1.595   1.295   5.712
 2625TIP3   OH2 7831   6.927   0.602   5.653
 2625TIP3    H1 7832   6.865   0.674   5.644
 2625TIP3    H2 7833   7.007   0.633   5.610
 2626TIP3   OH2 7834   1.166   0.594   3.743
 2626TIP3    H1 7835   1.238   0.647   3.778
 2626TIP3    H2 7836   1.113   0.572   3.820
 2627TIP3   OH2 7837   3.054   2.375   0.324
 2627TIP3    H1 7838   2.979   2.433   0.314
 2627TIP3    H2 7839   3.077   2.350   0.234
 2628TIP3   OH2 7840   0.250   6.056   4.450
 2628TIP3    H1 7841   0.279   5.973   4.412
 2628TIP3    H2 7842   0.155   6.047   4.457
 2629TIP3   OH2 7843   7.202   3.230   2.739
 2629TIP3    H1 7844   7.135   3.179   2.786
 2629TIP3    H2 7845   7.283   3.213   2.787
 2630TIP3   OH2 7846   0.583   1.075   6.010
 2630TIP3    H1 7847   0.528   1.091   5.933
 2630TIP3    H2 7848   0.627   0.992   5.991
 2631TIP3   OH2 7849   2.144   3.091   3.295
 2631TIP3    H1 7850   2.057   3.118   3.327
 2631TIP3    H2 7851   2.192   3.173   3.284
 2632TIP3   OH2 7852   1.316   6.063   4.287
 2632TIP3    H1 7853   1.255   6.063   4.213
 2632TIP3    H2 7854   1.377   6.134   4.268
 2633TIP3   OH2 7855   0.553   1.022   3.545
 2633TIP3    H1 7856   0.554   1.046   3.637
 2633TIP3    H2 7857   0.564   1.105   3.499
 2634TIP3   OH2 7858   0.485   5.041   5.111
 2634TIP3    H1 7859   0.535   4.964   5.083
 2634TIP3    H2 7860   0.541   5.116   5.091
 2635TIP3   OH2 7861   2.548   3.549   0.942
 2635TIP3    H1 7862   2.463   3.554   0.984
 2635TIP3    H2 7863   2.604   3.505   1.007
 2636TIP3   OH2 7864   7.944   0.225   4.670
 2636TIP3    H1 7865   7.980   0.278   4.741
 2636TIP3    H2 7866   7.972   0.136   4.690
 2637TIP3   OH2 7867   3.886   1.395   3.500
 2637TIP3    H1 7868   3.979   1.377   3.511
 2637TIP3    H2 7869   3.842   1.334   3.560
 2638TIP3   OH2 7870   0.443   5.245   2.337
 2638TIP3    H1 7871   0.383   5.195   2.392
 2638TIP3    H2 7872   0.524   5.250   2.389
 2639TIP3   OH2 7873   0.323   4.726   3.485
 2639TIP3    H1 7874   0.338   4.813   3.449
 2639TIP3    H2 7875   0.370   4.727   3.569
 2640TIP3   OH2 7876   3.714   4.969   1.127
 2640TIP3    H1 7877   3.768   4.911   1.180
 2640TIP3    H2 7878   3.660   4.910   1.074
 2641TIP3   OH2 7879   3.679   1.035   4.212
 2641TIP3    H1 7880   3.720   0.988   4.140
 2641TIP3    H2 7881   3.682   1.127   4.185
 2642TIP3   OH2 7882   2.483   6.011   1.233
 2642TIP3    H1 7883   2.415   6.074   1.257
 2642TIP3    H2 7884   2.443   5.958   1.164
 2643TIP3   OH2 7885   4.795   7.391   5.945
 2643TIP3    H1 7886   4.754   7.362   6.026
 2643TIP3    H2 7887   4.750   7.472   5.922
 2644TIP3   OH2 7888   5.877   0.459   0.254
 2644TIP3    H1 7889   5.959   0.486   0.295
 2644TIP3    H2 7890   5.868   0.517   0.178
 2645TIP3   OH2 7891   7.500   6.115   4.958
 2645TIP3    H1 7892   7.505   6.020   4.951
 2645TIP3    H2 7893   7.471   6.132   5.047
 2646TIP3   OH2 7894   3.508   4.500   1.698
 2646TIP3    H1 7895   3.567   4.438   1.741
 2646TIP3    H2 7896   3.446   4.526   1.765
 2647TIP3   OH2 7897   7.549   7.653   5.406
 2647TIP3    H1 7898   7.462   7.655   5.367
 2647TIP3    H2 7899   7.541   7.707   5.485
 2648TIP3   OH2 7900   1.444   4.808   5.916
 2648TIP3    H1 7901   1.469   4.881   5.859
 2648TIP3    H2 7902   1.527   4.768   5.942
 2649TIP3   OH2 7903   3.291   6.967   6.688
 2649TIP3    H1 7904   3.223   7.035   6.683
 2649TIP3    H2 7905   3.374   7.015   6.678
 2650TIP3   OH2 7906   3.345   1.927   4.498
 2650TIP3    H1 7907   3.258   1.921   4.538
 2650TIP3    H2 7908   3.384   2.006   4.538
 2651TIP3   OH2 7909   4.952   3.740   6.117
 2651TIP3    H1 7910   5.003   3.801   6.170
 2651TIP3    H2 7911   5.005   3.660   6.115
 2652TIP3   OH2 7912   3.431   5.715   2.681
 2652TIP3    H1 7913   3.477   5.665   2.749
 2652TIP3    H2 7914   3.493   5.720   2.608
 2653TIP3   OH2 7915   4.572   2.274   0.510
 2653TIP3    H1 7916   4.535   2.317   0.433
 2653TIP3    H2 7917   4.502   2.215   0.539
 2654TIP3   OH2 7918   4.002   4.034   3.255
 2654TIP3    H1 7919   3.992   3.991   3.340
 2654TIP3    H2 7920   4.006   3.962   3.192
 2655TIP3   OH2 7921   8.110   7.335   1.463
 2655TIP3    H1 7922   8.117   7.261   1.404
 2655TIP3    H2 7923   8.135   7.300   1.549
 2656TIP3   OH2 7924   7.939   2.527   5.537
 2656TIP3    H1 7925   7.953   2.435   5.513
 2656TIP3    H2 7926   7.940   2.574   5.454
 2657TIP3   OH2 7927   7.976   7.305   5.800
 2657TIP3    H1 7928   8.018   7.371   5.855
 2657TIP3    H2 7929   7.984   7.223   5.850
 2658TIP3   OH2 7930   5.513   6.125   3.827
 2658TIP3    H1 7931   5.496   6.141   3.920
 2658TIP3    H2 7932   5.436   6.078   3.797
 2659TIP3   OH2 7933   2.100   6.067   3.712
 2659TIP3    H1 7934   2.010   6.090   3.691
 2659TIP3    H2 7935   2.123   5.997   3.651
 2660TIP3   OH2 7936   2.594   4.385   4.786
 2660TIP3    H1 7937   2.554   4.434   4.858
 2660TIP3    H2 7938   2.688   4.393   4.801
 2661TIP3   OH2 7939   0.398   3.478   4.861
 2661TIP3    H1 7940   0.402   3.387   4.831
 2661TIP3    H2 7941   0.488   3.501   4.882
 2662TIP3   OH2 7942   7.888   6.091   1.595
 2662TIP3    H1 7943   7.822   6.070   1.529
 2662TIP3    H2 7944   7.837   6.124   1.669
 2663TIP3   OH2 7945   0.336   4.019   6.081
 2663TIP3    H1 7946   0.349   4.063   6.165
 2663TIP3    H2 7947   0.404   4.055   6.024
 2664TIP3   OH2 7948   6.820   1.421   2.487
 2664TIP3    H1 7949   6.866   1.385   2.563
 2664TIP3    H2 7950   6.776   1.346   2.448
 2665TIP3   OH2 7951   5.262   5.169   5.026
 2665TIP3    H1 7952   5.319   5.135   5.094
 2665TIP3    H2 7953   5.218   5.244   5.067
 2666TIP3   OH2 7954   2.246   5.782   0.631
 2666TIP3    H1 7955   2.235   5.779   0.726
 2666TIP3    H2 7956   2.339   5.796   0.618
 2667TIP3   OH2 7957   6.871   6.438   4.425
 2667TIP3    H1 7958   6.856   6.509   4.362
 2667TIP3    H2 7959   6.858   6.478   4.511
 2668TIP3   OH2 7960   2.555   3.052   5.945
 2668TIP3    H1 7961   2.644   3.023   5.928
 2668TIP3    H2 7962   2.502   3.007   5.879
 2669TIP3   OH2 7963   1.248   7.378   4.058
 2669TIP3    H1 7964   1.337   7.405   4.077
 2669TIP3    H2 7965   1.193   7.434   4.114
 2670TIP3   OH2 7966   0.178   6.928   5.774
 2670TIP3    H1 7967   0.143   7.017   5.774
 2670TIP3    H2 7968   0.192   6.908   5.867
 2671TIP3   OH2 7969   0.256   3.924   1.369
 2671TIP3    H1 7970   0.228   3.884   1.451
 2671TIP3    H2 7971   0.186   3.905   1.307
 2672TIP3   OH2 7972   1.644   4.820   3.298
 2672TIP3    H1 7973   1.648   4.894   3.359
 2672TIP3    H2 7974   1.572   4.842   3.239
 2673TIP3   OH2 7975   3.747   5.446   0.570
 2673TIP3    H1 7976   3.696   5.526   0.578
 2673TIP3    H2 7977   3.683   5.378   0.552
 2674TIP3   OH2 7978   3.245   4.862   3.521
 2674TIP3    H1 7979   3.220   4.954   3.521
 2674TIP3    H2 7980   3.321   4.858   3.579
 2675TIP3   OH2 7981   7.093   3.712   6.063
 2675TIP3    H1 7982   7.045   3.629   6.073
 2675TIP3    H2 7983   7.030   3.779   6.090
 2676TIP3   OH2 7984   3.406   3.443   4.586
 2676TIP3    H1 7985   3.447   3.528   4.568
 2676TIP3    H2 7986   3.377   3.412   4.500
 2677TIP3   OH2 7987   6.911   0.404   5.316
 2677TIP3    H1 7988   6.963   0.346   5.371
 2677TIP3    H2 7989   6.964   0.417   5.237
 2678TIP3   OH2 7990   7.220   0.002   1.492
 2678TIP3    H1 7991   7.146   0.046   1.534
 2678TIP3    H2 7992   7.296   0.053   1.518
 2679TIP3   OH2 7993   8.141   4.887   0.805
 2679TIP3    H1 7994   8.194   4.966   0.798
 2679TIP3    H2 7995   8.192   4.830   0.864
 2680TIP3   OH2 7996   0.101   4.578   1.786
 2680TIP3    H1 7997   0.096   4.484   1.806
 2680TIP3    H2 7998   0.163   4.613   1.849
 2681TIP3   OH2 7999   2.420   4.931   1.585
 2681TIP3    H1 8000   2.412   4.877   1.506
 2681TIP3    H2 8001   2.333   4.968   1.598
 2682TIP3   OH2 8002   3.049   6.643   3.065
 2682TIP3    H1 8003   3.037   6.735   3.041
 2682TIP3    H2 8004   2.960   6.608   3.071
 2683TIP3   OH2 8005   3.788   7.512   3.355
 2683TIP3    H1 8006   3.727   7.585   3.361
 2683TIP3    H2 8007   3.874   7.552   3.350
 2684TIP3   OH2 8008   2.514   7.730   6.767
 2684TIP3    H1 8009   2.509   7.637   6.787
 2684TIP3    H2 8010   2.450   7.744   6.697
 2685TIP3   OH2 8011   3.016   1.330   2.906
 2685TIP3    H1 8012   2.957   1.399   2.935
 2685TIP3    H2 8013   2.962   1.276   2.848
 2686TIP3   OH2 8014   4.552   5.661   4.324
 2686TIP3    H1 8015   4.609   5.721   4.276
 2686TIP3    H2 8016   4.606   5.632   4.398
 2687TIP3   OH2 8017   4.645   3.165   2.630
 2687TIP3    H1 8018   4.715   3.107   2.658
 2687TIP3    H2 8019   4.628   3.142   2.539
 2688TIP3   OH2 8020   7.607   3.937   3.552
 2688TIP3    H1 8021   7.701   3.931   3.532
 2688TIP3    H2 8022   7.568   3.865   3.502
 2689TIP3   OH2 8023   0.045   3.067   6.153
 2689TIP3    H1 8024   0.057   3.162   6.147
 2689TIP3    H2 8025   0.133   3.032   6.164
 2690TIP3   OH2 8026   5.637   5.724   2.637
 2690TIP3    H1 8027   5.598   5.796   2.587
 2690TIP3    H2 8028   5.726   5.752   2.655
 2691TIP3   OH2 8029   0.898   5.636   2.404
 2691TIP3    H1 8030   0.851   5.709   2.444
 2691TIP3    H2 8031   0.872   5.639   2.312
 2692TIP3   OH2 8032   5.863   5.558   3.117
 2692TIP3    H1 8033   5.814   5.475   3.125
 2692TIP3    H2 8034   5.798   5.625   3.137
 2693TIP3   OH2 8035   5.810   4.615   4.882
 2693TIP3    H1 8036   5.769   4.625   4.967
 2693TIP3    H2 8037   5.808   4.702   4.842
 2694TIP3   OH2 8038   5.934   0.059   4.963
 2694TIP3    H1 8039   5.954   0.004   4.887
 2694TIP3    H2 8040   6.016   0.105   4.981
 2695TIP3   OH2 8041   2.402   7.544   4.635
 2695TIP3    H1 8042   2.365   7.622   4.675
 2695TIP3    H2 8043   2.327   7.497   4.598
 2696TIP3   OH2 8044   7.606   0.179   2.277
 2696TIP3    H1 8045   7.628   0.151   2.188
 2696TIP3    H2 8046   7.690   0.194   2.320
 2697TIP3   OH2 8047   5.322   6.297   6.216
 2697TIP3    H1 8048   5.247   6.282   6.274
 2697TIP3    H2 8049   5.366   6.212   6.212
 2698TIP3   OH2 8050   4.152   3.336   1.540
 2698TIP3    H1 8051   4.091   3.263   1.529
 2698TIP3    H2 8052   4.217   3.302   1.602
 2699TIP3   OH2 8053   1.642   7.242   5.132
 2699TIP3    H1 8054   1.694   7.172   5.093
 2699TIP3    H2 8055   1.583   7.197   5.193
 2700TIP3   OH2 8056   6.848   5.733   4.723
 2700TIP3    H1 8057   6.782   5.734   4.654
 2700TIP3    H2 8058   6.807   5.778   4.797
 2701TIP3   OH2 8059   1.066   1.740   6.693
 2701TIP3    H1 8060   1.016   1.701   6.622
 2701TIP3    H2 8061   1.058   1.677   6.765
 2702TIP3   OH2 8062   7.221   6.089   4.485
 2702TIP3    H1 8063   7.150   6.147   4.511
 2702TIP3    H2 8064   7.178   6.007   4.462
 2703TIP3   OH2 8065   4.993   0.675   3.740
 2703TIP3    H1 8066   5.057   0.744   3.724
 2703TIP3    H2 8067   4.987   0.670   3.836
 2704TIP3   OH2 8068   5.237   1.677   0.941
 2704TIP3    H1 8069   5.156   1.663   0.893
 2704TIP3    H2 8070   5.272   1.760   0.907
 2705TIP3   OH2 8071   6.372   3.282   3.553
 2705TIP3    H1 8072   6.440   3.249   3.494
 2705TIP3    H2 8073   6.420   3.342   3.611
 2706TIP3   OH2 8074   1.092   2.069   0.395
 2706TIP3    H1 8075   1.006   2.110   0.406
 2706TIP3    H2 8076   1.080   1.979   0.427
 2707TIP3   OH2 8077   2.742   7.550   5.909
 2707TIP3    H1 8078   2.738   7.617   5.841
 2707TIP3    H2 8079   2.810   7.490   5.880
 2708TIP3   OH2 8080   0.237   7.387   6.323
 2708TIP3    H1 8081   0.148   7.407   6.292
 2708TIP3    H2 8082   0.244   7.433   6.407
 2709TIP3   OH2 8083   5.276   4.418   2.945
 2709TIP3    H1 8084   5.364   4.391   2.973
 2709TIP3    H2 8085   5.217   4.372   3.004
 2710TIP3   OH2 8086   5.710   3.967   5.759
 2710TIP3    H1 8087   5.717   4.057   5.728
 2710TIP3    H2 8088   5.767   3.917   5.701
 2711TIP3   OH2 8089   0.685   5.274   3.375
 2711TIP3    H1 8090   0.672   5.179   3.371
 2711TIP3    H2 8091   0.682   5.294   3.469
 2712TIP3   OH2 8092   7.799   1.090   5.416
 2712TIP3    H1 8093   7.827   1.126   5.332
 2712TIP3    H2 8094   7.761   1.165   5.463
 2713TIP3   OH2 8095   7.981   0.506   0.337
 2713TIP3    H1 8096   8.070   0.491   0.305
 2713TIP3    H2 8097   7.934   0.425   0.318
 2714TIP3   OH2 8098   6.011   1.686   2.860
 2714TIP3    H1 8099   6.008   1.781   2.863
 2714TIP3    H2 8100   6.095   1.667   2.817
 2715TIP3   OH2 8101   4.716   6.233   3.528
 2715TIP3    H1 8102   4.788   6.181   3.563
 2715TIP3    H2 8103   4.645   6.220   3.590
 2716TIP3   OH2 8104   2.318   4.667   0.191
 2716TIP3    H1 8105   2.392   4.638   0.137
 2716TIP3    H2 8106   2.266   4.722   0.133
 2717TIP3   OH2 8107   2.558   4.557   6.223
 2717TIP3    H1 8108   2.522   4.470   6.239
 2717TIP3    H2 8109   2.651   4.549   6.245
 2718TIP3   OH2 8110   0.278   7.336   6.670
 2718TIP3    H1 8111   0.315   7.352   6.756
 2718TIP3    H2 8112   0.252   7.243   6.672
 2719TIP3   OH2 8113   1.633   0.459   2.386
 2719TIP3    H1 8114   1.674   0.412   2.314
 2719TIP3    H2 8115   1.648   0.551   2.367
 2720TIP3   OH2 8116   1.467   2.853   5.308
 2720TIP3    H1 8117   1.561   2.861   5.325
 2720TIP3    H2 8118   1.461   2.835   5.214
 2721TIP3   OH2 8119   6.406   1.945   0.858
 2721TIP3    H1 8120   6.459   1.870   0.887
 2721TIP3    H2 8121   6.449   2.021   0.898
 2722TIP3   OH2 8122   6.106   1.691   3.854
 2722TIP3    H1 8123   6.109   1.616   3.913
 2722TIP3    H2 8124   6.195   1.699   3.821
 2723TIP3   OH2 8125   1.794   0.229   0.764
 2723TIP3    H1 8126   1.772   0.315   0.729
 2723TIP3    H2 8127   1.741   0.222   0.844
 2724TIP3   OH2 8128   0.302   5.843   5.364
 2724TIP3    H1 8129   0.286   5.846   5.270
 2724TIP3    H2 8130   0.373   5.906   5.379
 2725TIP3   OH2 8131   8.280   3.347   0.653
 2725TIP3    H1 8132   8.236   3.388   0.727
 2725TIP3    H2 8133   8.217   3.282   0.621
 2726TIP3   OH2 8134   3.506   4.191   3.528
 2726TIP3    H1 8135   3.505   4.099   3.551
 2726TIP3    H2 8136   3.416   4.220   3.541
 2727TIP3   OH2 8137   6.793   5.465   4.285
 2727TIP3    H1 8138   6.761   5.444   4.373
 2727TIP3    H2 8139   6.874   5.416   4.276
 2728TIP3   OH2 8140   4.296   7.020   1.152
 2728TIP3    H1 8141   4.228   7.005   1.217
 2728TIP3    H2 8142   4.372   6.971   1.183
 2729TIP3   OH2 8143   0.042   3.690   2.637
 2729TIP3    H1 8144   0.046   3.634   2.559
 2729TIP3    H2 8145   0.072   3.776   2.606
 2730TIP3   OH2 8146   3.090   1.810   6.313
 2730TIP3    H1 8147   3.073   1.725   6.271
 2730TIP3    H2 8148   3.063   1.875   6.248
 2731TIP3   OH2 8149   2.105   6.992   3.792
 2731TIP3    H1 8150   2.106   7.002   3.887
 2731TIP3    H2 8151   2.125   7.079   3.758
 2732TIP3   OH2 8152   7.950   4.798   4.639
 2732TIP3    H1 8153   7.892   4.760   4.704
 2732TIP3    H2 8154   7.969   4.886   4.672
 2733TIP3   OH2 8155   0.722   0.394   4.149
 2733TIP3    H1 8156   0.656   0.338   4.190
 2733TIP3    H2 8157   0.720   0.474   4.202
 2734TIP3   OH2 8158   1.081   6.399   6.150
 2734TIP3    H1 8159   1.043   6.417   6.236
 2734TIP3    H2 8160   1.008   6.409   6.089
 2735TIP3   OH2 8161   5.094   4.793   0.578
 2735TIP3    H1 8162   5.148   4.802   0.499
 2735TIP3    H2 8163   5.155   4.805   0.651
 2736TIP3   OH2 8164   3.119   3.750   2.603
 2736TIP3    H1 8165   3.176   3.673   2.608
 2736TIP3    H2 8166   3.036   3.716   2.569
 2737TIP3   OH2 8167   2.568   0.132   1.756
 2737TIP3    H1 8168   2.510   0.208   1.746
 2737TIP3    H2 8169   2.642   0.166   1.807
 2738TIP3   OH2 8170   0.671   7.553   1.639
 2738TIP3    H1 8171   0.742   7.496   1.669
 2738TIP3    H2 8172   0.591   7.502   1.654
 2739TIP3   OH2 8173   0.248   6.128   1.937
 2739TIP3    H1 8174   0.189   6.152   2.008
 2739TIP3    H2 8175   0.334   6.161   1.965
 2740TIP3   OH2 8176   0.423   5.081   5.740
 2740TIP3    H1 8177   0.349   5.098   5.798
 2740TIP3    H2 8178   0.403   5.129   5.659
 2741TIP3   OH2 8179   0.890   7.741   4.196
 2741TIP3    H1 8180   0.955   7.756   4.127
 2741TIP3    H2 8181   0.836   7.820   4.195
 2742TIP3   OH2 8182   2.813   6.217   4.114
 2742TIP3    H1 8183   2.889   6.167   4.144
 2742TIP3    H2 8184   2.817   6.299   4.163
 2743TIP3   OH2 8185   7.480   7.098   5.361
 2743TIP3    H1 8186   7.530   7.180   5.356
 2743TIP3    H2 8187   7.485   7.073   5.453
 2744TIP3   OH2 8188   4.855   2.221   5.111
 2744TIP3    H1 8189   4.769   2.246   5.076
 2744TIP3    H2 8190   4.835   2.185   5.198
 2745TIP3   OH2 8191   7.298   3.953   3.438
 2745TIP3    H1 8192   7.294   4.035   3.486
 2745TIP3    H2 8193   7.309   3.978   3.347
 2746TIP3   OH2 8194   2.768   1.783   0.517
 2746TIP3    H1 8195   2.759   1.722   0.590
 2746TIP3    H2 8196   2.722   1.741   0.444
 2747TIP3   OH2 8197   4.187   0.485   1.532
 2747TIP3    H1 8198   4.159   0.538   1.457
 2747TIP3    H2 8199   4.252   0.425   1.496
 2748TIP3   OH2 8200   0.141   1.323   5.394
 2748TIP3    H1 8201   0.109   1.327   5.484
 2748TIP3    H2 8202   0.071   1.364   5.342
 2749TIP3   OH2 8203   7.556   7.312   4.288
 2749TIP3    H1 8204   7.615   7.364   4.234
 2749TIP3    H2 8205   7.547   7.229   4.241
 2750TIP3   OH2 8206   4.763   7.446   4.244
 2750TIP3    H1 8207   4.733   7.424   4.156
 2750TIP3    H2 8208   4.699   7.508   4.276
 2751TIP3   OH2 8209   1.919   6.701   2.491
 2751TIP3    H1 8210   1.843   6.750   2.459
 2751TIP3    H2 8211   1.882   6.634   2.549
 2752TIP3   OH2 8212   5.883   0.747   1.606
 2752TIP3    H1 8213   5.949   0.685   1.636
 2752TIP3    H2 8214   5.813   0.692   1.570
 2753TIP3   OH2 8215   0.206   7.711   5.151
 2753TIP3    H1 8216   0.295   7.741   5.169
 2753TIP3    H2 8217   0.214   7.661   5.070
 2754TIP3   OH2 8218   0.927   5.484   0.467
 2754TIP3    H1 8219   0.880   5.526   0.538
 2754TIP3    H2 8220   0.863   5.476   0.396
 2755TIP3   OH2 8221   5.274   6.397   3.757
 2755TIP3    H1 8222   5.304   6.440   3.677
 2755TIP3    H2 8223   5.225   6.321   3.727
 2756TIP3   OH2 8224   7.343   4.602   1.922
 2756TIP3    H1 8225   7.399   4.557   1.859
 2756TIP3    H2 8226   7.265   4.547   1.930
 2757TIP3   OH2 8227   3.751   3.198   3.252
 2757TIP3    H1 8228   3.731   3.105   3.261
 2757TIP3    H2 8229   3.823   3.200   3.188
 2758TIP3   OH2 8230   7.849   5.029   2.267
 2758TIP3    H1 8231   7.875   5.118   2.247
 2758TIP3    H2 8232   7.755   5.027   2.248
 2759TIP3   OH2 8233   1.391   1.384   1.989
 2759TIP3    H1 8234   1.437   1.414   1.911
 2759TIP3    H2 8235   1.376   1.464   2.040
 2760TIP3   OH2 8236   1.175   1.039   4.725
 2760TIP3    H1 8237   1.161   0.990   4.806
 2760TIP3    H2 8238   1.243   1.102   4.747
 2761TIP3   OH2 8239   1.753   6.837   4.070
 2761TIP3    H1 8240   1.773   6.877   3.985
 2761TIP3    H2 8241   1.659   6.819   4.067
 2762TIP3   OH2 8242   6.746   3.477   0.277
 2762TIP3    H1 8243   6.679   3.412   0.298
 2762TIP3    H2 8244   6.824   3.448   0.324
 2763TIP3   OH2 8245   1.694   5.781   0.124
 2763TIP3    H1 8246   1.691   5.748   0.034
 2763TIP3    H2 8247   1.612   5.751   0.164
 2764TIP3   OH2 8248   1.315   6.283   6.775
 2764TIP3    H1 8249   1.374   6.284   6.700
 2764TIP3    H2 8250   1.247   6.219   6.752
 2765TIP3   OH2 8251   1.081   5.856   6.263
 2765TIP3    H1 8252   1.091   5.765   6.236
 2765TIP3    H2 8253   1.075   5.904   6.180
 2766TIP3   OH2 8254   0.648   1.174   2.734
 2766TIP3    H1 8255   0.625   1.165   2.641
 2766TIP3    H2 8256   0.584   1.235   2.769
 2767TIP3   OH2 8257   4.794   1.030   0.579
 2767TIP3    H1 8258   4.880   1.025   0.620
 2767TIP3    H2 8259   4.792   0.956   0.518
 2768TIP3   OH2 8260   4.641   4.903   2.213
 2768TIP3    H1 8261   4.609   4.894   2.123
 2768TIP3    H2 8262   4.590   4.975   2.250
 2769TIP3   OH2 8263   3.890   7.409   4.688
 2769TIP3    H1 8264   3.914   7.470   4.757
 2769TIP3    H2 8265   3.956   7.339   4.694
 2770TIP3   OH2 8266   7.540   5.180   2.769
 2770TIP3    H1 8267   7.469   5.122   2.793
 2770TIP3    H2 8268   7.593   5.130   2.707
 2771TIP3   OH2 8269   4.436   5.628   2.204
 2771TIP3    H1 8270   4.383   5.576   2.144
 2771TIP3    H2 8271   4.478   5.694   2.148
 2772TIP3   OH2 8272   2.708   6.642   1.146
 2772TIP3    H1 8273   2.633   6.694   1.177
 2772TIP3    H2 8274   2.672   6.555   1.129
 2773TIP3   OH2 8275   6.046   2.195   5.199
 2773TIP3    H1 8276   5.967   2.235   5.236
 2773TIP3    H2 8277   6.108   2.193   5.272
 2774TIP3   OH2 8278   4.504   1.880   6.227
 2774TIP3    H1 8279   4.475   1.797   6.262
 2774TIP3    H2 8280   4.444   1.898   6.154
 2775TIP3   OH2 8281   7.211   5.875   0.405
 2775TIP3    H1 8282   7.183   5.790   0.438
 2775TIP3    H2 8283   7.168   5.883   0.320
 2776TIP3   OH2 8284   2.220   1.573   1.474
 2776TIP3    H1 8285   2.149   1.637   1.482
 2776TIP3    H2 8286   2.245   1.577   1.381
 2777TIP3   OH2 8287   6.584   7.762   2.458
 2777TIP3    H1 8288   6.493   7.771   2.430
 2777TIP3    H2 8289   6.587   7.680   2.507
 2778TIP3   OH2 8290   1.505   0.354   6.195
 2778TIP3    H1 8291   1.565   0.300   6.246
 2778TIP3    H2 8292   1.546   0.441   6.193
 2779TIP3   OH2 8293   7.090   0.211   1.023
 2779TIP3    H1 8294   7.056   0.202   0.934
 2779TIP3    H2 8295   7.178   0.173   1.018
 2780TIP3   OH2 8296   3.784   4.764   4.789
 2780TIP3    H1 8297   3.810   4.852   4.760
 2780TIP3    H2 8298   3.732   4.780   4.868
 2781TIP3   OH2 8299   7.956   6.471   3.116
 2781TIP3    H1 8300   7.921   6.529   3.048
 2781TIP3    H2 8301   7.941   6.383   3.083
 2782TIP3   OH2 8302   6.608   1.847   4.414
 2782TIP3    H1 8303   6.669   1.906   4.457
 2782TIP3    H2 8304   6.583   1.784   4.481
 2783TIP3   OH2 8305   5.866   6.643   4.725
 2783TIP3    H1 8306   5.854   6.551   4.700
 2783TIP3    H2 8307   5.954   6.646   4.761
 2784TIP3   OH2 8308   0.609   0.578   2.894
 2784TIP3    H1 8309   0.655   0.613   2.971
 2784TIP3    H2 8310   0.653   0.619   2.819
 2785TIP3   OH2 8311   2.207   6.148   6.403
 2785TIP3    H1 8312   2.124   6.110   6.374
 2785TIP3    H2 8313   2.185   6.192   6.486
 2786TIP3   OH2 8314   6.550   1.369   5.066
 2786TIP3    H1 8315   6.521   1.448   5.111
 2786TIP3    H2 8316   6.545   1.391   4.973
 2787TIP3   OH2 8317   2.735   0.263   4.269
 2787TIP3    H1 8318   2.749   0.349   4.309
 2787TIP3    H2 8319   2.789   0.263   4.190
 2788TIP3   OH2 8320   6.003   6.336   6.365
 2788TIP3    H1 8321   5.917   6.322   6.325
 2788TIP3    H2 8322   6.024   6.427   6.346
 2789TIP3   OH2 8323   2.969   5.536   0.031
 2789TIP3    H1 8324   2.899   5.482  -0.005
 2789TIP3    H2 8325   2.996   5.592  -0.042
 2790TIP3   OH2 8326   7.057   5.709   2.592
 2790TIP3    H1 8327   7.028   5.787   2.639
 2790TIP3    H2 8328   7.147   5.695   2.624
 2791TIP3   OH2 8329   1.645   5.547   2.123
 2791TIP3    H1 8330   1.576   5.599   2.164
 2791TIP3    H2 8331   1.620   5.456   2.140
 2792TIP3   OH2 8332   2.494   0.711   1.268
 2792TIP3    H1 8333   2.467   0.667   1.349
 2792TIP3    H2 8334   2.439   0.671   1.200
 2793TIP3   OH2 8335   5.009   5.372   2.220
 2793TIP3    H1 8336   4.958   5.327   2.287
 2793TIP3    H2 8337   4.986   5.328   2.138
 2794TIP3   OH2 8338   5.709   6.232   2.411
 2794TIP3    H1 8339   5.769   6.186   2.352
 2794TIP3    H2 8340   5.623   6.224   2.370
 2795TIP3   OH2 8341   0.154   0.569   5.674
 2795TIP3    H1 8342   0.153   0.476   5.698
 2795TIP3    H2 8343   0.117   0.614   5.749
 2796TIP3   OH2 8344   2.366   1.443   0.315
 2796TIP3    H1 8345   2.408   1.437   0.401
 2796TIP3    H2 8346   2.373   1.355   0.279
 2797TIP3   OH2 8347   0.581   3.386   5.179
 2797TIP3    H1 8348   0.538   3.414   5.260
 2797TIP3    H2 8349   0.520   3.325   5.139
 2798TIP3   OH2 8350   5.123   3.915   5.031
 2798TIP3    H1 8351   5.068   3.915   4.953
 2798TIP3    H2 8352   5.061   3.907   5.104
 2799TIP3   OH2 8353   5.360   7.511   1.060
 2799TIP3    H1 8354   5.372   7.416   1.062
 2799TIP3    H2 8355   5.360   7.533   0.967
 2800TIP3   OH2 8356   0.156   3.175   5.208
 2800TIP3    H1 8357   0.161   3.124   5.289
 2800TIP3    H2 8358   0.063   3.181   5.189
 2801TIP3   OH2 8359   2.272   0.605   1.116
 2801TIP3    H1 8360   2.236   0.522   1.145
 2801TIP3    H2 8361   2.291   0.591   1.023
 2802TIP3   OH2 8362   2.611   6.972   4.825
 2802TIP3    H1 8363   2.667   6.915   4.772
 2802TIP3    H2 8364   2.525   6.931   4.821
 2803TIP3   OH2 8365   1.455   3.831   3.224
 2803TIP3    H1 8366   1.535   3.864   3.264
 2803TIP3    H2 8367   1.386   3.887   3.259
 2804TIP3   OH2 8368   7.813   4.406   0.063
 2804TIP3    H1 8369   7.833   4.318   0.032
 2804TIP3    H2 8370   7.894   4.435   0.105
 2805TIP3   OH2 8371   0.907   2.802   1.564
 2805TIP3    H1 8372   0.961   2.754   1.627
 2805TIP3    H2 8373   0.855   2.734   1.520
 2806TIP3   OH2 8374   0.397   2.207   0.558
 2806TIP3    H1 8375   0.436   2.126   0.589
 2806TIP3    H2 8376   0.423   2.273   0.622
 2807TIP3   OH2 8377   3.455   5.313   2.461
 2807TIP3    H1 8378   3.422   5.355   2.381
 2807TIP3    H2 8379   3.460   5.220   2.439
 2808TIP3   OH2 8380   2.396   5.367   4.362
 2808TIP3    H1 8381   2.335   5.430   4.321
 2808TIP3    H2 8382   2.360   5.281   4.340
 2809TIP3   OH2 8383   6.314   0.222   1.624
 2809TIP3    H1 8384   6.285   0.249   1.537
 2809TIP3    H2 8385   6.329   0.304   1.672
 2810TIP3   OH2 8386   6.268   5.518   4.662
 2810TIP3    H1 8387   6.208   5.443   4.655
 2810TIP3    H2 8388   6.325   5.510   4.585
 2811TIP3   OH2 8389   1.825   0.631   5.808
 2811TIP3    H1 8390   1.859   0.561   5.753
 2811TIP3    H2 8391   1.811   0.704   5.748
 2812TIP3   OH2 8392   1.631   5.487   4.016
 2812TIP3    H1 8393   1.551   5.479   4.067
 2812TIP3    H2 8394   1.685   5.414   4.045
 2813TIP3   OH2 8395   6.575   5.662   4.602
 2813TIP3    H1 8396   6.544   5.637   4.515
 2813TIP3    H2 8397   6.496   5.670   4.655
 2814TIP3   OH2 8398   6.762   4.302   5.679
 2814TIP3    H1 8399   6.785   4.293   5.586
 2814TIP3    H2 8400   6.832   4.357   5.716
 2815TIP3   OH2 8401   5.334   0.742   3.614
 2815TIP3    H1 8402   5.370   0.695   3.539
 2815TIP3    H2 8403   5.388   0.716   3.688
 2816TIP3   OH2 8404   2.903   3.957   5.035
 2816TIP3    H1 8405   2.921   3.929   4.945
 2816TIP3    H2 8406   2.973   3.917   5.087
 2817TIP3   OH2 8407   5.389   6.602   2.912
 2817TIP3    H1 8408   5.307   6.587   2.958
 2817TIP3    H2 8409   5.383   6.691   2.878
 2818TIP3   OH2 8410   4.503   3.286   5.584
 2818TIP3    H1 8411   4.565   3.316   5.517
 2818TIP3    H2 8412   4.461   3.366   5.615
 2819TIP3   OH2 8413   6.862   3.638   2.212
 2819TIP3    H1 8414   6.910   3.555   2.202
 2819TIP3    H2 8415   6.853   3.671   2.123
 2820TIP3   OH2 8416   2.180   5.873   5.537
 2820TIP3    H1 8417   2.229   5.948   5.570
 2820TIP3    H2 8418   2.115   5.912   5.478
 2821TIP3   OH2 8419   0.786   3.441   3.150
 2821TIP3    H1 8420   0.717   3.439   3.216
 2821TIP3    H2 8421   0.750   3.492   3.077
 2822TIP3   OH2 8422   4.643   5.962   3.717
 2822TIP3    H1 8423   4.577   5.957   3.648
 2822TIP3    H2 8424   4.592   5.981   3.797
 2823TIP3   OH2 8425   5.396   5.173   4.760
 2823TIP3    H1 8426   5.366   5.189   4.850
 2823TIP3    H2 8427   5.328   5.119   4.721
 2824TIP3   OH2 8428   7.198   2.315   1.957
 2824TIP3    H1 8429   7.253   2.243   1.987
 2824TIP3    H2 8430   7.258   2.388   1.946
 2825TIP3   OH2 8431   2.256   2.068   0.847
 2825TIP3    H1 8432   2.270   2.068   0.753
 2825TIP3    H2 8433   2.317   2.002   0.880
 2826TIP3   OH2 8434   0.657   0.231   1.018
 2826TIP3    H1 8435   0.665   0.268   1.106
 2826TIP3    H2 8436   0.696   0.297   0.961
 2827TIP3   OH2 8437   6.581   2.479   4.878
 2827TIP3    H1 8438   6.630   2.465   4.797
 2827TIP3    H2 8439   6.489   2.477   4.851
 2828TIP3   OH2 8440   4.728   2.496   2.195
 2828TIP3    H1 8441   4.801   2.553   2.173
 2828TIP3    H2 8442   4.651   2.543   2.162
 2829TIP3   OH2 8443   1.445   5.847   1.077
 2829TIP3    H1 8444   1.426   5.805   0.993
 2829TIP3    H2 8445   1.426   5.940   1.062
 2830TIP3   OH2 8446   3.871   3.379   1.255
 2830TIP3    H1 8447   3.934   3.425   1.311
 2830TIP3    H2 8448   3.786   3.411   1.284
 2831TIP3   OH2 8449   1.473   5.346   3.835
 2831TIP3    H1 8450   1.566   5.361   3.849
 2831TIP3    H2 8451   1.459   5.367   3.743
 2832TIP3   OH2 8452   2.323   1.520   4.970
 2832TIP3    H1 8453   2.389   1.504   5.037
 2832TIP3    H2 8454   2.372   1.562   4.898
 2833TIP3   OH2 8455   7.482   0.466   6.481
 2833TIP3    H1 8456   7.549   0.488   6.546
 2833TIP3    H2 8457   7.414   0.532   6.494
 2834TIP3   OH2 8458   7.029   7.296   3.855
 2834TIP3    H1 8459   7.094   7.277   3.787
 2834TIP3    H2 8460   7.066   7.369   3.905
 2835TIP3   OH2 8461   6.397   3.246   1.060
 2835TIP3    H1 8462   6.460   3.194   1.110
 2835TIP3    H2 8463   6.348   3.182   1.010
 2836TIP3   OH2 8464   1.403   4.036   2.705
 2836TIP3    H1 8465   1.429   3.945   2.719
 2836TIP3    H2 8466   1.410   4.048   2.610
 2837TIP3   OH2 8467   4.654   0.696   5.801
 2837TIP3    H1 8468   4.574   0.720   5.848
 2837TIP3    H2 8469   4.702   0.779   5.792
 2838TIP3   OH2 8470   7.413   2.529   5.444
 2838TIP3    H1 8471   7.324   2.558   5.461
 2838TIP3    H2 8472   7.414   2.438   5.475
 2839TIP3   OH2 8473   4.219   4.001   6.000
 2839TIP3    H1 8474   4.214   3.945   6.077
 2839TIP3    H2 8475   4.253   4.084   6.033
 2840TIP3   OH2 8476   4.870   1.029   0.053
 2840TIP3    H1 8477   4.872   0.964  -0.018
 2840TIP3    H2 8478   4.792   1.081   0.036
 2841TIP3   OH2 8479   2.556   6.836   1.255
 2841TIP3    H1 8480   2.500   6.818   1.330
 2841TIP3    H2 8481   2.608   6.912   1.282
 2842TIP3   OH2 8482   3.440   6.414   1.623
 2842TIP3    H1 8483   3.390   6.447   1.697
 2842TIP3    H2 8484   3.374   6.384   1.560
 2843TIP3   OH2 8485   0.416   6.306   4.730
 2843TIP3    H1 8486   0.499   6.263   4.754
 2843TIP3    H2 8487   0.416   6.306   4.634
 2844TIP3   OH2 8488   4.651   4.924   0.797
 2844TIP3    H1 8489   4.652   4.960   0.709
 2844TIP3    H2 8490   4.621   4.997   0.852
 2845TIP3   OH2 8491   1.017   4.673   0.895
 2845TIP3    H1 8492   1.012   4.578   0.881
 2845TIP3    H2 8493   1.079   4.703   0.829
 2846TIP3   OH2 8494   6.019   4.905   6.121
 2846TIP3    H1 8495   6.087   4.957   6.077
 2846TIP3    H2 8496   6.017   4.823   6.072
 2847TIP3   OH2 8497   4.559   4.471   5.479
 2847TIP3    H1 8498   4.596   4.386   5.453
 2847TIP3    H2 8499   4.627   4.534   5.456
 2848TIP3   OH2 8500   6.767   5.670   6.557
 2848TIP3    H1 8501   6.753   5.765   6.549
 2848TIP3    H2 8502   6.825   5.661   6.632
 2849TIP3   OH2 8503   3.460   5.289   5.255
 2849TIP3    H1 8504   3.380   5.271   5.205
 2849TIP3    H2 8505   3.522   5.322   5.190
 2850TIP3   OH2 8506   7.885   0.403   3.049
 2850TIP3    H1 8507   7.950   0.411   3.118
 2850TIP3    H2 8508   7.882   0.310   3.028
 2851TIP3   OH2 8509   4.686   1.711   4.627
 2851TIP3    H1 8510   4.722   1.685   4.712
 2851TIP3    H2 8511   4.700   1.635   4.571
 2852TIP3   OH2 8512   2.441   0.107   3.596
 2852TIP3    H1 8513   2.466   0.199   3.588
 2852TIP3    H2 8514   2.354   0.109   3.636
 2853TIP3   OH2 8515   0.140   3.241   4.293
 2853TIP3    H1 8516   0.177   3.207   4.212
 2853TIP3    H2 8517   0.194   3.318   4.313
 2854TIP3   OH2 8518   6.821   3.931   3.696
 2854TIP3    H1 8519   6.867   3.856   3.735
 2854TIP3    H2 8520   6.736   3.932   3.740
 2855TIP3   OH2 8521   5.014   0.760   1.025
 2855TIP3    H1 8522   4.956   0.830   0.993
 2855TIP3    H2 8523   5.009   0.767   1.120
 2856TIP3   OH2 8524   7.544   4.530   4.570
 2856TIP3    H1 8525   7.478   4.461   4.562
 2856TIP3    H2 8526   7.498   4.601   4.615
 2857TIP3   OH2 8527   0.570   0.513   6.625
 2857TIP3    H1 8528   0.631   0.552   6.689
 2857TIP3    H2 8529   0.609   0.535   6.540
 2858TIP3   OH2 8530   7.040   5.109   3.718
 2858TIP3    H1 8531   7.067   5.024   3.684
 2858TIP3    H2 8532   6.973   5.089   3.783
 2859TIP3   OH2 8533   5.153   7.010   0.512
 2859TIP3    H1 8534   5.163   7.008   0.607
 2859TIP3    H2 8535   5.070   6.965   0.495
 2860TIP3   OH2 8536   2.679   3.577   5.090
 2860TIP3    H1 8537   2.609   3.512   5.089
 2860TIP3    H2 8538   2.696   3.596   4.998
 2861TIP3   OH2 8539   3.383   7.155   2.819
 2861TIP3    H1 8540   3.459   7.128   2.767
 2861TIP3    H2 8541   3.309   7.144   2.760
 2862TIP3   OH2 8542   5.995   1.816   4.976
 2862TIP3    H1 8543   6.035   1.741   4.932
 2862TIP3    H2 8544   5.901   1.801   4.968
 2863TIP3   OH2 8545   4.849   4.805   4.972
 2863TIP3    H1 8546   4.823   4.721   5.011
 2863TIP3    H2 8547   4.825   4.797   4.880
 2864TIP3   OH2 8548   7.645   1.315   5.705
 2864TIP3    H1 8549   7.589   1.364   5.765
 2864TIP3    H2 8550   7.710   1.273   5.761
 2865TIP3   OH2 8551   1.844   4.476   3.000
 2865TIP3    H1 8552   1.788   4.462   3.076
 2865TIP3    H2 8553   1.787   4.518   2.935
 2866TIP3   OH2 8554   0.731   3.874   6.223
 2866TIP3    H1 8555   0.761   3.874   6.132
 2866TIP3    H2 8556   0.810   3.853   6.273
 2867TIP3   OH2 8557  -0.047   1.235   2.025
 2867TIP3    H1 8558  -0.060   1.179   2.102
 2867TIP3    H2 8559  -0.055   1.324   2.059
 2868TIP3   OH2 8560   7.884   6.139   4.052
 2868TIP3    H1 8561   7.829   6.183   3.987
 2868TIP3    H2 8562   7.873   6.190   4.132
 2869TIP3   OH2 8563   6.285   7.498   6.688
 2869TIP3    H1 8564   6.218   7.435   6.663
 2869TIP3    H2 8565   6.254   7.582   6.654
 2870TIP3   OH2 8566   4.166   6.042   0.894
 2870TIP3    H1 8567   4.160   6.128   0.851
 2870TIP3    H2 8568   4.260   6.026   0.902
 2871TIP3   OH2 8569   1.643   3.970   5.704
 2871TIP3    H1 8570   1.728   3.954   5.745
 2871TIP3    H2 8571   1.626   3.890   5.654
 2872TIP3   OH2 8572   4.600   2.573   4.491
 2872TIP3    H1 8573   4.684   2.578   4.537
 2872TIP3    H2 8574   4.594   2.655   4.443
 2873TIP3   OH2 8575   6.314   7.366   4.596
 2873TIP3    H1 8576   6.246   7.385   4.660
 2873TIP3    H2 8577   6.341   7.276   4.615
 2874TIP3   OH2 8578   4.196   5.835   2.510
 2874TIP3    H1 8579   4.145   5.754   2.508
 2874TIP3    H2 8580   4.193   5.867   2.420
 2875TIP3   OH2 8581   5.066   3.573   6.358
 2875TIP3    H1 8582   5.075   3.517   6.280
 2875TIP3    H2 8583   4.973   3.573   6.377
 2876TIP3   OH2 8584   3.501   1.543   0.971
 2876TIP3    H1 8585   3.439   1.610   1.000
 2876TIP3    H2 8586   3.461   1.507   0.892
 2877TIP3   OH2 8587   5.062   4.037   0.821
 2877TIP3    H1 8588   4.968   4.022   0.830
 2877TIP3    H2 8589   5.101   3.950   0.829
 2878TIP3   OH2 8590   3.017   7.702   4.352
 2878TIP3    H1 8591   3.060   7.638   4.294
 2878TIP3    H2 8592   2.936   7.724   4.307
 2879TIP3   OH2 8593   5.918   7.631   2.001
 2879TIP3    H1 8594   5.948   7.693   1.934
 2879TIP3    H2 8595   5.940   7.545   1.965
 2880TIP3   OH2 8596   2.577   3.140   0.442
 2880TIP3    H1 8597   2.588   3.103   0.354
 2880TIP3    H2 8598   2.666   3.160   0.471
 2881TIP3   OH2 8599   4.205   3.324   0.822
 2881TIP3    H1 8600   4.135   3.265   0.796
 2881TIP3    H2 8601   4.238   3.360   0.739
 2882TIP3   OH2 8602   2.938   4.483   1.257
 2882TIP3    H1 8603   2.843   4.479   1.273
 2882TIP3    H2 8604   2.954   4.418   1.189
 2883TIP3   OH2 8605   3.834   3.747   5.225
 2883TIP3    H1 8606   3.836   3.708   5.312
 2883TIP3    H2 8607   3.880   3.830   5.234
 2884TIP3   OH2 8608   6.111   1.465   0.445
 2884TIP3    H1 8609   6.068   1.509   0.518
 2884TIP3    H2 8610   6.132   1.378   0.479
 2885TIP3   OH2 8611   5.964   6.180   4.473
 2885TIP3    H1 8612   5.902   6.184   4.400
 2885TIP3    H2 8613   5.955   6.091   4.507
 2886TIP3   OH2 8614   3.592   3.595   1.010
 2886TIP3    H1 8615   3.687   3.591   0.993
 2886TIP3    H2 8616   3.566   3.504   1.018
 2887TIP3   OH2 8617   3.038   5.059   5.565
 2887TIP3    H1 8618   2.983   5.033   5.639
 2887TIP3    H2 8619   3.029   5.154   5.560
 2888TIP3   OH2 8620   2.705   1.033   5.671
 2888TIP3    H1 8621   2.705   1.074   5.584
 2888TIP3    H2 8622   2.680   1.103   5.731
 2889TIP3   OH2 8623   3.411   1.861   5.310
 2889TIP3    H1 8624   3.459   1.907   5.242
 2889TIP3    H2 8625   3.327   1.906   5.316
 2890TIP3   OH2 8626   6.422   3.389   0.400
 2890TIP3    H1 8627   6.466   3.353   0.476
 2890TIP3    H2 8628   6.446   3.482   0.399
 2891TIP3   OH2 8629   6.624   7.327   4.095
 2891TIP3    H1 8630   6.576   7.285   4.167
 2891TIP3    H2 8631   6.602   7.419   4.103
 2892TIP3   OH2 8632   5.122   1.133   6.243
 2892TIP3    H1 8633   5.031   1.112   6.226
 2892TIP3    H2 8634   5.171   1.076   6.183
 2893TIP3   OH2 8635   3.854   1.012   4.686
 2893TIP3    H1 8636   3.846   1.063   4.605
 2893TIP3    H2 8637   3.796   0.937   4.672
 2894TIP3   OH2 8638   0.345   0.235   6.033
 2894TIP3    H1 8639   0.431   0.231   5.991
 2894TIP3    H2 8640   0.295   0.164   5.992
 2895TIP3   OH2 8641   2.480   4.856   2.955
 2895TIP3    H1 8642   2.466   4.773   3.001
 2895TIP3    H2 8643   2.434   4.921   3.009
 2896TIP3   OH2 8644   5.941   1.271   1.991
 2896TIP3    H1 8645   6.001   1.346   1.989
 2896TIP3    H2 8646   5.897   1.279   2.076
 2897TIP3   OH2 8647   1.204   4.265   2.580
 2897TIP3    H1 8648   1.232   4.186   2.533
 2897TIP3    H2 8649   1.111   4.251   2.598
 2898TIP3   OH2 8650   2.352   0.799   2.671
 2898TIP3    H1 8651   2.387   0.769   2.754
 2898TIP3    H2 8652   2.257   0.784   2.679
 2899TIP3   OH2 8653   2.244   0.027   2.824
 2899TIP3    H1 8654   2.314   0.050   2.885
 2899TIP3    H2 8655   2.207   0.112   2.797
 2900TIP3   OH2 8656   7.469   1.697   6.689
 2900TIP3    H1 8657   7.380   1.730   6.684
 2900TIP3    H2 8658   7.500   1.722   6.776
 2901TIP3   OH2 8659   2.451   4.543   4.966
 2901TIP3    H1 8660   2.495   4.591   5.035
 2901TIP3    H2 8661   2.358   4.562   4.978
 2902TIP3   OH2 8662   4.052   3.041   2.652
 2902TIP3    H1 8663   3.981   3.016   2.712
 2902TIP3    H2 8664   4.053   2.971   2.587
 2903TIP3   OH2 8665   5.881   5.260   6.269
 2903TIP3    H1 8666   5.917   5.277   6.182
 2903TIP3    H2 8667   5.806   5.203   6.254
 2904TIP3   OH2 8668   2.811   7.514   5.529
 2904TIP3    H1 8669   2.821   7.486   5.620
 2904TIP3    H2 8670   2.871   7.458   5.480
 2905TIP3   OH2 8671   0.032   1.291   0.240
 2905TIP3    H1 8672   0.035   1.328   0.329
 2905TIP3    H2 8673  -0.017   1.356   0.189
 2906TIP3   OH2 8674   3.117   3.048   3.046
 2906TIP3    H1 8675   3.045   3.110   3.051
 2906TIP3    H2 8676   3.144   3.050   2.954
 2907TIP3   OH2 8677   1.434   3.452   4.943
 2907TIP3    H1 8678   1.377   3.443   5.020
 2907TIP3    H2 8679   1.375   3.440   4.869
 2908TIP3   OH2 8680   1.624   6.851   4.501
 2908TIP3    H1 8681   1.587   6.939   4.493
 2908TIP3    H2 8682   1.646   6.843   4.594
 2909TIP3   OH2 8683   7.773   3.222   3.216
 2909TIP3    H1 8684   7.719   3.282   3.165
 2909TIP3    H2 8685   7.850   3.274   3.240
 2910TIP3   OH2 8686   2.959   0.232   3.217
 2910TIP3    H1 8687   2.958   0.305   3.278
 2910TIP3    H2 8688   3.018   0.261   3.147
 2911TIP3   OH2 8689   3.156   7.410   3.521
 2911TIP3    H1 8690   3.151   7.486   3.578
 2911TIP3    H2 8691   3.190   7.340   3.576
 2912TIP3   OH2 8692   6.116   3.481   4.596
 2912TIP3    H1 8693   6.090   3.406   4.649
 2912TIP3    H2 8694   6.128   3.553   4.658
 2913TIP3   OH2 8695   5.246   5.903   0.006
 2913TIP3    H1 8696   5.319   5.847  -0.021
 2913TIP3    H2 8697   5.288   5.988   0.025
 2914TIP3   OH2 8698   4.993   5.643   2.357
 2914TIP3    H1 8699   4.986   5.555   2.319
 2914TIP3    H2 8700   5.051   5.631   2.432
 2915TIP3   OH2 8701   8.277   5.331   5.797
 2915TIP3    H1 8702   8.202   5.392   5.794
 2915TIP3    H2 8703   8.351   5.383   5.766
 2916TIP3   OH2 8704   6.883   3.636   3.071
 2916TIP3    H1 8705   6.890   3.687   2.990
 2916TIP3    H2 8706   6.886   3.702   3.141
 2917TIP3   OH2 8707   7.256   6.190   4.162
 2917TIP3    H1 8708   7.229   6.243   4.237
 2917TIP3    H2 8709   7.174   6.163   4.121
 2918TIP3   OH2 8710   7.439   4.386   3.658
 2918TIP3    H1 8711   7.502   4.316   3.675
 2918TIP3    H2 8712   7.484   4.445   3.597
 2919TIP3   OH2 8713   5.094   4.374   3.739
 2919TIP3    H1 8714   5.168   4.351   3.796
 2919TIP3    H2 8715   5.027   4.406   3.800
 2920TIP3   OH2 8716   6.049   3.434   5.409
 2920TIP3    H1 8717   6.084   3.359   5.457
 2920TIP3    H2 8718   6.084   3.425   5.320
 2921TIP3   OH2 8719   0.792   0.516   5.119
 2921TIP3    H1 8720   0.857   0.519   5.189
 2921TIP3    H2 8721   0.709   0.534   5.163
 2922TIP3   OH2 8722   5.220   3.648   2.259
 2922TIP3    H1 8723   5.158   3.715   2.231
 2922TIP3    H2 8724   5.253   3.679   2.344
 2923TIP3   OH2 8725   5.418   1.848   4.393
 2923TIP3    H1 8726   5.431   1.934   4.353
 2923TIP3    H2 8727   5.345   1.810   4.345
 2924TIP3   OH2 8728   1.285   2.074   3.703
 2924TIP3    H1 8729   1.306   2.080   3.796
 2924TIP3    H2 8730   1.310   2.158   3.667
 2925TIP3   OH2 8731   5.271   0.828   2.714
 2925TIP3    H1 8732   5.318   0.873   2.784
 2925TIP3    H2 8733   5.192   0.795   2.757
 2926TIP3   OH2 8734   2.321   2.711   3.153
 2926TIP3    H1 8735   2.314   2.731   3.247
 2926TIP3    H2 8736   2.281   2.625   3.144
 2927TIP3   OH2 8737   1.857   1.028   2.679
 2927TIP3    H1 8738   1.803   1.106   2.684
 2927TIP3    H2 8739   1.926   1.051   2.615
 2928TIP3   OH2 8740   4.105   1.977   4.037
 2928TIP3    H1 8741   4.015   2.010   4.027
 2928TIP3    H2 8742   4.110   1.902   3.978
 2929TIP3   OH2 8743   0.712   6.314   4.241
 2929TIP3    H1 8744   0.743   6.224   4.226
 2929TIP3    H2 8745   0.668   6.309   4.326
 2930TIP3   OH2 8746   7.242   6.711   6.358
 2930TIP3    H1 8747   7.334   6.693   6.376
 2930TIP3    H2 8748   7.196   6.677   6.435
 2931TIP3   OH2 8749   3.896   3.682   2.095
 2931TIP3    H1 8750   3.889   3.770   2.057
 2931TIP3    H2 8751   3.935   3.697   2.181
 2932TIP3   OH2 8752   7.931   3.746   5.573
 2932TIP3    H1 8753   7.897   3.835   5.573
 2932TIP3    H2 8754   8.006   3.748   5.513
 2933TIP3   OH2 8755   1.026   1.757   2.294
 2933TIP3    H1 8756   1.092   1.801   2.241
 2933TIP3    H2 8757   1.065   1.672   2.316
 2934TIP3   OH2 8758   2.395   2.677   4.521
 2934TIP3    H1 8759   2.396   2.667   4.426
 2934TIP3    H2 8760   2.376   2.770   4.535
 2935TIP3   OH2 8761   0.731   6.947   4.626
 2935TIP3    H1 8762   0.720   6.979   4.716
 2935TIP3    H2 8763   0.737   6.852   4.634
 2936TIP3   OH2 8764   1.799   1.121   2.304
 2936TIP3    H1 8765   1.728   1.112   2.368
 2936TIP3    H2 8766   1.879   1.107   2.355
 2937TIP3   OH2 8767   0.529   4.069   6.268
 2937TIP3    H1 8768   0.468   4.007   6.308
 2937TIP3    H2 8769   0.611   4.020   6.261
 2938TIP3   OH2 8770   5.207   5.550   1.024
 2938TIP3    H1 8771   5.211   5.474   0.965
 2938TIP3    H2 8772   5.260   5.616   0.980
 2939TIP3   OH2 8773   6.390   6.927   1.427
 2939TIP3    H1 8774   6.385   6.840   1.387
 2939TIP3    H2 8775   6.476   6.930   1.467
 2940TIP3   OH2 8776   5.543   5.373   6.258
 2940TIP3    H1 8777   5.609   5.438   6.234
 2940TIP3    H2 8778   5.578   5.290   6.226
 2941TIP3   OH2 8779   4.974   0.386   5.531
 2941TIP3    H1 8780   4.929   0.409   5.612
 2941TIP3    H2 8781   4.915   0.416   5.461
 2942TIP3   OH2 8782   6.443   3.702   5.280
 2942TIP3    H1 8783   6.367   3.677   5.333
 2942TIP3    H2 8784   6.515   3.711   5.343
 2943TIP3   OH2 8785   3.202   1.246   5.781
 2943TIP3    H1 8786   3.217   1.196   5.861
 2943TIP3    H2 8787   3.115   1.219   5.751
 2944TIP3   OH2 8788   2.232   1.310   4.805
 2944TIP3    H1 8789   2.269   1.228   4.838
 2944TIP3    H2 8790   2.276   1.379   4.856
 2945TIP3   OH2 8791   1.767   2.331   1.028
 2945TIP3    H1 8792   1.747   2.388   0.954
 2945TIP3    H2 8793   1.860   2.311   1.017
 2946TIP3   OH2 8794   0.216   2.197   6.727
 2946TIP3    H1 8795   0.171   2.188   6.643
 2946TIP3    H2 8796   0.301   2.236   6.704
 2947TIP3   OH2 8797   7.124   1.090   2.670
 2947TIP3    H1 8798   7.103   1.048   2.587
 2947TIP3    H2 8799   7.218   1.075   2.682
 2948TIP3   OH2 8800   8.087   4.016   4.044
 2948TIP3    H1 8801   8.049   4.048   4.126
 2948TIP3    H2 8802   8.171   4.062   4.037
 2949TIP3   OH2 8803   0.781   1.472   1.954
 2949TIP3    H1 8804   0.866   1.436   1.927
 2949TIP3    H2 8805   0.796   1.566   1.962
 2950TIP3   OH2 8806   0.778   1.919   6.065
 2950TIP3    H1 8807   0.805   1.988   6.125
 2950TIP3    H2 8808   0.698   1.953   6.024
 2951TIP3   OH2 8809   7.736   6.411   3.298
 2951TIP3    H1 8810   7.664   6.447   3.248
 2951TIP3    H2 8811   7.813   6.422   3.242
 2952TIP3   OH2 8812   1.533   1.367   2.533
 2952TIP3    H1 8813   1.505   1.308   2.602
 2952TIP3    H2 8814   1.628   1.359   2.532
 2953TIP3   OH2 8815   4.458   4.704   1.924
 2953TIP3    H1 8816   4.440   4.622   1.878
 2953TIP3    H2 8817   4.391   4.764   1.892
 2954TIP3   OH2 8818   2.612   5.698   6.301
 2954TIP3    H1 8819   2.540   5.668   6.246
 2954TIP3    H2 8820   2.589   5.667   6.389
 2955TIP3   OH2 8821   3.862   1.940   6.546
 2955TIP3    H1 8822   3.940   1.990   6.571
 2955TIP3    H2 8823   3.889   1.892   6.468
 2956TIP3   OH2 8824   7.446   4.632   1.011
 2956TIP3    H1 8825   7.444   4.727   1.023
 2956TIP3    H2 8826   7.355   4.604   1.016
 2957TIP3   OH2 8827   3.789   5.667   0.879
 2957TIP3    H1 8828   3.847   5.714   0.819
 2957TIP3    H2 8829   3.844   5.599   0.918
 2958TIP3   OH2 8830   2.201   0.151   4.636
 2958TIP3    H1 8831   2.252   0.132   4.716
 2958TIP3    H2 8832   2.217   0.244   4.619
 2959TIP3   OH2 8833   6.953   0.452   6.180
 2959TIP3    H1 8834   6.927   0.474   6.090
 2959TIP3    H2 8835   7.004   0.372   6.172
 2960TIP3   OH2 8836   3.880   7.098   2.505
 2960TIP3    H1 8837   3.862   7.140   2.589
 2960TIP3    H2 8838   3.867   7.005   2.521
 2961TIP3   OH2 8839   0.086   1.937   2.094
 2961TIP3    H1 8840   0.000   1.897   2.084
 2961TIP3    H2 8841   0.086   2.009   2.031
 2962TIP3   OH2 8842   2.017   4.243   0.861
 2962TIP3    H1 8843   2.086   4.177   0.872
 2962TIP3    H2 8844   1.939   4.193   0.838
 2963TIP3   OH2 8845   1.772   6.847   5.312
 2963TIP3    H1 8846   1.843   6.785   5.331
 2963TIP3    H2 8847   1.788   6.920   5.372
 2964TIP3   OH2 8848   4.725   1.423   0.329
 2964TIP3    H1 8849   4.688   1.352   0.277
 2964TIP3    H2 8850   4.814   1.393   0.349
 2965TIP3   OH2 8851   3.674   2.318   6.725
 2965TIP3    H1 8852   3.666   2.225   6.702
 2965TIP3    H2 8853   3.747   2.349   6.671
 2966TIP3   OH2 8854   7.599   3.351   0.052
 2966TIP3    H1 8855   7.522   3.327   0.001
 2966TIP3    H2 8856   7.606   3.446   0.044
 2967TIP3   OH2 8857   4.965   7.154   4.098
 2967TIP3    H1 8858   4.905   7.185   4.030
 2967TIP3    H2 8859   5.034   7.110   4.050
 2968TIP3   OH2 8860   0.401   4.827   1.177
 2968TIP3    H1 8861   0.423   4.737   1.199
 2968TIP3    H2 8862   0.444   4.879   1.245
 2969TIP3   OH2 8863   1.013   3.359   2.191
 2969TIP3    H1 8864   0.930   3.367   2.143
 2969TIP3    H2 8865   1.011   3.270   2.226
 2970TIP3   OH2 8866   1.629   5.354   1.032
 2970TIP3    H1 8867   1.592   5.402   0.958
 2970TIP3    H2 8868   1.563   5.289   1.053
 2971TIP3   OH2 8869   2.632   2.748   6.128
 2971TIP3    H1 8870   2.600   2.795   6.205
 2971TIP3    H2 8871   2.725   2.734   6.146
 2972TIP3   OH2 8872   0.703   0.240   1.847
 2972TIP3    H1 8873   0.672   0.305   1.910
 2972TIP3    H2 8874   0.671   0.157   1.882
 2973TIP3   OH2 8875   4.372   0.769   2.857
 2973TIP3    H1 8876   4.336   0.687   2.823
 2973TIP3    H2 8877   4.417   0.744   2.938
 2974TIP3   OH2 8878   1.912   0.776   3.652
 2974TIP3    H1 8879   1.983   0.812   3.600
 2974TIP3    H2 8880   1.835   0.827   3.626
 2975TIP3   OH2 8881   1.784   6.645   3.580
 2975TIP3    H1 8882   1.842   6.709   3.539
 2975TIP3    H2 8883   1.841   6.596   3.639
 2976TIP3   OH2 8884   0.303   7.829   1.443
 2976TIP3    H1 8885   0.273   7.752   1.492
 2976TIP3    H2 8886   0.269   7.816   1.354
 2977TIP3   OH2 8887   6.446   1.794   1.529
 2977TIP3    H1 8888   6.409   1.846   1.457
 2977TIP3    H2 8889   6.518   1.746   1.490
 2978TIP3   OH2 8890   7.437   7.571   4.541
 2978TIP3    H1 8891   7.485   7.601   4.618
 2978TIP3    H2 8892   7.450   7.641   4.476
 2979TIP3   OH2 8893   7.703   0.514   3.841
 2979TIP3    H1 8894   7.758   0.449   3.884
 2979TIP3    H2 8895   7.740   0.522   3.752
 2980TIP3   OH2 8896   3.178   0.955   6.438
 2980TIP3    H1 8897   3.129   0.886   6.393
 2980TIP3    H2 8898   3.130   0.971   6.519
 2981TIP3   OH2 8899   1.965   7.018   0.485
 2981TIP3    H1 8900   1.952   7.002   0.579
 2981TIP3    H2 8901   2.011   7.102   0.481
 2982TIP3   OH2 8902   3.648   5.915   1.685
 2982TIP3    H1 8903   3.663   5.994   1.736
 2982TIP3    H2 8904   3.661   5.843   1.747
 2983TIP3   OH2 8905   5.437   5.253   0.947
 2983TIP3    H1 8906   5.413   5.280   0.858
 2983TIP3    H2 8907   5.381   5.178   0.966
 2984TIP3   OH2 8908   0.955   2.309   5.859
 2984TIP3    H1 8909   1.039   2.262   5.863
 2984TIP3    H2 8910   0.931   2.308   5.766
 2985TIP3   OH2 8911   2.638   4.385   2.670
 2985TIP3    H1 8912   2.594   4.440   2.605
 2985TIP3    H2 8913   2.686   4.447   2.725
 2986TIP3   OH2 8914   6.219   1.034   6.293
 2986TIP3    H1 8915   6.133   1.053   6.329
 2986TIP3    H2 8916   6.241   1.112   6.241
 2987TIP3   OH2 8917   0.554   1.769   2.900
 2987TIP3    H1 8918   0.472   1.779   2.948
 2987TIP3    H2 8919   0.622   1.770   2.967
 2988TIP3   OH2 8920   7.200   3.912   2.189
 2988TIP3    H1 8921   7.174   3.916   2.097
 2988TIP3    H2 8922   7.117   3.908   2.237
 2989TIP3   OH2 8923   1.041   3.934   2.633
 2989TIP3    H1 8924   0.997   3.989   2.568
 2989TIP3    H2 8925   0.974   3.873   2.662
 2990TIP3   OH2 8926   4.218   5.430   0.301
 2990TIP3    H1 8927   4.175   5.475   0.374
 2990TIP3    H2 8928   4.228   5.340   0.331
 2991TIP3   OH2 8929   0.742   4.201   1.001
 2991TIP3    H1 8930   0.690   4.276   1.030
 2991TIP3    H2 8931   0.698   4.125   1.038
 2992TIP3   OH2 8932   3.613   3.625   2.992
 2992TIP3    H1 8933   3.628   3.554   3.055
 2992TIP3    H2 8934   3.701   3.649   2.963
 2993TIP3   OH2 8935   1.351   7.207   1.883
 2993TIP3    H1 8936   1.303   7.235   1.805
 2993TIP3    H2 8937   1.393   7.125   1.857
 2994TIP3   OH2 8938   2.731   6.795   3.681
 2994TIP3    H1 8939   2.715   6.868   3.741
 2994TIP3    H2 8940   2.784   6.834   3.611
 2995TIP3   OH2 8941   1.574   5.272   5.961
 2995TIP3    H1 8942   1.538   5.348   5.916
 2995TIP3    H2 8943   1.525   5.266   6.043
 2996TIP3   OH2 8944   0.039   3.840   4.443
 2996TIP3    H1 8945   0.094   3.909   4.406
 2996TIP3    H2 8946  -0.033   3.832   4.380
 2997TIP3   OH2 8947   2.111   3.795   3.335
 2997TIP3    H1 8948   2.195   3.834   3.359
 2997TIP3    H2 8949   2.045   3.853   3.373
 2998TIP3   OH2 8950   6.860   2.061   1.758
 2998TIP3    H1 8951   6.783   2.013   1.727
 2998TIP3    H2 8952   6.832   2.153   1.759
 2999TIP3   OH2 8953   6.813   1.209   6.113
 2999TIP3    H1 8954   6.876   1.237   6.046
 2999TIP3    H2 8955   6.857   1.139   6.161
 3000TIP3   OH2 8956   5.785   3.294   5.505
 3000TIP3    H1 8957   5.743   3.209   5.513
 3000TIP3    H2 8958   5.855   3.292   5.570
 3001TIP3   OH2 8959   2.398   1.477   1.947
 3001TIP3    H1 8960   2.345   1.545   1.906
 3001TIP3    H2 8961   2.483   1.483   1.904
 3002TIP3   OH2 8962   2.393   1.482   2.345
 3002TIP3    H1 8963   2.468   1.532   2.310
 3002TIP3    H2 8964   2.390   1.403   2.291
 3003TIP3   OH2 8965   6.154   2.820   0.148
 3003TIP3    H1 8966   6.146   2.871   0.068
 3003TIP3    H2 8967   6.242   2.839   0.181
 3004TIP3   OH2 8968   1.946   6.934   1.784
 3004TIP3    H1 8969   1.899   7.010   1.750
 3004TIP3    H2 8970   2.004   6.969   1.851
 3005TIP3   OH2 8971   2.320   6.546   2.856
 3005TIP3    H1 8972   2.328   6.637   2.886
 3005TIP3    H2 8973   2.237   6.516   2.894
 3006TIP3   OH2 8974   8.052   7.551   0.401
 3006TIP3    H1 8975   8.116   7.615   0.368
 3006TIP3    H2 8976   7.975   7.563   0.345
 3007TIP3   OH2 8977   7.528   4.973   3.388
 3007TIP3    H1 8978   7.588   4.911   3.429
 3007TIP3    H2 8979   7.562   4.986   3.300
 3008TIP3   OH2 8980   4.558   7.542   3.710
 3008TIP3    H1 8981   4.648   7.515   3.695
 3008TIP3    H2 8982   4.511   7.460   3.729
 3009TIP3   OH2 8983   1.385   6.008   1.979
 3009TIP3    H1 8984   1.446   5.942   2.010
 3009TIP3    H2 8985   1.315   5.958   1.936
 3010TIP3   OH2 8986   4.429   0.162   3.567
 3010TIP3    H1 8987   4.375   0.086   3.548
 3010TIP3    H2 8988   4.441   0.161   3.662
 3011TIP3   OH2 8989   1.516   6.648   3.656
 3011TIP3    H1 8990   1.518   6.634   3.751
 3011TIP3    H2 8991   1.605   6.678   3.635
 3012TIP3   OH2 8992   5.844   1.395   5.541
 3012TIP3    H1 8993   5.846   1.347   5.458
 3012TIP3    H2 8994   5.852   1.487   5.516
 3013TIP3   OH2 8995   6.025   7.372   1.866
 3013TIP3    H1 8996   6.028   7.318   1.787
 3013TIP3    H2 8997   6.021   7.309   1.938
 3014TIP3   OH2 8998   8.274   1.472   6.764
 3014TIP3    H1 8999   8.238   1.489   6.677
 3014TIP3    H2 9000   8.212   1.411   6.804
 3015TIP3   OH2 9001   0.334   0.192   4.190
 3015TIP3    H1 9002   0.425   0.222   4.186
 3015TIP3    H2 9003   0.282   0.271   4.177
 3016TIP3   OH2 9004   3.768   4.938   2.705
 3016TIP3    H1 9005   3.834   4.875   2.675
 3016TIP3    H2 9006   3.816   4.996   2.764
 3017TIP3   OH2 9007   3.514   4.822   0.986
 3017TIP3    H1 9008   3.427   4.861   0.984
 3017TIP3    H2 9009   3.544   4.826   0.896
 3018TIP3   OH2 9010   2.315   2.983   0.507
 3018TIP3    H1 9011   2.378   3.055   0.499
 3018TIP3    H2 9012   2.243   3.020   0.558
 3019TIP3   OH2 9013   6.529   0.611   0.529
 3019TIP3    H1 9014   6.485   0.531   0.501
 3019TIP3    H2 9015   6.550   0.657   0.447
 3020TIP3   OH2 9016   2.814   2.712   3.618
 3020TIP3    H1 9017   2.719   2.713   3.605
 3020TIP3    H2 9018   2.850   2.729   3.532
 3021TIP3   OH2 9019   7.162   1.869   3.310
 3021TIP3    H1 9020   7.118   1.888   3.227
 3021TIP3    H2 9021   7.238   1.817   3.285
 3022TIP3   OH2 9022   4.420   3.788   1.294
 3022TIP3    H1 9023   4.393   3.730   1.224
 3022TIP3    H2 9024   4.515   3.792   1.289
 3023TIP3   OH2 9025   3.218   6.122   5.794
 3023TIP3    H1 9026   3.224   6.028   5.777
 3023TIP3    H2 9027   3.266   6.162   5.722
 3024TIP3   OH2 9028   3.986   6.457   1.832
 3024TIP3    H1 9029   3.937   6.391   1.881
 3024TIP3    H2 9030   4.074   6.455   1.869
 3025TIP3   OH2 9031   7.297   6.898   1.387
 3025TIP3    H1 9032   7.256   6.969   1.338
 3025TIP3    H2 9033   7.225   6.851   1.428
 3026TIP3   OH2 9034   1.096   2.526   5.678
 3026TIP3    H1 9035   1.042   2.484   5.611
 3026TIP3    H2 9036   1.088   2.620   5.660
 3027TIP3   OH2 9037   5.649   2.328   4.149
 3027TIP3    H1 9038   5.671   2.235   4.149
 3027TIP3    H2 9039   5.614   2.344   4.236
 3028TIP3   OH2 9040   1.080   3.205   5.183
 3028TIP3    H1 9041   1.104   3.121   5.221
 3028TIP3    H2 9042   0.985   3.204   5.182
 3029TIP3   OH2 9043   6.630   3.074   1.073
 3029TIP3    H1 9044   6.626   3.090   0.979
 3029TIP3    H2 9045   6.627   2.978   1.081
 3030TIP3   OH2 9046   2.532   3.780   2.596
 3030TIP3    H1 9047   2.538   3.804   2.504
 3030TIP3    H2 9048   2.606   3.824   2.638
 3031TIP3   OH2 9049   3.196   7.023   6.279
 3031TIP3    H1 9050   3.286   6.991   6.284
 3031TIP3    H2 9051   3.201   7.115   6.307
 3032TIP3   OH2 9052   8.094   4.567   3.371
 3032TIP3    H1 9053   8.169   4.627   3.381
 3032TIP3    H2 9054   8.105   4.530   3.283
 3033TIP3   OH2 9055   2.376   1.167   0.332
 3033TIP3    H1 9056   2.310   1.124   0.386
 3033TIP3    H2 9057   2.458   1.125   0.357
 3034TIP3   OH2 9058   1.355   4.398   2.196
 3034TIP3    H1 9059   1.280   4.357   2.153
 3034TIP3    H2 9060   1.419   4.326   2.207
 3035TIP3   OH2 9061   5.591   6.435   4.990
 3035TIP3    H1 9062   5.611   6.355   4.942
 3035TIP3    H2 9063   5.571   6.499   4.922
 3036TIP3   OH2 9064   6.923   4.771   5.675
 3036TIP3    H1 9065   6.843   4.793   5.721
 3036TIP3    H2 9066   6.896   4.755   5.584
 3037TIP3   OH2 9067   5.183   2.144   6.254
 3037TIP3    H1 9068   5.097   2.125   6.215
 3037TIP3    H2 9069   5.245   2.102   6.195
 3038TIP3   OH2 9070   5.783   1.284   6.357
 3038TIP3    H1 9071   5.765   1.284   6.451
 3038TIP3    H2 9072   5.809   1.194   6.337
 3039TIP3   OH2 9073   1.808   0.517   4.015
 3039TIP3    H1 9074   1.803   0.474   4.100
 3039TIP3    H2 9075   1.860   0.596   4.031
 3040TIP3   OH2 9076   5.234   0.950   6.644
 3040TIP3    H1 9077   5.203   0.910   6.725
 3040TIP3    H2 9078   5.308   0.894   6.618
 3041TIP3   OH2 9079   4.505   4.808   6.685
 3041TIP3    H1 9080   4.588   4.796   6.730
 3041TIP3    H2 9081   4.475   4.895   6.711
 3042TIP3   OH2 9082   8.234   5.032   4.690
 3042TIP3    H1 9083   8.191   4.987   4.763
 3042TIP3    H2 9084   8.189   5.116   4.684
 3043TIP3   OH2 9085   5.817   2.206   5.342
 3043TIP3    H1 9086   5.815   2.231   5.435
 3043TIP3    H2 9087   5.765   2.126   5.337
 3044TIP3   OH2 9088   3.303   7.717   4.423
 3044TIP3    H1 9089   3.230   7.780   4.428
 3044TIP3    H2 9090   3.333   7.707   4.513
 3045TIP3   OH2 9091   7.483   4.325   6.065
 3045TIP3    H1 9092   7.534   4.266   6.120
 3045TIP3    H2 9093   7.433   4.267   6.007
 3046TIP3   OH2 9094   4.923   3.601   2.125
 3046TIP3    H1 9095   4.970   3.525   2.091
 3046TIP3    H2 9096   4.901   3.652   2.048
 3047TIP3   OH2 9097   3.249   3.474   0.875
 3047TIP3    H1 9098   3.212   3.547   0.925
 3047TIP3    H2 9099   3.174   3.438   0.827
 3048TIP3   OH2 9100   3.398   0.711   4.519
 3048TIP3    H1 9101   3.409   0.625   4.560
 3048TIP3    H2 9102   3.395   0.691   4.425
 3049TIP3   OH2 9103   3.914   6.432   5.087
 3049TIP3    H1 9104   4.008   6.448   5.079
 3049TIP3    H2 9105   3.908   6.349   5.134
 3050TIP3   OH2 9106   1.772   0.248   5.045
 3050TIP3    H1 9107   1.773   0.344   5.052
 3050TIP3    H2 9108   1.721   0.219   5.121
 3051TIP3   OH2 9109   4.231   7.135   0.555
 3051TIP3    H1 9110   4.148   7.094   0.580
 3051TIP3    H2 9111   4.283   7.135   0.636
 3052TIP3   OH2 9112   7.756   4.705   6.048
 3052TIP3    H1 9113   7.717   4.638   5.992
 3052TIP3    H2 9114   7.792   4.657   6.122
 3053TIP3   OH2 9115   5.931   3.119   2.121
 3053TIP3    H1 9116   6.014   3.075   2.142
 3053TIP3    H2 9117   5.873   3.095   2.194
 3054TIP3   OH2 9118   4.568   5.590   3.416
 3054TIP3    H1 9119   4.602   5.666   3.462
 3054TIP3    H2 9120   4.601   5.599   3.326
 3055TIP3   OH2 9121   0.654   1.805   3.404
 3055TIP3    H1 9122   0.662   1.714   3.376
 3055TIP3    H2 9123   0.738   1.826   3.444
 3056TIP3   OH2 9124   6.398   2.619   3.502
 3056TIP3    H1 9125   6.379   2.526   3.513
 3056TIP3    H2 9126   6.394   2.655   3.591
 3057TIP3   OH2 9127   5.144   2.655   6.186
 3057TIP3    H1 9128   5.084   2.590   6.150
 3057TIP3    H2 9129   5.138   2.642   6.281
 3058TIP3   OH2 9130   3.168   1.662   3.994
 3058TIP3    H1 9131   3.189   1.654   4.087
 3058TIP3    H2 9132   3.164   1.572   3.962
 3059TIP3   OH2 9133   5.014   4.289   3.209
 3059TIP3    H1 9134   4.960   4.342   3.150
 3059TIP3    H2 9135   4.957   4.271   3.284
 3060TIP3   OH2 9136   1.183   6.287   2.637
 3060TIP3    H1 9137   1.271   6.297   2.674
 3060TIP3    H2 9138   1.151   6.205   2.674
 3061TIP3   OH2 9139   0.419   2.307   3.227
 3061TIP3    H1 9140   0.354   2.260   3.175
 3061TIP3    H2 9141   0.467   2.360   3.163
 3062TIP3   OH2 9142   1.922   1.986   1.536
 3062TIP3    H1 9143   1.858   2.050   1.505
 3062TIP3    H2 9144   1.898   1.905   1.491
 3063TIP3   OH2 9145   5.471   6.303   3.408
 3063TIP3    H1 9146   5.474   6.336   3.318
 3063TIP3    H2 9147   5.378   6.304   3.431
 3064TIP3   OH2 9148   2.363   2.276   2.716
 3064TIP3    H1 9149   2.431   2.300   2.779
 3064TIP3    H2 9150   2.302   2.223   2.767
 3065TIP3   OH2 9151   4.198   6.370   2.053
 3065TIP3    H1 9152   4.156   6.413   2.128
 3065TIP3    H2 9153   4.261   6.435   2.020
 3066TIP3   OH2 9154   3.404   0.913   4.311
 3066TIP3    H1 9155   3.442   0.992   4.272
 3066TIP3    H2 9156   3.337   0.946   4.371
 3067TIP3   OH2 9157   2.181   0.361   3.452
 3067TIP3    H1 9158   2.121   0.433   3.471
 3067TIP3    H2 9159   2.157   0.332   3.364
 3068TIP3   OH2 9160   0.012   5.344   2.110
 3068TIP3    H1 9161   0.013   5.402   2.034
 3068TIP3    H2 9162   0.026   5.256   2.073
 3069TIP3   OH2 9163   8.023   6.088   6.283
 3069TIP3    H1 9164   7.990   6.002   6.258
 3069TIP3    H2 9165   8.111   6.071   6.317
 3070TIP3   OH2 9166   7.335   5.683   0.910
 3070TIP3    H1 9167   7.330   5.679   1.005
 3070TIP3    H2 9168   7.426   5.660   0.890
 3071TIP3   OH2 9169   6.687   1.839   6.004
 3071TIP3    H1 9170   6.628   1.817   6.075
 3071TIP3    H2 9171   6.631   1.845   5.926
 3072TIP3   OH2 9172   0.303   2.984   6.219
 3072TIP3    H1 9173   0.390   3.001   6.184
 3072TIP3    H2 9174   0.317   2.977   6.314
 3073TIP3   OH2 9175   0.723   5.544   5.142
 3073TIP3    H1 9176   0.747   5.514   5.054
 3073TIP3    H2 9177   0.660   5.614   5.127
 3074TIP3   OH2 9178   7.265   3.452   4.428
 3074TIP3    H1 9179   7.186   3.505   4.415
 3074TIP3    H2 9180   7.331   3.514   4.460
 3075TIP3   OH2 9181   7.463   5.337   5.434
 3075TIP3    H1 9182   7.543   5.389   5.443
 3075TIP3    H2 9183   7.395   5.388   5.479
 3076TIP3   OH2 9184   2.972   0.277   0.130
 3076TIP3    H1 9185   2.937   0.325   0.205
 3076TIP3    H2 9186   2.951   0.333   0.055
 3077TIP3   OH2 9187   6.801   4.182   1.473
 3077TIP3    H1 9188   6.891   4.155   1.490
 3077TIP3    H2 9189   6.755   4.101   1.453
 3078TIP3   OH2 9190   4.217   4.752   2.267
 3078TIP3    H1 9191   4.180   4.813   2.203
 3078TIP3    H2 9192   4.275   4.696   2.216
 3079TIP3   OH2 9193   1.277   5.263   6.317
 3079TIP3    H1 9194   1.202   5.217   6.279
 3079TIP3    H2 9195   1.278   5.348   6.273
 3080TIP3   OH2 9196   1.797   5.215   2.558
 3080TIP3    H1 9197   1.738   5.279   2.519
 3080TIP3    H2 9198   1.810   5.247   2.648
 3081TIP3   OH2 9199   1.702   7.631   0.236
 3081TIP3    H1 9200   1.779   7.658   0.286
 3081TIP3    H2 9201   1.695   7.537   0.252
 3082TIP3   OH2 9202   2.577   2.462   6.091
 3082TIP3    H1 9203   2.584   2.549   6.129
 3082TIP3    H2 9204   2.484   2.447   6.080
 3083TIP3   OH2 9205   2.861   0.005   0.766
 3083TIP3    H1 9206   2.926   0.043   0.708
 3083TIP3    H2 9207   2.797   0.075   0.779
 3084TIP3   OH2 9208   0.165   1.894   1.301
 3084TIP3    H1 9209   0.165   1.954   1.376
 3084TIP3    H2 9210   0.077   1.902   1.264
 3085TIP3   OH2 9211   5.615   3.831   3.315
 3085TIP3    H1 9212   5.676   3.903   3.335
 3085TIP3    H2 9213   5.661   3.778   3.250
 3086TIP3   OH2 9214   5.511   3.181   5.798
 3086TIP3    H1 9215   5.431   3.167   5.848
 3086TIP3    H2 9216   5.581   3.181   5.863
 3087TIP3   OH2 9217   4.962   5.710   5.190
 3087TIP3    H1 9218   4.923   5.699   5.103
 3087TIP3    H2 9219   4.961   5.622   5.228
 3088TIP3   OH2 9220   1.909   5.282   4.647
 3088TIP3    H1 9221   1.907   5.223   4.722
 3088TIP3    H2 9222   1.999   5.277   4.615
 3089TIP3   OH2 9223   4.045   5.460   4.100
 3089TIP3    H1 9224   4.092   5.403   4.040
 3089TIP3    H2 9225   4.063   5.423   4.187
 3090TIP3   OH2 9226   4.769   7.119   1.596
 3090TIP3    H1 9227   4.716   7.199   1.596
 3090TIP3    H2 9228   4.715   7.054   1.641
 3091TIP3   OH2 9229   5.012   3.033   1.932
 3091TIP3    H1 9230   5.061   3.114   1.915
 3091TIP3    H2 9231   4.954   3.056   2.005
 3092TIP3   OH2 9232   6.314   2.339   5.640
 3092TIP3    H1 9233   6.278   2.425   5.619
 3092TIP3    H2 9234   6.399   2.358   5.681
 3093TIP3   OH2 9235   6.989   3.852   2.354
 3093TIP3    H1 9236   6.981   3.829   2.447
 3093TIP3    H2 9237   6.946   3.781   2.308
 3094TIP3   OH2 9238   7.143   2.650   3.627
 3094TIP3    H1 9239   7.072   2.618   3.570
 3094TIP3    H2 9240   7.222   2.638   3.576
 3095TIP3   OH2 9241   3.273   7.844   2.232
 3095TIP3    H1 9242   3.254   7.856   2.139
 3095TIP3    H2 9243   3.214   7.774   2.260
 3096TIP3   OH2 9244   7.751   5.381   3.430
 3096TIP3    H1 9245   7.696   5.310   3.462
 3096TIP3    H2 9246   7.799   5.342   3.357
 3097TIP3   OH2 9247   0.890   5.145   6.492
 3097TIP3    H1 9248   0.898   5.056   6.525
 3097TIP3    H2 9249   0.933   5.199   6.559
 3098TIP3   OH2 9250   2.624   0.978   2.261
 3098TIP3    H1 9251   2.625   1.050   2.197
 3098TIP3    H2 9252   2.666   1.015   2.338
 3099TIP3   OH2 9253   8.066   5.501   2.120
 3099TIP3    H1 9254   8.083   5.587   2.158
 3099TIP3    H2 9255   8.147   5.452   2.134
 3100TIP3   OH2 9256   1.883   7.082   6.122
 3100TIP3    H1 9257   1.819   7.011   6.125
 3100TIP3    H2 9258   1.954   7.048   6.068
 3101TIP3   OH2 9259   2.734   4.378   3.076
 3101TIP3    H1 9260   2.816   4.329   3.075
 3101TIP3    H2 9261   2.760   4.469   3.084
 3102TIP3   OH2 9262   5.977   1.804   2.416
 3102TIP3    H1 9263   6.000   1.758   2.335
 3102TIP3    H2 9264   5.922   1.877   2.387
 3103TIP3   OH2 9265   0.037   4.684   0.873
 3103TIP3    H1 9266   0.121   4.642   0.852
 3103TIP3    H2 9267  -0.024   4.611   0.885
 3104TIP3   OH2 9268   5.675   2.236   0.472
 3104TIP3    H1 9269   5.662   2.142   0.460
 3104TIP3    H2 9270   5.748   2.258   0.415
 3105TIP3   OH2 9271   3.215   5.529   0.601
 3105TIP3    H1 9272   3.180   5.441   0.610
 3105TIP3    H2 9273   3.181   5.576   0.678
 3106TIP3   OH2 9274   1.086   2.713   6.426
 3106TIP3    H1 9275   0.997   2.710   6.461
 3106TIP3    H2 9276   1.092   2.638   6.368
 3107TIP3   OH2 9277   1.565   6.415   3.225
 3107TIP3    H1 9278   1.587   6.324   3.206
 3107TIP3    H2 9279   1.469   6.417   3.224
 3108TIP3   OH2 9280   2.442   0.114   6.523
 3108TIP3    H1 9281   2.424   0.070   6.439
 3108TIP3    H2 9282   2.447   0.043   6.587
 3109TIP3   OH2 9283   0.214   6.634   2.449
 3109TIP3    H1 9284   0.176   6.649   2.362
 3109TIP3    H2 9285   0.178   6.704   2.503
 3110TIP3   OH2 9286   2.583   7.667   3.815
 3110TIP3    H1 9287   2.623   7.614   3.884
 3110TIP3    H2 9288   2.645   7.661   3.742
 3111TIP3   OH2 9289   7.582   6.819   6.102
 3111TIP3    H1 9290   7.649   6.830   6.035
 3111TIP3    H2 9291   7.502   6.801   6.053
 3112TIP3   OH2 9292   4.057   7.515   2.828
 3112TIP3    H1 9293   4.138   7.526   2.778
 3112TIP3    H2 9294   4.068   7.431   2.873
 3113TIP3   OH2 9295   4.486   1.881   2.046
 3113TIP3    H1 9296   4.403   1.832   2.043
 3113TIP3    H2 9297   4.552   1.815   2.068
 3114TIP3   OH2 9298   4.452   4.803   5.944
 3114TIP3    H1 9299   4.535   4.761   5.966
 3114TIP3    H2 9300   4.430   4.768   5.858
 3115TIP3   OH2 9301   4.644   5.339   5.235
 3115TIP3    H1 9302   4.634   5.414   5.177
 3115TIP3    H2 9303   4.730   5.302   5.213
 3116TIP3   OH2 9304   6.110   6.980   0.666
 3116TIP3    H1 9305   6.133   6.944   0.752
 3116TIP3    H2 9306   6.100   6.903   0.610
 3117TIP3   OH2 9307   5.669   1.993   5.342
 3117TIP3    H1 9308   5.589   1.954   5.379
 3117TIP3    H2 9309   5.689   1.938   5.266
 3118TIP3   OH2 9310   5.139   7.612   1.243
 3118TIP3    H1 9311   5.234   7.624   1.242
 3118TIP3    H2 9312   5.110   7.647   1.158
 3119TIP3   OH2 9313   5.271   3.883   1.298
 3119TIP3    H1 9314   5.272   3.968   1.341
 3119TIP3    H2 9315   5.263   3.903   1.204
 3120TIP3   OH2 9316   5.119   6.272   1.382
 3120TIP3    H1 9317   5.161   6.276   1.468
 3120TIP3    H2 9318   5.162   6.342   1.332
 3121TIP3   OH2 9319   1.354   3.787   4.148
 3121TIP3    H1 9320   1.395   3.769   4.233
 3121TIP3    H2 9321   1.343   3.882   4.147
 3122TIP3   OH2 9322   6.165   6.055   0.144
 3122TIP3    H1 9323   6.159   6.044   0.049
 3122TIP3    H2 9324   6.081   6.093   0.169
 3123TIP3   OH2 9325   1.717   0.457   2.771
 3123TIP3    H1 9326   1.749   0.407   2.846
 3123TIP3    H2 9327   1.671   0.392   2.717
 3124TIP3   OH2 9328   1.934   4.330   4.210
 3124TIP3    H1 9329   1.845   4.352   4.183
 3124TIP3    H2 9330   1.990   4.360   4.138
 3125TIP3   OH2 9331   0.908   0.254   3.054
 3125TIP3    H1 9332   0.879   0.309   2.981
 3125TIP3    H2 9333   0.984   0.299   3.090
 3126TIP3   OH2 9334   1.072   6.519   0.375
 3126TIP3    H1 9335   1.130   6.514   0.450
 3126TIP3    H2 9336   0.997   6.464   0.399
 3127TIP3   OH2 9337   6.669   6.581   1.765
 3127TIP3    H1 9338   6.635   6.565   1.853
 3127TIP3    H2 9339   6.593   6.569   1.707
 3128TIP3   OH2 9340   3.508   4.794   5.382
 3128TIP3    H1 9341   3.472   4.874   5.420
 3128TIP3    H2 9342   3.434   4.751   5.341
 3129TIP3   OH2 9343   3.170   6.106   1.639
 3129TIP3    H1 9344   3.191   6.085   1.730
 3129TIP3    H2 9345   3.159   6.020   1.597
 3130TIP3   OH2 9346   6.777   1.956   1.428
 3130TIP3    H1 9347   6.866   1.923   1.436
 3130TIP3    H2 9348   6.735   1.935   1.511
 3131TIP3   OH2 9349   6.174   7.574   5.914
 3131TIP3    H1 9350   6.135   7.505   5.968
 3131TIP3    H2 9351   6.260   7.589   5.953
 3132TIP3   OH2 9352   5.152   1.611   0.203
 3132TIP3    H1 9353   5.068   1.584   0.167
 3132TIP3    H2 9354   5.137   1.700   0.235
 3133TIP3   OH2 9355   3.482   6.673   5.524
 3133TIP3    H1 9356   3.572   6.670   5.493
 3133TIP3    H2 9357   3.434   6.718   5.454
 3134TIP3   OH2 9358   1.920   0.151   3.888
 3134TIP3    H1 9359   1.983   0.213   3.925
 3134TIP3    H2 9360   1.971   0.071   3.875
 3135TIP3   OH2 9361   1.394   3.213   6.416
 3135TIP3    H1 9362   1.430   3.239   6.331
 3135TIP3    H2 9363   1.323   3.275   6.432
 3136TIP3   OH2 9364   3.578   3.333   2.632
 3136TIP3    H1 9365   3.616   3.318   2.719
 3136TIP3    H2 9366   3.653   3.355   2.577
 3137TIP3   OH2 9367   2.076   2.076   5.857
 3137TIP3    H1 9368   2.104   2.166   5.841
 3137TIP3    H2 9369   1.980   2.081   5.863
 3138TIP3   OH2 9370   2.883   3.631   0.770
 3138TIP3    H1 9371   2.822   3.615   0.698
 3138TIP3    H2 9372   2.944   3.696   0.736
 3139TIP3   OH2 9373   2.512   6.432   0.971
 3139TIP3    H1 9374   2.606   6.428   0.985
 3139TIP3    H2 9375   2.502   6.429   0.876
 3140TIP3   OH2 9376   8.207   0.817   6.078
 3140TIP3    H1 9377   8.183   0.768   6.156
 3140TIP3    H2 9378   8.302   0.808   6.072
 3141TIP3   OH2 9379   6.395   6.663   1.340
 3141TIP3    H1 9380   6.346   6.595   1.294
 3141TIP3    H2 9381   6.483   6.659   1.303
 3142TIP3   OH2 9382   7.402   7.615   0.635
 3142TIP3    H1 9383   7.420   7.551   0.703
 3142TIP3    H2 9384   7.323   7.660   0.664
 3143TIP3   OH2 9385   7.567   6.568   1.305
 3143TIP3    H1 9386   7.473   6.562   1.321
 3143TIP3    H2 9387   7.581   6.516   1.226
 3144TIP3   OH2 9388   6.585   4.146   2.652
 3144TIP3    H1 9389   6.654   4.210   2.639
 3144TIP3    H2 9390   6.624   4.080   2.710
 3145TIP3   OH2 9391   5.182   0.378   2.466
 3145TIP3    H1 9392   5.146   0.353   2.380
 3145TIP3    H2 9393   5.110   0.420   2.512
 3146TIP3   OH2 9394   5.357   2.309   2.657
 3146TIP3    H1 9395   5.289   2.356   2.705
 3146TIP3    H2 9396   5.315   2.280   2.576
 3147TIP3   OH2 9397   0.921   3.776   5.395
 3147TIP3    H1 9398   0.843   3.783   5.449
 3147TIP3    H2 9399   0.978   3.714   5.442
 3148TIP3   OH2 9400   2.226   7.660   6.704
 3148TIP3    H1 9401   2.146   7.614   6.681
 3148TIP3    H2 9402   2.245   7.716   6.628
 3149TIP3   OH2 9403   3.907   5.924   3.210
 3149TIP3    H1 9404   3.863   5.904   3.128
 3149TIP3    H2 9405   3.854   5.994   3.249
 3150TIP3   OH2 9406   3.569   6.936   1.333
 3150TIP3    H1 9407   3.478   6.917   1.356
 3150TIP3    H2 9408   3.574   6.920   1.239
 3151TIP3   OH2 9409   5.603   6.652   4.817
 3151TIP3    H1 9410   5.694   6.662   4.789
 3151TIP3    H2 9411   5.551   6.666   4.737
 3152TIP3   OH2 9412   2.355   7.283   0.401
 3152TIP3    H1 9413   2.296   7.352   0.430
 3152TIP3    H2 9414   2.436   7.329   0.379
 3153TIP3   OH2 9415   2.312   6.277   5.668
 3153TIP3    H1 9416   2.386   6.313   5.619
 3153TIP3    H2 9417   2.333   6.184   5.678
 3154TIP3   OH2 9418   8.012   6.051   6.633
 3154TIP3    H1 9419   7.924   6.080   6.610
 3154TIP3    H2 9420   8.058   6.046   6.549
 3155TIP3   OH2 9421   1.119   0.417   4.160
 3155TIP3    H1 9422   1.175   0.489   4.189
 3155TIP3    H2 9423   1.176   0.340   4.161
 3156TIP3   OH2 9424   1.641   4.187   2.555
 3156TIP3    H1 9425   1.588   4.264   2.573
 3156TIP3    H2 9426   1.700   4.180   2.630
 3157TIP3   OH2 9427   3.087   0.039   2.517
 3157TIP3    H1 9428   3.116   0.004   2.601
 3157TIP3    H2 9429   2.997   0.067   2.533
 3158TIP3   OH2 9430   6.730   5.942   2.687
 3158TIP3    H1 9431   6.684   5.909   2.610
 3158TIP3    H2 9432   6.671   6.009   2.722
 3159TIP3   OH2 9433   3.950   7.625   2.475
 3159TIP3    H1 9434   3.927   7.714   2.503
 3159TIP3    H2 9435   4.032   7.606   2.521
 3160TIP3   OH2 9436   2.096   1.703   1.863
 3160TIP3    H1 9437   2.110   1.678   1.955
 3160TIP3    H2 9438   2.086   1.798   1.866
 3161TIP3   OH2 9439   6.835   7.645   0.798
 3161TIP3    H1 9440   6.788   7.680   0.722
 3161TIP3    H2 9441   6.768   7.638   0.866
 3162TIP3   OH2 9442   4.266   6.276   0.373
 3162TIP3    H1 9443   4.302   6.195   0.338
 3162TIP3    H2 9444   4.250   6.258   0.465
 3163TIP3   OH2 9445   8.130   1.617   6.575
 3163TIP3    H1 9446   8.150   1.704   6.608
 3163TIP3    H2 9447   8.074   1.632   6.499
 3164TIP3   OH2 9448   8.115   6.112   4.758
 3164TIP3    H1 9449   8.185   6.174   4.736
 3164TIP3    H2 9450   8.157   6.049   4.817
 3165TIP3   OH2 9451   0.385   6.407   6.186
 3165TIP3    H1 9452   0.340   6.452   6.114
 3165TIP3    H2 9453   0.476   6.436   6.178
 3166TIP3   OH2 9454   5.128   3.928   0.133
 3166TIP3    H1 9455   5.063   3.988   0.097
 3166TIP3    H2 9456   5.156   3.875   0.059
 3167TIP3   OH2 9457   4.345   4.413   0.203
 3167TIP3    H1 9458   4.401   4.432   0.278
 3167TIP3    H2 9459   4.269   4.468   0.215
 3168TIP3   OH2 9460   2.650   0.420   1.041
 3168TIP3    H1 9461   2.602   0.382   1.115
 3168TIP3    H2 9462   2.741   0.397   1.057
 3169TIP3   OH2 9463   6.381   6.231   5.401
 3169TIP3    H1 9464   6.292   6.233   5.365
 3169TIP3    H2 9465   6.429   6.170   5.345
 3170TIP3   OH2 9466   1.567   7.643   5.851
 3170TIP3    H1 9467   1.588   7.562   5.897
 3170TIP3    H2 9468   1.653   7.682   5.831
 3171TIP3   OH2 9469   5.277   7.391   5.197
 3171TIP3    H1 9470   5.259   7.459   5.262
 3171TIP3    H2 9471   5.363   7.357   5.221
 3172TIP3   OH2 9472   6.565   0.959   5.397
 3172TIP3    H1 9473   6.499   0.898   5.366
 3172TIP3    H2 9474   6.539   1.044   5.360
 3173TIP3   OH2 9475   2.995   6.304   1.633
 3173TIP3    H1 9476   3.047   6.226   1.644
 3173TIP3    H2 9477   2.916   6.274   1.588
 3174TIP3   OH2 9478   6.333   5.318   2.160
 3174TIP3    H1 9479   6.290   5.233   2.167
 3174TIP3    H2 9480   6.346   5.346   2.250
 3175TIP3   OH2 9481   1.862   5.463   5.949
 3175TIP3    H1 9482   1.810   5.542   5.935
 3175TIP3    H2 9483   1.951   5.494   5.962
 3176TIP3   OH2 9484   3.318   0.010   4.950
 3176TIP3    H1 9485   3.314   0.105   4.942
 3176TIP3    H2 9486   3.409  -0.012   4.928
 3177TIP3   OH2 9487   0.857   2.797   0.005
 3177TIP3    H1 9488   0.781   2.853   0.022
 3177TIP3    H2 9489   0.845   2.766  -0.085
 3178TIP3   OH2 9490   0.087   2.772   5.407
 3178TIP3    H1 9491  -0.008   2.760   5.414
 3178TIP3    H2 9492   0.124   2.695   5.450
 3179TIP3   OH2 9493   5.636   4.193   3.630
 3179TIP3    H1 9494   5.556   4.190   3.682
 3179TIP3    H2 9495   5.696   4.132   3.675
 3180TIP3   OH2 9496  -0.038   1.365   0.551
 3180TIP3    H1 9497  -0.102   1.324   0.609
 3180TIP3    H2 9498   0.000   1.435   0.604
 3181TIP3   OH2 9499   2.345   5.572   6.778
 3181TIP3    H1 9500   2.321   5.490   6.820
 3181TIP3    H2 9501   2.303   5.569   6.692
 3182TIP3   OH2 9502   2.369   4.453   5.268
 3182TIP3    H1 9503   2.458   4.427   5.291
 3182TIP3    H2 9504   2.380   4.535   5.219
 3183TIP3   OH2 9505   2.524   3.512   4.750
 3183TIP3    H1 9506   2.442   3.495   4.795
 3183TIP3    H2 9507   2.504   3.583   4.689
 3184TIP3   OH2 9508   0.547   1.336   0.861
 3184TIP3    H1 9509   0.463   1.294   0.880
 3184TIP3    H2 9510   0.543   1.420   0.907
 3185TIP3   OH2 9511   3.098   2.126   2.749
 3185TIP3    H1 9512   3.134   2.213   2.765
 3185TIP3    H2 9513   3.029   2.116   2.815
 3186TIP3   OH2 9514   1.243   2.221   3.300
 3186TIP3    H1 9515   1.335   2.195   3.305
 3186TIP3    H2 9516   1.244   2.316   3.304
 3187TIP3   OH2 9517   4.235   6.487   4.760
 3187TIP3    H1 9518   4.169   6.419   4.749
 3187TIP3    H2 9519   4.198   6.564   4.717
 3188TIP3   OH2 9520   7.281   4.603   3.151
 3188TIP3    H1 9521   7.255   4.668   3.087
 3188TIP3    H2 9522   7.374   4.620   3.166
 3189TIP3   OH2 9523   7.654   7.030   0.714
 3189TIP3    H1 9524   7.679   6.950   0.668
 3189TIP3    H2 9525   7.594   7.001   0.783
 3190TIP3   OH2 9526   0.822   7.341   4.941
 3190TIP3    H1 9527   0.908   7.312   4.973
 3190TIP3    H2 9528   0.801   7.280   4.871
 3191TIP3   OH2 9529   5.553   5.689   4.370
 3191TIP3    H1 9530   5.597   5.763   4.329
 3191TIP3    H2 9531   5.504   5.727   4.442
 3192TIP3   OH2 9532   2.295   6.921   4.124
 3192TIP3    H1 9533   2.355   6.921   4.050
 3192TIP3    H2 9534   2.242   7.000   4.111
 3193TIP3   OH2 9535   6.572   1.723   0.945
 3193TIP3    H1 9536   6.641   1.684   0.998
 3193TIP3    H2 9537   6.491   1.687   0.981
 3194TIP3   OH2 9538   4.732   6.532   1.307
 3194TIP3    H1 9539   4.792   6.557   1.236
 3194TIP3    H2 9540   4.659   6.489   1.263
 3195TIP3   OH2 9541   6.940   7.050   2.580
 3195TIP3    H1 9542   6.847   7.033   2.566
 3195TIP3    H2 9543   6.958   7.017   2.669
 3196TIP3   OH2 9544   1.745   3.367   1.829
 3196TIP3    H1 9545   1.790   3.359   1.913
 3196TIP3    H2 9546   1.655   3.392   1.853
 3197TIP3   OH2 9547   8.023   1.972   1.713
 3197TIP3    H1 9548   7.953   1.958   1.776
 3197TIP3    H2 9549   7.982   2.022   1.642
 3198TIP3   OH2 9550   1.371   2.563   5.999
 3198TIP3    H1 9551   1.418   2.638   5.962
 3198TIP3    H2 9552   1.437   2.515   6.049
 3199TIP3   OH2 9553   0.786   5.582   1.563
 3199TIP3    H1 9554   0.854   5.576   1.629
 3199TIP3    H2 9555   0.833   5.581   1.479
 3200TIP3   OH2 9556   6.980   2.468   1.584
 3200TIP3    H1 9557   6.906   2.474   1.524
 3200TIP3    H2 9558   6.967   2.384   1.629
 3201TIP3   OH2 9559   1.917   4.554   5.326
 3201TIP3    H1 9560   1.899   4.507   5.408
 3201TIP3    H2 9561   1.973   4.494   5.276
 3202TIP3   OH2 9562   4.014   6.514   5.671
 3202TIP3    H1 9563   3.929   6.483   5.703
 3202TIP3    H2 9564   4.022   6.476   5.583
 3203TIP3   OH2 9565   6.579   6.134   5.212
 3203TIP3    H1 9566   6.541   6.098   5.132
 3203TIP3    H2 9567   6.628   6.211   5.181
 3204TIP3   OH2 9568   0.782   5.010   5.313
 3204TIP3    H1 9569   0.740   4.945   5.257
 3204TIP3    H2 9570   0.875   4.987   5.313
 3205TIP3   OH2 9571   6.417   1.486   4.009
 3205TIP3    H1 9572   6.325   1.461   4.001
 3205TIP3    H2 9573   6.442   1.457   4.097
 3206TIP3   OH2 9574   0.163   3.932   2.579
 3206TIP3    H1 9575   0.114   3.994   2.524
 3206TIP3    H2 9576   0.248   3.974   2.593
 3207TIP3   OH2 9577   6.346   3.441   1.822
 3207TIP3    H1 9578   6.424   3.493   1.844
 3207TIP3    H2 9579   6.369   3.399   1.739
 3208TIP3   OH2 9580   3.595   3.773   1.594
 3208TIP3    H1 9581   3.683   3.788   1.629
 3208TIP3    H2 9582   3.545   3.741   1.669
 3209TIP3   OH2 9583   6.663   2.663   2.913
 3209TIP3    H1 9584   6.739   2.700   2.956
 3209TIP3    H2 9585   6.660   2.572   2.943
 3210TIP3   OH2 9586   6.898   6.380   1.999
 3210TIP3    H1 9587   6.919   6.384   2.092
 3210TIP3    H2 9588   6.843   6.457   1.984
 3211TIP3   OH2 9589   5.744   1.540   3.996
 3211TIP3    H1 9590   5.759   1.599   3.922
 3211TIP3    H2 9591   5.653   1.557   4.022
 3212TIP3   OH2 9592   2.439   4.194   1.068
 3212TIP3    H1 9593   2.368   4.161   1.013
 3212TIP3    H2 9594   2.518   4.161   1.027
 3213TIP3   OH2 9595   0.124   4.328   6.338
 3213TIP3    H1 9596   0.103   4.243   6.298
 3213TIP3    H2 9597   0.199   4.360   6.287
 3214TIP3   OH2 9598   7.698   1.059   1.233
 3214TIP3    H1 9599   7.754   1.113   1.178
 3214TIP3    H2 9600   7.644   1.121   1.281
 3215TIP3   OH2 9601   2.872   2.431   6.462
 3215TIP3    H1 9602   2.960   2.469   6.454
 3215TIP3    H2 9603   2.877   2.376   6.540
 3216TIP3   OH2 9604   5.780   1.627   0.364
 3216TIP3    H1 9605   5.692   1.641   0.329
 3216TIP3    H2 9606   5.829   1.705   0.337
 3217TIP3   OH2 9607   7.874   5.384   4.060
 3217TIP3    H1 9608   7.804   5.353   4.118
 3217TIP3    H2 9609   7.923   5.447   4.113
 3218TIP3   OH2 9610   6.724   6.200   2.461
 3218TIP3    H1 9611   6.645   6.253   2.467
 3218TIP3    H2 9612   6.780   6.232   2.531
 3219TIP3   OH2 9613   4.315   4.244   1.563
 3219TIP3    H1 9614   4.288   4.251   1.471
 3219TIP3    H2 9615   4.240   4.205   1.607
 3220TIP3   OH2 9616   5.372   0.299   1.241
 3220TIP3    H1 9617   5.364   0.209   1.212
 3220TIP3    H2 9618   5.292   0.316   1.290
 3221TIP3   OH2 9619   0.747   1.022   1.672
 3221TIP3    H1 9620   0.704   0.963   1.610
 3221TIP3    H2 9621   0.745   1.108   1.629
 3222TIP3   OH2 9622   3.419   5.581   3.384
 3222TIP3    H1 9623   3.374   5.560   3.302
 3222TIP3    H2 9624   3.471   5.502   3.404
 3223TIP3   OH2 9625   3.556   4.164   2.173
 3223TIP3    H1 9626   3.608   4.085   2.165
 3223TIP3    H2 9627   3.472   4.141   2.132
 3224TIP3   OH2 9628   6.626   0.699   0.279
 3224TIP3    H1 9629   6.674   0.672   0.201
 3224TIP3    H2 9630   6.685   0.759   0.325
 3225TIP3   OH2 9631   3.203   3.664   6.429
 3225TIP3    H1 9632   3.227   3.653   6.337
 3225TIP3    H2 9633   3.232   3.752   6.452
 3226TIP3   OH2 9634   3.071   6.650   3.856
 3226TIP3    H1 9635   3.105   6.583   3.916
 3226TIP3    H2 9636   3.066   6.729   3.909
 3227TIP3   OH2 9637   6.326   7.085   5.342
 3227TIP3    H1 9638   6.358   7.127   5.422
 3227TIP3    H2 9639   6.286   7.156   5.291
 3228TIP3   OH2 9640   4.159   4.019   5.733
 3228TIP3    H1 9641   4.204   4.025   5.817
 3228TIP3    H2 9642   4.182   3.933   5.699
 3229TIP3   OH2 9643   4.908   0.557   3.297
 3229TIP3    H1 9644   4.931   0.649   3.313
 3229TIP3    H2 9645   4.906   0.518   3.384
 3230TIP3   OH2 9646   3.397   1.784   3.343
 3230TIP3    H1 9647   3.372   1.853   3.282
 3230TIP3    H2 9648   3.417   1.830   3.425
 3231TIP3   OH2 9649   6.348   1.154   3.949
 3231TIP3    H1 9650   6.257   1.128   3.966
 3231TIP3    H2 9651   6.352   1.165   3.854
 3232TIP3   OH2 9652   3.999   1.842   1.959
 3232TIP3    H1 9653   3.955   1.927   1.949
 3232TIP3    H2 9654   3.986   1.798   1.875
 3233TIP3   OH2 9655   8.174   3.708   0.965
 3233TIP3    H1 9656   8.193   3.626   1.011
 3233TIP3    H2 9657   8.163   3.681   0.873
 3234TIP3   OH2 9658   6.342   6.677   3.751
 3234TIP3    H1 9659   6.403   6.737   3.709
 3234TIP3    H2 9660   6.377   6.663   3.839
 3235TIP3   OH2 9661   4.222   2.173   3.863
 3235TIP3    H1 9662   4.315   2.155   3.877
 3235TIP3    H2 9663   4.176   2.115   3.924
 3236TIP3   OH2 9664   0.517   7.614   6.463
 3236TIP3    H1 9665   0.430   7.653   6.467
 3236TIP3    H2 9666   0.577   7.686   6.481
 3237TIP3   OH2 9667   6.351   1.693   5.937
 3237TIP3    H1 9668   6.325   1.711   6.028
 3237TIP3    H2 9669   6.274   1.718   5.886
 3238TIP3   OH2 9670   4.968   4.949   5.933
 3238TIP3    H1 9671   4.965   4.856   5.956
 3238TIP3    H2 9672   4.876   4.974   5.922
 3239TIP3   OH2 9673   4.878   3.655   4.354
 3239TIP3    H1 9674   4.930   3.681   4.278
 3239TIP3    H2 9675   4.882   3.560   4.355
 3240TIP3   OH2 9676   8.170   4.000   1.532
 3240TIP3    H1 9677   8.097   4.053   1.565
 3240TIP3    H2 9678   8.159   4.000   1.437
 3241TIP3   OH2 9679   0.322   7.793   6.517
 3241TIP3    H1 9680   0.322   7.785   6.612
 3241TIP3    H2 9681   0.243   7.844   6.497
 3242TIP3   OH2 9682   2.057   1.332   6.147
 3242TIP3    H1 9683   2.115   1.343   6.223
 3242TIP3    H2 9684   2.015   1.248   6.162
 3243TIP3   OH2 9685   7.835   7.425   1.275
 3243TIP3    H1 9686   7.801   7.428   1.364
 3243TIP3    H2 9687   7.906   7.362   1.278
 3244TIP3   OH2 9688   3.055   7.118   4.229
 3244TIP3    H1 9689   3.093   7.056   4.292
 3244TIP3    H2 9690   3.113   7.194   4.233
 3245TIP3   OH2 9691   2.770   2.008   5.348
 3245TIP3    H1 9692   2.800   2.025   5.259
 3245TIP3    H2 9693   2.736   2.092   5.378
 3246TIP3   OH2 9694   2.880   0.412   0.854
 3246TIP3    H1 9695   2.912   0.474   0.921
 3246TIP3    H2 9696   2.901   0.326   0.890
 3247TIP3   OH2 9697   5.468   0.683   0.347
 3247TIP3    H1 9698   5.436   0.753   0.290
 3247TIP3    H2 9699   5.563   0.686   0.337
 3248TIP3   OH2 9700   5.574   4.171   2.015
 3248TIP3    H1 9701   5.654   4.120   2.003
 3248TIP3    H2 9702   5.605   4.261   2.030
 3249TIP3   OH2 9703   3.694   6.417   3.195
 3249TIP3    H1 9704   3.627   6.365   3.151
 3249TIP3    H2 9705   3.646   6.469   3.259
 3250TIP3   OH2 9706   8.158   3.864   5.736
 3250TIP3    H1 9707   8.235   3.818   5.767
 3250TIP3    H2 9708   8.100   3.795   5.703
 3251TIP3   OH2 9709   7.942   3.170   2.921
 3251TIP3    H1 9710   7.911   3.260   2.910
 3251TIP3    H2 9711   7.897   3.138   2.999
 3252TIP3   OH2 9712   4.142   7.820   2.135
 3252TIP3    H1 9713   4.093   7.738   2.132
 3252TIP3    H2 9714   4.222   7.798   2.184
 3253TIP3   OH2 9715   3.016   5.761   3.258
 3253TIP3    H1 9716   2.951   5.829   3.239
 3253TIP3    H2 9717   3.096   5.809   3.280
 3254TIP3   OH2 9718   1.130   5.119   1.002
 3254TIP3    H1 9719   1.125   5.213   1.020
 3254TIP3    H2 9720   1.044   5.085   1.029
 3255TIP3   OH2 9721   6.095   1.951   4.610
 3255TIP3    H1 9722   6.105   1.994   4.694
 3255TIP3    H2 9723   6.092   1.857   4.631
 3256TIP3   OH2 9724   7.936   0.718   2.314
 3256TIP3    H1 9725   7.935   0.767   2.396
 3256TIP3    H2 9726   7.925   0.785   2.247
 3257TIP3   OH2 9727   7.228   3.291   3.563
 3257TIP3    H1 9728   7.307   3.331   3.599
 3257TIP3    H2 9729   7.246   3.197   3.563
 3258TIP3   OH2 9730   7.001   0.899   2.519
 3258TIP3    H1 9731   6.951   0.934   2.593
 3258TIP3    H2 9732   7.016   0.807   2.542
 3259TIP3   OH2 9733   5.348   3.856   3.380
 3259TIP3    H1 9734   5.437   3.847   3.347
 3259TIP3    H2 9735   5.298   3.790   3.332
 3260TIP3   OH2 9736   4.151   4.206   0.152
 3260TIP3    H1 9737   4.233   4.252   0.131
 3260TIP3    H2 9738   4.176   4.114   0.155
 3261TIP3   OH2 9739   0.374   2.428   2.609
 3261TIP3    H1 9740   0.370   2.428   2.513
 3261TIP3    H2 9741   0.343   2.341   2.633
 3262TIP3   OH2 9742   3.226   0.652   0.590
 3262TIP3    H1 9743   3.236   0.699   0.507
 3262TIP3    H2 9744   3.137   0.671   0.618
 3263TIP3   OH2 9745   6.851   5.266   3.448
 3263TIP3    H1 9746   6.902   5.336   3.490
 3263TIP3    H2 9747   6.799   5.228   3.519
 3264TIP3   OH2 9748   4.732   6.005   5.425
 3264TIP3    H1 9749   4.813   5.981   5.380
 3264TIP3    H2 9750   4.690   5.921   5.445
 3265TIP3   OH2 9751   0.638   1.029   3.061
 3265TIP3    H1 9752   0.576   0.993   3.124
 3265TIP3    H2 9753   0.619   1.123   3.059
 3266TIP3   OH2 9754   5.338   7.063   3.472
 3266TIP3    H1 9755   5.420   7.016   3.487
 3266TIP3    H2 9756   5.270   6.995   3.473
 3267TIP3   OH2 9757   0.519   3.540   1.277
 3267TIP3    H1 9758   0.498   3.588   1.358
 3267TIP3    H2 9759   0.435   3.529   1.234
 3268TIP3   OH2 9760   1.604   0.207   4.836
 3268TIP3    H1 9761   1.686   0.212   4.885
 3268TIP3    H2 9762   1.585   0.298   4.812
 3269TIP3   OH2 9763   5.244   3.751   2.497
 3269TIP3    H1 9764   5.160   3.741   2.541
 3269TIP3    H2 9765   5.248   3.844   2.473
 3270TIP3   OH2 9766   3.117   1.689   1.919
 3270TIP3    H1 9767   3.173   1.687   1.997
 3270TIP3    H2 9768   3.069   1.606   1.922
 3271TIP3   OH2 9769   0.125   1.482   1.943
 3271TIP3    H1 9770   0.082   1.450   2.022
 3271TIP3    H2 9771   0.218   1.490   1.967
 3272TIP3   OH2 9772   0.120   5.986   6.053
 3272TIP3    H1 9773   0.062   5.937   6.112
 3272TIP3    H2 9774   0.200   5.933   6.048
 3273TIP3   OH2 9775   0.568   0.529   5.260
 3273TIP3    H1 9776   0.499   0.462   5.257
 3273TIP3    H2 9777   0.521   0.612   5.249
 3274TIP3   OH2 9778   4.774   2.058   5.641
 3274TIP3    H1 9779   4.776   1.962   5.639
 3274TIP3    H2 9780   4.690   2.079   5.681
 3275TIP3   OH2 9781   4.484   1.119   1.981
 3275TIP3    H1 9782   4.520   1.095   2.066
 3275TIP3    H2 9783   4.494   1.039   1.928
 3276TIP3   OH2 9784   8.272   5.159   5.551
 3276TIP3    H1 9785   8.183   5.162   5.516
 3276TIP3    H2 9786   8.275   5.230   5.615
 3277TIP3   OH2 9787   1.480   0.821   2.809
 3277TIP3    H1 9788   1.478   0.737   2.856
 3277TIP3    H2 9789   1.410   0.815   2.744
 3278TIP3   OH2 9790   3.769   4.909   5.942
 3278TIP3    H1 9791   3.715   4.958   5.880
 3278TIP3    H2 9792   3.823   4.853   5.887
 3279TIP3   OH2 9793   6.017   0.362   5.805
 3279TIP3    H1 9794   6.004   0.309   5.884
 3279TIP3    H2 9795   6.111   0.355   5.788
 3280TIP3   OH2 9796   2.868   4.999   5.088
 3280TIP3    H1 9797   2.787   5.042   5.114
 3280TIP3    H2 9798   2.900   5.050   5.013
 3281TIP3   OH2 9799   7.177   1.531   0.695
 3281TIP3    H1 9800   7.192   1.543   0.601
 3281TIP3    H2 9801   7.087   1.562   0.709
 3282TIP3   OH2 9802   1.889   0.886   4.486
 3282TIP3    H1 9803   1.801   0.923   4.476
 3282TIP3    H2 9804   1.916   0.864   4.397
 3283TIP3   OH2 9805   4.692   7.681   4.398
 3283TIP3    H1 9806   4.626   7.636   4.451
 3283TIP3    H2 9807   4.747   7.727   4.461
 3284TIP3   OH2 9808   3.759   6.817   5.906
 3284TIP3    H1 9809   3.749   6.722   5.913
 3284TIP3    H2 9810   3.680   6.846   5.859
 3285TIP3   OH2 9811   1.197   5.429   0.760
 3285TIP3    H1 9812   1.135   5.501   0.769
 3285TIP3    H2 9813   1.251   5.432   0.838
 3286TIP3   OH2 9814   6.956   5.072   0.354
 3286TIP3    H1 9815   6.961   5.084   0.449
 3286TIP3    H2 9816   7.005   5.146   0.318
 3287TIP3   OH2 9817   5.917   0.672   2.744
 3287TIP3    H1 9818   5.957   0.592   2.780
 3287TIP3    H2 9819   5.953   0.743   2.797
 3288TIP3   OH2 9820   5.971   4.282   2.505
 3288TIP3    H1 9821   5.978   4.275   2.600
 3288TIP3    H2 9822   6.039   4.224   2.472
 3289TIP3   OH2 9823   4.760   4.573   6.267
 3289TIP3    H1 9824   4.688   4.565   6.330
 3289TIP3    H2 9825   4.774   4.485   6.235
 3290TIP3   OH2 9826   7.379   1.265   1.827
 3290TIP3    H1 9827   7.415   1.351   1.846
 3290TIP3    H2 9828   7.294   1.264   1.871
 3291TIP3   OH2 9829   2.136   3.819   0.800
 3291TIP3    H1 9830   2.062   3.872   0.829
 3291TIP3    H2 9831   2.099   3.762   0.732
 3292TIP3   OH2 9832   1.341   7.310   2.752
 3292TIP3    H1 9833   1.342   7.310   2.657
 3292TIP3    H2 9834   1.250   7.327   2.776
 3293TIP3   OH2 9835   2.988   2.534   2.763
 3293TIP3    H1 9836   3.000   2.547   2.669
 3293TIP3    H2 9837   2.893   2.542   2.776
 3294TIP3   OH2 9838   3.297   6.455   5.498
 3294TIP3    H1 9839   3.220   6.503   5.468
 3294TIP3    H2 9840   3.366   6.522   5.505
 3295TIP3   OH2 9841   6.038   1.091   5.950
 3295TIP3    H1 9842   6.124   1.130   5.932
 3295TIP3    H2 9843   6.009   1.058   5.865
 3296TIP3   OH2 9844   4.307   5.341   0.551
 3296TIP3    H1 9845   4.267   5.409   0.606
 3296TIP3    H2 9846   4.239   5.275   0.541
 3297TIP3   OH2 9847   5.352   6.912   1.201
 3297TIP3    H1 9848   5.375   6.918   1.294
 3297TIP3    H2 9849   5.389   6.828   1.173
 3298TIP3   OH2 9850   3.489   5.964   3.129
 3298TIP3    H1 9851   3.480   6.047   3.082
 3298TIP3    H2 9852   3.412   5.913   3.103
 3299TIP3   OH2 9853   2.579   7.358   5.495
 3299TIP3    H1 9854   2.658   7.408   5.514
 3299TIP3    H2 9855   2.610   7.281   5.447
 3300TIP3   OH2 9856   1.673   5.962   2.718
 3300TIP3    H1 9857   1.733   6.002   2.781
 3300TIP3    H2 9858   1.726   5.897   2.672
 3301TIP3   OH2 9859   4.875   7.009   5.799
 3301TIP3    H1 9860   4.945   7.065   5.834
 3301TIP3    H2 9861   4.794   7.053   5.825
 3302TIP3   OH2 9862   7.592   3.448   4.680
 3302TIP3    H1 9863   7.671   3.466   4.731
 3302TIP3    H2 9864   7.598   3.506   4.605
 3303TIP3   OH2 9865   5.385   7.014   2.181
 3303TIP3    H1 9866   5.451   7.057   2.235
 3303TIP3    H2 9867   5.345   6.949   2.240
 3304TIP3   OH2 9868   5.264   6.162   0.755
 3304TIP3    H1 9869   5.268   6.257   0.761
 3304TIP3    H2 9870   5.170   6.142   0.750
 3305TIP3   OH2 9871   6.990   5.093   4.743
 3305TIP3    H1 9872   7.035   5.162   4.695
 3305TIP3    H2 9873   6.908   5.080   4.695
 3306TIP3   OH2 9874   6.017   3.914   0.108
 3306TIP3    H1 9875   6.047   3.880   0.192
 3306TIP3    H2 9876   5.946   3.855   0.082
 3307TIP3   OH2 9877   0.247   2.115   0.851
 3307TIP3    H1 9878   0.239   2.114   0.946
 3307TIP3    H2 9879   0.172   2.166   0.821
 3308TIP3   OH2 9880   2.835   0.234   5.831
 3308TIP3    H1 9881   2.821   0.324   5.800
 3308TIP3    H2 9882   2.748   0.196   5.837
 3309TIP3   OH2 9883   3.880   0.161   5.102
 3309TIP3    H1 9884   3.937   0.085   5.095
 3309TIP3    H2 9885   3.847   0.159   5.192
 3310TIP3   OH2 9886   4.787   7.419   3.311
 3310TIP3    H1 9887   4.848   7.486   3.279
 3310TIP3    H2 9888   4.728   7.404   3.237
 3311TIP3   OH2 9889   1.896   3.096   6.322
 3311TIP3    H1 9890   1.814   3.082   6.369
 3311TIP3    H2 9891   1.964   3.099   6.390
 3312TIP3   OH2 9892   0.253   4.284   5.017
 3312TIP3    H1 9893   0.336   4.308   4.976
 3312TIP3    H2 9894   0.248   4.189   5.006
 3313TIP3   OH2 9895   4.942   0.133   3.653
 3313TIP3    H1 9896   4.928   0.039   3.650
 3313TIP3    H2 9897   4.939   0.155   3.746
 3314TIP3   OH2 9898   5.484   7.442   4.384
 3314TIP3    H1 9899   5.467   7.392   4.303
 3314TIP3    H2 9900   5.563   7.401   4.420
 3315TIP3   OH2 9901   6.768   5.795   1.032
 3315TIP3    H1 9902   6.860   5.819   1.027
 3315TIP3    H2 9903   6.750   5.752   0.948
 3316TIP3   OH2 9904   5.758   6.138   1.595
 3316TIP3    H1 9905   5.723   6.088   1.521
 3316TIP3    H2 9906   5.694   6.127   1.665
 3317TIP3   OH2 9907   2.853   0.817   1.456
 3317TIP3    H1 9908   2.834   0.735   1.501
 3317TIP3    H2 9909   2.878   0.791   1.367
 3318TIP3   OH2 9910   2.526   3.300   6.077
 3318TIP3    H1 9911   2.555   3.286   6.167
 3318TIP3    H2 9912   2.556   3.222   6.030
 3319TIP3   OH2 9913   3.188   3.742   0.368
 3319TIP3    H1 9914   3.104   3.720   0.328
 3319TIP3    H2 9915   3.227   3.657   0.389
 3320TIP3   OH2 9916   1.155   1.814   0.459
 3320TIP3    H1 9917   1.221   1.881   0.474
 3320TIP3    H2 9918   1.159   1.757   0.536
 3321TIP3   OH2 9919   3.837   0.523   4.916
 3321TIP3    H1 9920   3.750   0.525   4.955
 3321TIP3    H2 9921   3.838   0.442   4.865
 3322TIP3   OH2 9922   1.061   1.584   6.437
 3322TIP3    H1 9923   1.108   1.505   6.464
 3322TIP3    H2 9924   0.980   1.551   6.397
 3323TIP3   OH2 9925   5.544   4.269   1.645
 3323TIP3    H1 9926   5.631   4.241   1.674
 3323TIP3    H2 9927   5.484   4.231   1.709
 3324TIP3   OH2 9928   2.300   4.018   2.019
 3324TIP3    H1 9929   2.356   4.066   1.959
 3324TIP3    H2 9930   2.304   4.068   2.101
 3325TIP3   OH2 9931   0.446   3.316   4.613
 3325TIP3    H1 9932   0.412   3.285   4.529
 3325TIP3    H2 9933   0.478   3.404   4.595
 3326TIP3   OH2 9934   0.892   5.797   0.325
 3326TIP3    H1 9935   0.973   5.799   0.274
 3326TIP3    H2 9936   0.831   5.851   0.275
 3327TIP3   OH2 9937   7.476   3.234   1.941
 3327TIP3    H1 9938   7.541   3.250   2.010
 3327TIP3    H2 9939   7.403   3.192   1.986
 3328TIP3   OH2 9940   0.421   6.945   4.453
 3328TIP3    H1 9941   0.468   7.007   4.398
 3328TIP3    H2 9942   0.443   6.970   4.543
 3329TIP3   OH2 9943   3.158   1.697   1.327
 3329TIP3    H1 9944   3.139   1.726   1.237
 3329TIP3    H2 9945   3.252   1.684   1.328
 3330TIP3   OH2 9946   3.718   2.504   5.167
 3330TIP3    H1 9947   3.702   2.590   5.126
 3330TIP3    H2 9948   3.700   2.441   5.097
 3331TIP3   OH2 9949   3.948   7.423   0.076
 3331TIP3    H1 9950   3.967   7.330   0.088
 3331TIP3    H2 9951   3.861   7.435   0.114
 3332TIP3   OH2 9952   0.513   0.130   4.552
 3332TIP3    H1 9953   0.465   0.179   4.619
 3332TIP3    H2 9954   0.598   0.175   4.547
 3333TIP3   OH2 9955   4.201   3.061   2.072
 3333TIP3    H1 9956   4.230   3.087   2.159
 3333TIP3    H2 9957   4.118   3.106   2.060
 3334TIP3   OH2 9958   3.106   0.987   1.685
 3334TIP3    H1 9959   3.033   1.048   1.695
 3334TIP3    H2 9960   3.146   0.983   1.772
 3335TIP3   OH2 9961   1.399   5.581   4.521
 3335TIP3    H1 9962   1.472   5.589   4.582
 3335TIP3    H2 9963   1.373   5.488   4.527
 3336TIP3   OH2 9964   1.359   4.074   4.153
 3336TIP3    H1 9965   1.336   4.080   4.246
 3336TIP3    H2 9966   1.424   4.143   4.140
 3337TIP3   OH2 9967   2.059   0.533   1.900
 3337TIP3    H1 9968   1.996   0.566   1.835
 3337TIP3    H2 9969   2.045   0.589   1.976
 3338TIP3   OH2 9970   5.762   6.485   1.969
 3338TIP3    H1 9971   5.805   6.541   1.905
 3338TIP3    H2 9972   5.671   6.516   1.971
 3339TIP3   OH2 9973   0.564   7.180   1.427
 3339TIP3    H1 9974   0.489   7.229   1.394
 3339TIP3    H2 9975   0.573   7.210   1.518
 3340TIP3   OH2 9976   3.301   4.984   5.455
 3340TIP3    H1 9977   3.288   4.935   5.374
 3340TIP3    H2 9978   3.214   5.014   5.480
 3341TIP3   OH2 9979   1.321   3.825   0.360
 3341TIP3    H1 9980   1.309   3.853   0.269
 3341TIP3    H2 9981   1.280   3.895   0.411
 3342TIP3   OH2 9982   1.507   2.853   2.598
 3342TIP3    H1 9983   1.464   2.780   2.643
 3342TIP3    H2 9984   1.528   2.915   2.668
 3343TIP3   OH2 9985   7.355   4.885   0.665
 3343TIP3    H1 9986   7.296   4.881   0.590
 3343TIP3    H2 9987   7.398   4.799   0.666
 3344TIP3   OH2 9988   4.585   3.458   3.580
 3344TIP3    H1 9989   4.678   3.480   3.588
 3344TIP3    H2 9990   4.563   3.415   3.662
 3345TIP3   OH2 9991   0.478   5.322   6.706
 3345TIP3    H1 9992   0.545   5.379   6.666
 3345TIP3    H2 9993   0.447   5.372   6.782
 3346TIP3   OH2 9994   4.016   5.649   3.802
 3346TIP3    H1 9995   4.095   5.597   3.812
 3346TIP3    H2 9996   3.947   5.596   3.842
 3347TIP3   OH2 9997   1.293   4.453   1.877
 3347TIP3    H1 9998   1.248   4.402   1.945
 3347TIP3    H2 9999   1.229   4.461   1.806
 3348TIP3   OH210000   1.782   4.378   3.425
 3348TIP3    H110001   1.746   4.339   3.345
 3348TIP3    H210002   1.715   4.438   3.456
 3349TIP3   OH210003   5.259   5.736   1.585
 3349TIP3    H110004   5.229   5.716   1.496
 3349TIP3    H210005   5.278   5.650   1.624
 3350TIP3   OH210006   7.698   4.770   3.504
 3350TIP3    H110007   7.729   4.752   3.593
 3350TIP3    H210008   7.775   4.756   3.448
 3351TIP3   OH210009   4.364   2.415   4.613
 3351TIP3    H110010   4.426   2.366   4.668
 3351TIP3    H210011   4.407   2.499   4.599
 3352TIP3   OH210012   8.194   0.652   5.775
 3352TIP3    H110013   8.215   0.729   5.721
 3352TIP3    H210014   8.246   0.664   5.855
 3353TIP3   OH210015   2.662   0.005   4.346
 3353TIP3    H110016   2.716   0.076   4.312
 3353TIP3    H210017   2.580   0.047   4.372
 3354TIP3   OH210018   6.355   6.665   2.769
 3354TIP3    H110019   6.283   6.726   2.752
 3354TIP3    H210020   6.328   6.617   2.847
 3355TIP3   OH210021   0.456   7.288   2.045
 3355TIP3    H110022   0.478   7.329   2.129
 3355TIP3    H210023   0.363   7.268   2.052
 3356TIP3   OH210024   6.315   2.191   2.308
 3356TIP3    H110025   6.271   2.270   2.275
 3356TIP3    H210026   6.263   2.164   2.384
 3357TIP3   OH210027   7.590   0.653   4.046
 3357TIP3    H110028   7.655   0.662   4.115
 3357TIP3    H210029   7.640   0.627   3.969
 3358TIP3   OH210030   7.082   1.151   0.021
 3358TIP3    H110031   7.045   1.064   0.036
 3358TIP3    H210032   7.020   1.193  -0.039
 3359TIP3   OH210033   7.132   4.685   4.231
 3359TIP3    H110034   7.072   4.654   4.163
 3359TIP3    H210035   7.191   4.612   4.246
 3360TIP3   OH210036   3.881   7.185   4.979
 3360TIP3    H110037   3.917   7.136   5.052
 3360TIP3    H210038   3.903   7.276   4.999
 3361TIP3   OH210039   3.223   0.901   3.320
 3361TIP3    H110040   3.141   0.940   3.351
 3361TIP3    H210041   3.207   0.884   3.227
 3362TIP3   OH210042   1.520   2.737   0.852
 3362TIP3    H110043   1.432   2.742   0.888
 3362TIP3    H210044   1.574   2.785   0.915
 3363TIP3   OH210045   0.200   1.535   0.092
 3363TIP3    H110046   0.117   1.566   0.055
 3363TIP3    H210047   0.243   1.490   0.019
 3364TIP3   OH210048   7.727   1.158   3.790
 3364TIP3    H110049   7.816   1.193   3.779
 3364TIP3    H210050   7.701   1.134   3.701
 3365TIP3   OH210051   1.059   2.069   5.678
 3365TIP3    H110052   1.126   2.067   5.746
 3365TIP3    H210053   1.107   2.087   5.597
 3366TIP3   OH210054   5.046   7.650   2.432
 3366TIP3    H110055   5.079   7.584   2.370
 3366TIP3    H210056   5.113   7.718   2.433
 3367TIP3   OH210057   2.372   3.453   0.305
 3367TIP3    H110058   2.313   3.523   0.333
 3367TIP3    H210059   2.315   3.378   0.289
 3368TIP3   OH210060   3.988   7.484   6.529
 3368TIP3    H110061   3.971   7.412   6.468
 3368TIP3    H210062   4.082   7.478   6.549
 3369TIP3   OH210063   0.384   0.857   5.856
 3369TIP3    H110064   0.322   0.831   5.924
 3369TIP3    H210065   0.333   0.851   5.775
 3370TIP3   OH210066   1.039   7.770   6.125
 3370TIP3    H110067   0.998   7.703   6.071
 3370TIP3    H210068   1.019   7.744   6.215
 3371TIP3   OH210069   5.482   1.393   6.435
 3371TIP3    H110070   5.401   1.445   6.437
 3371TIP3    H210071   5.456   1.309   6.473
 3372TIP3   OH210072   2.254   0.734   0.772
 3372TIP3    H110073   2.304   0.814   0.759
 3372TIP3    H210074   2.317   0.671   0.805
 3373TIP3   OH210075   6.732   5.357   5.869
 3373TIP3    H110076   6.693   5.321   5.948
 3373TIP3    H210077   6.779   5.283   5.830
 3374TIP3   OH210078   2.886   0.283   4.035
 3374TIP3    H110079   2.957   0.219   4.044
 3374TIP3    H210080   2.897   0.318   3.946
 3375TIP3   OH210081   5.339   5.995   3.028
 3375TIP3    H110082   5.314   5.961   3.113
 3375TIP3    H210083   5.435   5.994   3.029
 3376TIP3   OH210084   6.648   0.105   2.849
 3376TIP3    H110085   6.634   0.175   2.913
 3376TIP3    H210086   6.688   0.035   2.900
 3377TIP3   OH210087   7.027   3.083   2.217
 3377TIP3    H110088   7.068   3.008   2.261
 3377TIP3    H210089   6.945   3.047   2.182
 3378TIP3   OH210090   7.188   2.313   3.584
 3378TIP3    H110091   7.229   2.360   3.512
 3378TIP3    H210092   7.169   2.226   3.549
 3379TIP3   OH210093   3.090   0.585   5.820
 3379TIP3    H110094   3.139   0.597   5.738
 3379TIP3    H210095   2.998   0.587   5.793
 3380TIP3   OH210096   1.759   4.907   5.662
 3380TIP3    H110097   1.802   4.968   5.723
 3380TIP3    H210098   1.755   4.955   5.579
 3381TIP3   OH210099   0.992   3.296   4.155
 3381TIP3    H110100   0.977   3.257   4.241
 3381TIP3    H210101   1.037   3.378   4.173
 3382TIP3   OH210102   4.138   5.089   0.653
 3382TIP3    H110103   4.048   5.087   0.622
 3382TIP3    H210104   4.178   5.009   0.619
 3383TIP3   OH210105   5.265  -0.050   0.844
 3383TIP3    H110106   5.299  -0.017   0.927
 3383TIP3    H210107   5.329  -0.022   0.779
 3384TIP3   OH210108   4.667   6.108   4.031
 3384TIP3    H110109   4.593   6.165   4.054
 3384TIP3    H210110   4.635   6.056   3.957
 3385TIP3   OH210111   5.149   5.052   4.632
 3385TIP3    H110112   5.055   5.063   4.646
 3385TIP3    H210113   5.166   4.961   4.656
 3386TIP3   OH210114   1.351   0.336   0.017
 3386TIP3    H110115   1.293   0.268   0.050
 3386TIP3    H210116   1.320   0.353  -0.072
 3387TIP3   OH210117   5.005   1.847   4.631
 3387TIP3    H110118   4.924   1.881   4.670
 3387TIP3    H210119   5.073   1.908   4.660
 3388TIP3   OH210120   3.471   0.370   2.802
 3388TIP3    H110121   3.436   0.448   2.759
 3388TIP3    H210122   3.552   0.351   2.753
 3389TIP3   OH210123   1.488   2.061   4.744
 3389TIP3    H110124   1.561   2.029   4.797
 3389TIP3    H210125   1.445   2.127   4.799
 3390TIP3   OH210126   2.247   3.052   1.551
 3390TIP3    H110127   2.159   3.070   1.516
 3390TIP3    H210128   2.241   3.077   1.643
 3391TIP3   OH210129   3.464   7.384   4.475
 3391TIP3    H110130   3.369   7.387   4.490
 3391TIP3    H210131   3.496   7.469   4.505
 3392TIP3   OH210132   5.164   0.993   3.674
 3392TIP3    H110133   5.123   0.966   3.757
 3392TIP3    H210134   5.191   0.911   3.633
 3393TIP3   OH210135   2.473   6.278   6.530
 3393TIP3    H110136   2.432   6.360   6.557
 3393TIP3    H210137   2.486   6.288   6.435
 3394TIP3   OH210138   7.539   1.706   4.194
 3394TIP3    H110139   7.537   1.637   4.260
 3394TIP3    H210140   7.500   1.666   4.116
 3395TIP3   OH210141   4.061   4.973   3.495
 3395TIP3    H110142   4.012   4.931   3.425
 3395TIP3    H210143   4.123   5.031   3.450
 3396TIP3   OH210144   6.886   4.877   1.337
 3396TIP3    H110145   6.914   4.899   1.248
 3396TIP3    H210146   6.840   4.794   1.328
 3397TIP3   OH210147   6.897   2.148   6.572
 3397TIP3    H110148   6.877   2.206   6.498
 3397TIP3    H210149   6.989   2.126   6.562
 3398TIP3   OH210150   3.090   3.374   5.315
 3398TIP3    H110151   3.038   3.360   5.394
 3398TIP3    H210152   3.039   3.332   5.245
 3399TIP3   OH210153   4.846   6.693   0.833
 3399TIP3    H110154   4.785   6.761   0.804
 3399TIP3    H210155   4.791   6.631   0.881
 3400TIP3   OH210156   3.013   3.155   1.902
 3400TIP3    H110157   3.001   3.161   1.807
 3400TIP3    H210158   2.925   3.170   1.938
 3401TIP3   OH210159   3.817   5.021   1.660
 3401TIP3    H110160   3.908   4.998   1.679
 3401TIP3    H210161   3.769   4.940   1.670
 3402TIP3   OH210162   7.005   4.342   4.632
 3402TIP3    H110163   7.015   4.413   4.695
 3402TIP3    H210164   7.022   4.263   4.682
 3403TIP3   OH210165   6.074   7.314   4.767
 3403TIP3    H110166   6.027   7.319   4.851
 3403TIP3    H210167   6.019   7.257   4.713
 3404TIP3   OH210168   1.103   1.301   4.802
 3404TIP3    H110169   1.082   1.222   4.752
 3404TIP3    H210170   1.140   1.269   4.884
 3405TIP3   OH210171   5.730   5.781   3.853
 3405TIP3    H110172   5.767   5.693   3.863
 3405TIP3    H210173   5.697   5.783   3.764
 3406TIP3   OH210174   2.708   0.679   6.556
 3406TIP3    H110175   2.692   0.588   6.581
 3406TIP3    H210176   2.669   0.687   6.469
 3407TIP3   OH210177   1.182   4.767   5.989
 3407TIP3    H110178   1.135   4.704   5.935
 3407TIP3    H210179   1.274   4.757   5.964
 3408TIP3   OH210180   2.713   4.112   5.869
 3408TIP3    H110181   2.740   4.199   5.896
 3408TIP3    H210182   2.766   4.092   5.792
 3409TIP3   OH210183   2.032   7.803   6.031
 3409TIP3    H110184   2.104   7.744   6.055
 3409TIP3    H210185   1.953   7.751   6.048
 3410TIP3   OH210186   6.328   5.987   1.981
 3410TIP3    H110187   6.357   5.900   1.956
 3410TIP3    H210188   6.317   5.983   2.076
 3411TIP3   OH210189   3.654   5.530   5.357
 3411TIP3    H110190   3.658   5.486   5.272
 3411TIP3    H210191   3.573   5.582   5.353
 3412TIP3   OH210192   7.732   0.668   1.657
 3412TIP3    H110193   7.809   0.611   1.654
 3412TIP3    H210194   7.691   0.658   1.571
 3413TIP3   OH210195   7.088   0.537   3.164
 3413TIP3    H110196   7.009   0.534   3.218
 3413TIP3    H210197   7.088   0.625   3.128
 3414TIP3   OH210198   5.545   6.472   5.647
 3414TIP3    H110199   5.552   6.563   5.620
 3414TIP3    H210200   5.592   6.467   5.730
 3415TIP3   OH210201   1.726   3.695   4.218
 3415TIP3    H110202   1.697   3.604   4.218
 3415TIP3    H210203   1.725   3.720   4.311
 3416TIP3   OH210204   0.977   5.529   2.995
 3416TIP3    H110205   0.996   5.458   2.933
 3416TIP3    H210206   0.999   5.609   2.948
 3417TIP3   OH210207   7.741   5.922   3.228
 3417TIP3    H110208   7.720   5.883   3.143
 3417TIP3    H210209   7.670   5.985   3.243
 3418TIP3   OH210210   2.196   3.238   5.413
 3418TIP3    H110211   2.187   3.186   5.493
 3418TIP3    H210212   2.124   3.300   5.417
 3419TIP3   OH210213   1.381   7.171   6.394
 3419TIP3    H110214   1.425   7.206   6.471
 3419TIP3    H210215   1.290   7.199   6.404
 3420TIP3   OH210216   4.158   2.698   3.170
 3420TIP3    H110217   4.124   2.778   3.129
 3420TIP3    H210218   4.235   2.727   3.219
 3421TIP3   OH210219   0.041   2.016   5.820
 3421TIP3    H110220  -0.051   2.007   5.847
 3421TIP3    H210221   0.037   2.067   5.739
 3422TIP3   OH210222   3.393   1.286   1.300
 3422TIP3    H110223   3.361   1.233   1.372
 3422TIP3    H210224   3.343   1.256   1.223
 3423TIP3   OH210225   1.394   1.187   4.719
 3423TIP3    H110226   1.375   1.281   4.725
 3423TIP3    H210227   1.456   1.170   4.790
 3424TIP3   OH210228   3.561   3.677   5.841
 3424TIP3    H110229   3.549   3.585   5.867
 3424TIP3    H210230   3.475   3.717   5.852
 3425TIP3   OH210231   8.051   4.349   2.662
 3425TIP3    H110232   8.025   4.441   2.671
 3425TIP3    H210233   8.007   4.320   2.582
 3426TIP3   OH210234   4.031   2.205   2.861
 3426TIP3    H110235   3.940   2.193   2.836
 3426TIP3    H210236   4.027   2.257   2.942
 3427TIP3   OH210237   2.050   0.886   3.442
 3427TIP3    H110238   1.996   0.874   3.364
 3427TIP3    H210239   2.127   0.831   3.426
 3428TIP3   OH210240   4.647   5.037   4.840
 3428TIP3    H110241   4.643   4.956   4.891
 3428TIP3    H210242   4.566   5.038   4.790
 3429TIP3   OH210243   4.766   0.453   4.960
 3429TIP3    H110244   4.790   0.365   4.932
 3429TIP3    H210245   4.754   0.501   4.878
 3430TIP3   OH210246   3.170   1.147   1.142
 3430TIP3    H110247   3.185   1.053   1.141
 3430TIP3    H210248   3.187   1.175   1.052
 3431TIP3   OH210249   6.802   5.636   3.388
 3431TIP3    H110250   6.786   5.687   3.309
 3431TIP3    H210251   6.875   5.578   3.365
 3432TIP3   OH210252   7.304   4.618   1.404
 3432TIP3    H110253   7.261   4.702   1.421
 3432TIP3    H210254   7.242   4.570   1.349
 3433TIP3   OH210255   4.449   5.095   4.657
 3433TIP3    H110256   4.392   5.172   4.662
 3433TIP3    H210257   4.399   5.026   4.701
 3434TIP3   OH210258   4.714   5.888   0.785
 3434TIP3    H110259   4.711   5.894   0.880
 3434TIP3    H210260   4.808   5.888   0.764
 3435TIP3   OH210261   2.989   5.566   2.521
 3435TIP3    H110262   3.020   5.586   2.609
 3435TIP3    H210263   3.023   5.478   2.502
 3436TIP3   OH210264   0.625   7.071   1.966
 3436TIP3    H110265   0.579   7.144   2.007
 3436TIP3    H210266   0.557   7.004   1.953
 3437TIP3   OH210267   4.852   5.281   3.846
 3437TIP3    H110268   4.766   5.322   3.855
 3437TIP3    H210269   4.907   5.348   3.806
 3438TIP3   OH210270   1.294   1.925   1.341
 3438TIP3    H110271   1.344   1.868   1.283
 3438TIP3    H210272   1.207   1.929   1.302
 3439TIP3   OH210273   0.117   6.823   0.236
 3439TIP3    H110274   0.110   6.882   0.310
 3439TIP3    H210275   0.088   6.875   0.161
 3440TIP3   OH210276   4.078   7.408   0.392
 3440TIP3    H110277   4.169   7.399   0.421
 3440TIP3    H210278   4.084   7.457   0.310
 3441TIP3   OH210279   1.807   2.363   2.312
 3441TIP3    H110280   1.774   2.448   2.286
 3441TIP3    H210281   1.902   2.374   2.317
 3442TIP3   OH210282   0.057   2.270   0.722
 3442TIP3    H110283   0.068   2.200   0.658
 3442TIP3    H210284   0.098   2.346   0.681
 3443TIP3   OH210285   1.733   6.833   0.853
 3443TIP3    H110286   1.706   6.856   0.764
 3443TIP3    H210287   1.670   6.766   0.880
 3444TIP3   OH210288   0.146   2.592   5.094
 3444TIP3    H110289   0.187   2.510   5.122
 3444TIP3    H210290   0.160   2.653   5.167
 3445TIP3   OH210291   3.155   5.277   3.130
 3445TIP3    H110292   3.135   5.248   3.041
 3445TIP3    H210293   3.082   5.244   3.183
 3446TIP3   OH210294   0.916   7.302   6.318
 3446TIP3    H110295   0.851   7.278   6.385
 3446TIP3    H210296   0.999   7.308   6.365
 3447TIP3   OH210297   3.943   4.173   2.113
 3447TIP3    H110298   4.006   4.207   2.176
 3447TIP3    H210299   3.932   4.081   2.137
 3448TIP3   OH210300   7.573   3.681   5.976
 3448TIP3    H110301   7.570   3.593   5.940
 3448TIP3    H210302   7.487   3.693   6.017
 3449TIP3   OH210303   7.908   5.742   5.209
 3449TIP3    H110304   7.822   5.708   5.184
 3449TIP3    H210305   7.951   5.760   5.125
 3450TIP3   OH210306   3.956   0.313   2.020
 3450TIP3    H110307   3.871   0.353   2.002
 3450TIP3    H210308   4.012   0.346   1.950
 3451TIP3   OH210309   2.145   2.114   4.741
 3451TIP3    H110310   2.186   2.088   4.824
 3451TIP3    H210311   2.056   2.080   4.746
 3452TIP3   OH210312   5.640   6.476   0.127
 3452TIP3    H110313   5.649   6.401   0.069
 3452TIP3    H210314   5.556   6.462   0.172
 3453TIP3   OH210315   7.789   1.048   3.553
 3453TIP3    H110316   7.803   0.979   3.618
 3453TIP3    H210317   7.836   1.017   3.476
 3454TIP3   OH210318   0.979   4.103   3.812
 3454TIP3    H110319   1.067   4.086   3.776
 3454TIP3    H210320   0.984   4.070   3.902
 3455TIP3   OH210321   1.797   2.154   3.210
 3455TIP3    H110322   1.704   2.135   3.208
 3455TIP3    H210323   1.806   2.236   3.161
 3456TIP3   OH210324   2.114   6.899   2.385
 3456TIP3    H110325   2.105   6.837   2.458
 3456TIP3    H210326   2.027   6.936   2.374
 3457TIP3   OH210327   2.946   6.303   5.925
 3457TIP3    H110328   2.982   6.328   5.840
 3457TIP3    H210329   3.016   6.323   5.988
 3458TIP3   OH210330   0.853   4.066   0.020
 3458TIP3    H110331   0.916   4.137   0.005
 3458TIP3    H210332   0.881   3.996  -0.039
 3459TIP3   OH210333   5.365   7.399   2.031
 3459TIP3    H110334   5.327   7.316   2.058
 3459TIP3    H210335   5.299   7.464   2.053
 3460TIP3   OH210336   7.747   5.576   5.692
 3460TIP3    H110337   7.702   5.595   5.774
 3460TIP3    H210338   7.751   5.660   5.646
 3461TIP3   OH210339   7.565   6.810   1.672
 3461TIP3    H110340   7.489   6.849   1.715
 3461TIP3    H210341   7.543   6.810   1.579
 3462TIP3   OH210342   7.827   7.194   3.240
 3462TIP3    H110343   7.839   7.284   3.272
 3462TIP3    H210344   7.884   7.142   3.297
 3463TIP3   OH210345   4.163   5.139   1.839
 3463TIP3    H110346   4.078   5.142   1.883
 3463TIP3    H210347   4.150   5.189   1.759
 3464TIP3   OH210348   2.236   2.065   1.667
 3464TIP3    H110349   2.205   2.011   1.740
 3464TIP3    H210350   2.296   2.008   1.619
 3465TIP3   OH210351   1.836   7.698   1.208
 3465TIP3    H110352   1.792   7.626   1.162
 3465TIP3    H210353   1.867   7.659   1.289
 3466TIP3   OH210354   2.340   4.402   5.542
 3466TIP3    H110355   2.341   4.404   5.446
 3466TIP3    H210356   2.301   4.317   5.563
 3467TIP3   OH210357   7.957   2.525   4.891
 3467TIP3    H110358   7.998   2.559   4.812
 3467TIP3    H210359   8.026   2.530   4.958
 3468TIP3   OH210360   5.471   5.796   4.610
 3468TIP3    H110361   5.433   5.734   4.673
 3468TIP3    H210362   5.501   5.869   4.664
 3469TIP3   OH210363   1.574   7.599   1.933
 3469TIP3    H110364   1.523   7.570   1.857
 3469TIP3    H210365   1.568   7.527   1.995
 3470TIP3   OH210366   2.428   2.859   5.709
 3470TIP3    H110367   2.347   2.851   5.659
 3470TIP3    H210368   2.491   2.894   5.646
 3471TIP3   OH210369   7.891   3.711   6.280
 3471TIP3    H110370   7.967   3.748   6.325
 3471TIP3    H210371   7.927   3.641   6.226
 3472TIP3   OH210372   1.876   2.013   4.595
 3472TIP3    H110373   1.905   2.077   4.530
 3472TIP3    H210374   1.865   2.064   4.675
 3473TIP3   OH210375   6.302   2.232   3.188
 3473TIP3    H110376   6.368   2.167   3.212
 3473TIP3    H210377   6.220   2.194   3.220
 3474TIP3   OH210378   5.067   4.104   5.818
 3474TIP3    H110379   4.975   4.111   5.844
 3474TIP3    H210380   5.065   4.052   5.737
 3475TIP3   OH210381   4.141   4.739   1.075
 3475TIP3    H110382   4.229   4.755   1.108
 3475TIP3    H210383   4.113   4.823   1.038
 3476TIP3   OH210384   0.577   6.518   6.403
 3476TIP3    H110385   0.561   6.534   6.496
 3476TIP3    H210386   0.525   6.584   6.358
 3477TIP3   OH210387   8.004   7.359   2.998
 3477TIP3    H110388   8.053   7.323   2.924
 3477TIP3    H210389   8.027   7.302   3.072
 3478TIP3   OH210390   7.651   1.969   5.664
 3478TIP3    H110391   7.670   1.926   5.580
 3478TIP3    H210392   7.575   1.923   5.698
 3479TIP3   OH210393   7.514   1.131   4.239
 3479TIP3    H110394   7.551   1.177   4.164
 3479TIP3    H210395   7.456   1.065   4.200
 3480TIP3   OH210396   1.936   2.289   5.655
 3480TIP3    H110397   1.907   2.373   5.620
 3480TIP3    H210398   1.903   2.224   5.593
 3481TIP3   OH210399   5.724   7.488   4.774
 3481TIP3    H110400   5.771   7.429   4.833
 3481TIP3    H210401   5.778   7.568   4.773
 3482TIP3   OH210402   6.443   1.171   3.200
 3482TIP3    H110403   6.468   1.084   3.232
 3482TIP3    H210404   6.441   1.161   3.104
 3483TIP3   OH210405   3.350   3.430   0.079
 3483TIP3    H110406   3.340   3.346   0.036
 3483TIP3    H210407   3.408   3.413   0.154
 3484TIP3   OH210408   2.301   4.316   3.939
 3484TIP3    H110409   2.245   4.246   3.974
 3484TIP3    H210410   2.328   4.284   3.853
 3485TIP3   OH210411   4.872   3.652   2.386
 3485TIP3    H110412   4.792   3.602   2.407
 3485TIP3    H210413   4.888   3.634   2.294
 3486TIP3   OH210414   3.649   2.900   2.717
 3486TIP3    H110415   3.598   2.889   2.636
 3486TIP3    H210416   3.586   2.931   2.781
 3487TIP3   OH210417   4.721   7.642   6.182
 3487TIP3    H110418   4.649   7.620   6.124
 3487TIP3    H210419   4.794   7.663   6.124
 3488TIP3   OH210420   7.665   0.224   4.615
 3488TIP3    H110421   7.666   0.129   4.611
 3488TIP3    H210422   7.757   0.249   4.622
 3489TIP3   OH210423   3.622  -0.003   0.690
 3489TIP3    H110424   3.539   0.034   0.721
 3489TIP3    H210425   3.615  -0.096   0.712
 3490TIP3   OH210426   3.602   1.049   2.338
 3490TIP3    H110427   3.560   0.984   2.395
 3490TIP3    H210428   3.606   1.128   2.392
 3491TIP3   OH210429   2.686   1.341   2.650
 3491TIP3    H110430   2.688   1.337   2.746
 3491TIP3    H210431   2.723   1.427   2.629
 3492TIP3   OH210432   4.393   2.439   1.400
 3492TIP3    H110433   4.380   2.534   1.403
 3492TIP3    H210434   4.403   2.414   1.492
 3493TIP3   OH210435   6.359   4.800   2.343
 3493TIP3    H110436   6.418   4.736   2.304
 3493TIP3    H210437   6.413   4.878   2.358
 3494TIP3   OH210438   0.219   7.216   4.236
 3494TIP3    H110439   0.231   7.262   4.320
 3494TIP3    H210440   0.297   7.160   4.229
 3495TIP3   OH210441   8.240   2.927   4.935
 3495TIP3    H110442   8.190   2.957   4.859
 3495TIP3    H210443   8.283   2.846   4.905
 3496TIP3   OH210444   7.950   2.347   5.798
 3496TIP3    H110445   8.042   2.352   5.772
 3496TIP3    H210446   7.904   2.402   5.735
 3497TIP3   OH210447   6.308   6.057   4.646
 3497TIP3    H110448   6.355   5.983   4.684
 3497TIP3    H210449   6.319   6.045   4.551
 3498TIP3   OH210450   3.851   0.502   5.808
 3498TIP3    H110451   3.868   0.541   5.893
 3498TIP3    H210452   3.886   0.413   5.814
 3499TIP3   OH210453   8.043   4.079   1.281
 3499TIP3    H110454   7.995   3.997   1.269
 3499TIP3    H210455   7.975   4.146   1.293
 3500TIP3   OH210456   2.135   5.344   3.734
 3500TIP3    H110457   2.115   5.252   3.751
 3500TIP3    H210458   2.113   5.357   3.641
 3501TIP3   OH210459   4.158   6.321   3.134
 3501TIP3    H110460   4.202   6.249   3.179
 3501TIP3    H210461   4.111   6.279   3.062
 3502TIP3   OH210462   8.265   5.464   1.590
 3502TIP3    H110463   8.248   5.386   1.643
 3502TIP3    H210464   8.272   5.535   1.654
 3503TIP3   OH210465   7.830   3.359   2.582
 3503TIP3    H110466   7.855   3.267   2.577
 3503TIP3    H210467   7.750   3.366   2.530
 3504TIP3   OH210468   0.952   6.686   5.848
 3504TIP3    H110469   1.035   6.705   5.892
 3504TIP3    H210470   0.896   6.761   5.870
 3505TIP3   OH210471   0.791   0.051   2.879
 3505TIP3    H110472   0.862   0.064   2.942
 3505TIP3    H210473   0.777   0.138   2.841
 3506TIP3   OH210474   2.819   4.948   0.719
 3506TIP3    H110475   2.858   4.898   0.790
 3506TIP3    H210476   2.741   4.987   0.758
 3507TIP3   OH210477   5.989   0.002   3.248
 3507TIP3    H110478   5.974   0.095   3.235
 3507TIP3    H210479   5.967  -0.038   3.164
 3508TIP3   OH210480   4.972   2.872   5.556
 3508TIP3    H110481   5.015   2.858   5.471
 3508TIP3    H210482   4.984   2.789   5.603
 3509TIP3   OH210483   3.842   2.735   6.656
 3509TIP3    H110484   3.783   2.669   6.694
 3509TIP3    H210485   3.882   2.778   6.731
 3510TIP3   OH210486   4.973   5.957   4.702
 3510TIP3    H110487   4.988   6.037   4.652
 3510TIP3    H210488   4.904   5.981   4.764
 3511TIP3   OH210489   1.761   1.450   0.608
 3511TIP3    H110490   1.814   1.440   0.687
 3511TIP3    H210491   1.674   1.471   0.641
 3512TIP3   OH210492   7.573   4.590   6.490
 3512TIP3    H110493   7.501   4.563   6.547
 3512TIP3    H210494   7.637   4.630   6.550
 3513TIP3   OH210495   4.970   3.830   6.730
 3513TIP3    H110496   4.998   3.740   6.715
 3513TIP3    H210497   4.945   3.863   6.643
 3514TIP3   OH210498   4.639   2.258   3.918
 3514TIP3    H110499   4.714   2.199   3.911
 3514TIP3    H210500   4.580   2.213   3.979
 3515TIP3   OH210501   0.687   7.055   0.230
 3515TIP3    H110502   0.694   7.110   0.152
 3515TIP3    H210503   0.658   7.115   0.299
 3516TIP3   OH210504   0.838   5.369   4.141
 3516TIP3    H110505   0.884   5.286   4.129
 3516TIP3    H210506   0.759   5.347   4.190
 3517TIP3   OH210507   8.228   1.318   3.736
 3517TIP3    H110508   8.210   1.281   3.650
 3517TIP3    H210509   8.262   1.244   3.787
 3518TIP3   OH210510   8.275   7.397   0.198
 3518TIP3    H110511   8.260   7.336   0.126
 3518TIP3    H210512   8.244   7.481   0.164
 3519TIP3   OH210513   4.450   3.336   4.960
 3519TIP3    H110514   4.429   3.379   4.877
 3519TIP3    H210515   4.458   3.243   4.937
 3520TIP3   OH210516   7.008   6.529   5.275
 3520TIP3    H110517   7.016   6.452   5.219
 3520TIP3    H210518   6.994   6.602   5.214
 3521TIP3   OH210519   3.402   7.075   3.110
 3521TIP3    H110520   3.416   7.078   3.015
 3521TIP3    H210521   3.487   7.051   3.145
 3522TIP3   OH210522   0.342   4.578   1.931
 3522TIP3    H110523   0.401   4.606   1.861
 3522TIP3    H210524   0.396   4.580   2.010
 3523TIP3   OH210525   3.535   7.616   1.221
 3523TIP3    H110526   3.537   7.686   1.286
 3523TIP3    H210527   3.598   7.644   1.154
 3524TIP3   OH210528   2.641   0.436   6.178
 3524TIP3    H110529   2.550   0.440   6.149
 3524TIP3    H210530   2.666   0.527   6.192
 3525TIP3   OH210531   2.943   6.078   6.206
 3525TIP3    H110532   2.882   6.148   6.227
 3525TIP3    H210533   2.951   6.028   6.288
 3526TIP3   OH210534   7.913   5.197   4.429
 3526TIP3    H110535   7.844   5.153   4.380
 3526TIP3    H210536   7.870   5.227   4.509
 3527TIP3   OH210537   5.338   7.635   0.675
 3527TIP3    H110538   5.337   7.607   0.584
 3527TIP3    H210539   5.305   7.560   0.724
 3528TIP3   OH210540   1.649   4.768   0.906
 3528TIP3    H110541   1.586   4.755   0.977
 3528TIP3    H210542   1.734   4.773   0.950
 3529TIP3   OH210543   5.590   5.719   3.124
 3529TIP3    H110544   5.507   5.679   3.152
 3529TIP3    H210545   5.566   5.809   3.102
 3530TIP3   OH210546   2.248   2.746   1.615
 3530TIP3    H110547   2.229   2.840   1.620
 3530TIP3    H210548   2.317   2.733   1.679
 3531TIP3   OH210549   1.515   5.483   0.773
 3531TIP3    H110550   1.580   5.532   0.722
 3531TIP3    H210551   1.478   5.421   0.711
 3532TIP3   OH210552   0.165   0.212   2.312
 3532TIP3    H110553   0.080   0.238   2.276
 3532TIP3    H210554   0.155   0.119   2.331
 3533TIP3   OH210555   5.184   4.617   0.979
 3533TIP3    H110556   5.094   4.618   1.010
 3533TIP3    H210557   5.178   4.636   0.885
 3534TIP3   OH210558   2.613   2.230   5.897
 3534TIP3    H110559   2.616   2.170   5.823
 3534TIP3    H210560   2.558   2.186   5.962
 3535TIP3   OH210561   5.971   0.949   0.499
 3535TIP3    H110562   5.976   0.954   0.403
 3535TIP3    H210563   5.880   0.968   0.519
 3536TIP3   OH210564   4.070   4.326   4.510
 3536TIP3    H110565   4.158   4.353   4.535
 3536TIP3    H210566   4.065   4.348   4.416
 3537TIP3   OH210567   5.941   1.863   0.328
 3537TIP3    H110568   6.028   1.838   0.360
 3537TIP3    H210569   5.958   1.920   0.253
 3538TIP3   OH210570   3.422   6.329   3.261
 3538TIP3    H110571   3.356   6.260   3.255
 3538TIP3    H210572   3.471   6.309   3.340
 3539TIP3   OH210573   3.332   2.581   0.816
 3539TIP3    H110574   3.367   2.515   0.757
 3539TIP3    H210575   3.237   2.577   0.802
 3540TIP3   OH210576   5.487   2.349   3.744
 3540TIP3    H110577   5.411   2.361   3.801
 3540TIP3    H210578   5.489   2.256   3.725
 3541TIP3   OH210579   3.417   5.230   1.133
 3541TIP3    H110580   3.380   5.284   1.203
 3541TIP3    H210581   3.506   5.209   1.163
 3542TIP3   OH210582   7.954   5.345   1.648
 3542TIP3    H110583   7.864   5.377   1.643
 3542TIP3    H210584   7.974   5.318   1.559
 3543TIP3   OH210585   7.167   2.914   6.488
 3543TIP3    H110586   7.258   2.911   6.459
 3543TIP3    H210587   7.129   2.831   6.460
 3544TIP3   OH210588   1.808   6.204   1.874
 3544TIP3    H110589   1.798   6.110   1.855
 3544TIP3    H210590   1.722   6.231   1.905
 3545TIP3   OH210591   0.124   2.835   2.248
 3545TIP3    H110592   0.055   2.850   2.184
 3545TIP3    H210593   0.132   2.740   2.251
 3546TIP3   OH210594   6.423   2.607   3.228
 3546TIP3    H110595   6.446   2.698   3.211
 3546TIP3    H210596   6.410   2.604   3.323
 3547TIP3   OH210597   8.133   5.918   1.599
 3547TIP3    H110598   8.150   5.966   1.517
 3547TIP3    H210599   8.039   5.928   1.613
 3548TIP3   OH210600   4.598   4.174   3.738
 3548TIP3    H110601   4.533   4.174   3.668
 3548TIP3    H210602   4.628   4.265   3.743
 3549TIP3   OH210603   7.593   1.194   0.947
 3549TIP3    H110604   7.596   1.252   0.871
 3549TIP3    H210605   7.584   1.253   1.022
 3550TIP3   OH210606   5.148   6.580   3.056
 3550TIP3    H110607   5.082   6.646   3.034
 3550TIP3    H210608   5.120   6.502   3.007
 3551TIP3   OH210609   3.886   7.281   4.210
 3551TIP3    H110610   3.838   7.305   4.290
 3551TIP3    H210611   3.819   7.246   4.151
 3552TIP3   OH210612   0.203   0.335   0.224
 3552TIP3    H110613   0.283   0.290   0.199
 3552TIP3    H210614   0.232   0.422   0.253
 3553TIP3   OH210615   2.458   3.520   2.606
 3553TIP3    H110616   2.485   3.611   2.614
 3553TIP3    H210617   2.392   3.521   2.537
 3554TIP3   OH210618   3.890   3.189   5.564
 3554TIP3    H110619   3.921   3.110   5.610
 3554TIP3    H210620   3.809   3.162   5.522
 3555TIP3   OH210621   0.785   3.986   2.449
 3555TIP3    H110622   0.774   4.051   2.518
 3555TIP3    H210623   0.697   3.970   2.416
 3556TIP3   OH210624   5.033   6.382   2.842
 3556TIP3    H110625   5.085   6.361   2.765
 3556TIP3    H210626   4.952   6.419   2.807
 3557TIP3   OH210627   0.953   3.343   0.063
 3557TIP3    H110628   0.924   3.262   0.022
 3557TIP3    H210629   0.872   3.387   0.089
 3558TIP3   OH210630   3.889   4.520   0.049
 3558TIP3    H110631   3.937   4.542  -0.031
 3558TIP3    H210632   3.869   4.604   0.089
 3559TIP3   OH210633   7.989   5.859   4.610
 3559TIP3    H110634   8.039   5.779   4.625
 3559TIP3    H210635   7.970   5.892   4.697
 3560TIP3   OH210636   2.614   2.772   0.265
 3560TIP3    H110637   2.569   2.783   0.349
 3560TIP3    H210638   2.550   2.799   0.200
 3561TIP3   OH210639   4.397   0.932   0.486
 3561TIP3    H110640   4.345   0.917   0.565
 3561TIP3    H210641   4.411   1.027   0.483
 3562TIP3   OH210642   7.453   3.020   2.780
 3562TIP3    H110643   7.544   3.020   2.752
 3562TIP3    H210644   7.457   3.003   2.874
 3563TIP3   OH210645   3.051   0.179   1.944
 3563TIP3    H110646   3.072   0.116   1.876
 3563TIP3    H210647   3.110   0.158   2.016
 3564TIP3   OH210648   5.929   7.694   0.137
 3564TIP3    H110649   5.863   7.648   0.189
 3564TIP3    H210650   5.976   7.625   0.091
 3565TIP3   OH210651   2.852   2.296   2.868
 3565TIP3    H110652   2.925   2.357   2.872
 3565TIP3    H210653   2.870   2.231   2.936
 3566TIP3   OH210654   3.682   7.668   6.722
 3566TIP3    H110655   3.772   7.688   6.694
 3566TIP3    H210656   3.688   7.657   6.817
 3567TIP3   OH210657   4.554   0.185   6.688
 3567TIP3    H110658   4.591   0.105   6.649
 3567TIP3    H210659   4.630   0.240   6.705
 3568TIP3   OH210660   3.340   1.519   6.611
 3568TIP3    H110661   3.311   1.459   6.542
 3568TIP3    H210662   3.307   1.604   6.584
 3569TIP3   OH210663   2.830   5.293   2.559
 3569TIP3    H110664   2.788   5.213   2.593
 3569TIP3    H210665   2.915   5.263   2.526
 3570TIP3   OH210666   3.865   2.787   2.583
 3570TIP3    H110667   3.786   2.833   2.611
 3570TIP3    H210668   3.860   2.787   2.487
 3571TIP3   OH210669   1.147   2.643   0.307
 3571TIP3    H110670   1.216   2.709   0.310
 3571TIP3    H210671   1.169   2.582   0.377
 3572TIP3   OH210672   0.134   1.412   0.791
 3572TIP3    H110673   0.122   1.498   0.752
 3572TIP3    H210674   0.118   1.426   0.885
 3573TIP3   OH210675   2.344   4.939   2.570
 3573TIP3    H110676   2.387   5.014   2.529
 3573TIP3    H210677   2.277   4.978   2.626
 3574TIP3   OH210678   7.599   1.019   0.676
 3574TIP3    H110679   7.660   1.090   0.654
 3574TIP3    H210680   7.573   0.983   0.591
 3575TIP3   OH210681   4.745   5.534   3.190
 3575TIP3    H110682   4.672   5.532   3.129
 3575TIP3    H210683   4.813   5.583   3.144
 3576TIP3   OH210684   4.633   2.290   4.371
 3576TIP3    H110685   4.659   2.362   4.429
 3576TIP3    H210686   4.545   2.313   4.341
 3577TIP3   OH210687   3.256   3.262   2.107
 3577TIP3    H110688   3.344   3.235   2.081
 3577TIP3    H210689   3.198   3.198   2.067
 3578TIP3   OH210690   2.373   3.441   3.011
 3578TIP3    H110691   2.338   3.420   2.924
 3578TIP3    H210692   2.464   3.412   3.009
 3579TIP3   OH210693   4.258   4.210   2.588
 3579TIP3    H110694   4.334   4.262   2.616
 3579TIP3    H210695   4.186   4.243   2.642
 3580TIP3   OH210696   3.119   0.426   1.832
 3580TIP3    H110697   3.158   0.481   1.899
 3580TIP3    H210698   3.107   0.341   1.874
 3581TIP3   OH210699   3.230   0.976   0.134
 3581TIP3    H110700   3.281   0.917   0.079
 3581TIP3    H210701   3.157   1.004   0.078
 3582TIP3   OH210702   5.162   2.272   6.498
 3582TIP3    H110703   5.098   2.211   6.534
 3582TIP3    H210704   5.182   2.237   6.411
 3583TIP3   OH210705   6.614   5.760   1.260
 3583TIP3    H110706   6.665   5.799   1.189
 3583TIP3    H210707   6.608   5.667   1.238
 3584TIP3   OH210708   2.316   0.064   4.865
 3584TIP3    H110709   2.341   0.062   4.958
 3584TIP3    H210710   2.284  -0.025   4.848
 3585TIP3   OH210711   0.391   7.308   3.389
 3585TIP3    H110712   0.315   7.342   3.435
 3585TIP3    H210713   0.411   7.225   3.432
 3586TIP3   OH210714   1.020   2.948   6.120
 3586TIP3    H110715   0.958   2.887   6.159
 3586TIP3    H210716   1.003   2.943   6.026
 3587TIP3   OH210717   4.816   4.509   3.071
 3587TIP3    H110718   4.885   4.572   3.050
 3587TIP3    H210719   4.766   4.550   3.142
 3588TIP3   OH210720   7.478   1.570   3.568
 3588TIP3    H110721   7.528   1.640   3.525
 3588TIP3    H210722   7.492   1.494   3.511
 3589TIP3   OH210723   0.544   2.916   2.702
 3589TIP3    H110724   0.616   2.873   2.748
 3589TIP3    H210725   0.558   3.009   2.717
 3590TIP3   OH210726   6.851   2.141   2.410
 3590TIP3    H110727   6.855   2.094   2.494
 3590TIP3    H210728   6.860   2.233   2.434
 3591TIP3   OH210729   6.239   6.703   5.882
 3591TIP3    H110730   6.292   6.700   5.961
 3591TIP3    H210731   6.290   6.653   5.817
 3592TIP3   OH210732   2.424   0.919   6.126
 3592TIP3    H110733   2.364   0.968   6.183
 3592TIP3    H210734   2.367   0.865   6.072
 3593TIP3   OH210735   1.057   5.615   5.111
 3593TIP3    H110736   0.985   5.668   5.076
 3593TIP3    H210737   1.025   5.584   5.195
 3594TIP3   OH210738   4.955   7.085   1.908
 3594TIP3    H110739   4.874   7.136   1.906
 3594TIP3    H210740   4.931   7.004   1.955
 3595TIP3   OH210741   4.457   6.500   5.760
 3595TIP3    H110742   4.381   6.455   5.795
 3595TIP3    H210743   4.494   6.439   5.696
 3596TIP3   OH210744   6.741   4.263   4.644
 3596TIP3    H110745   6.678   4.307   4.588
 3596TIP3    H210746   6.826   4.295   4.614
 3597TIP3   OH210747   7.612   2.219   3.801
 3597TIP3    H110748   7.679   2.183   3.743
 3597TIP3    H210749   7.632   2.183   3.887
 3598TIP3   OH210750   4.810   1.263   1.348
 3598TIP3    H110751   4.791   1.356   1.333
 3598TIP3    H210752   4.728   1.218   1.326
 3599TIP3   OH210753   5.403   1.021   4.645
 3599TIP3    H110754   5.429   0.936   4.680
 3599TIP3    H210755   5.369   1.002   4.557
 3600TIP3   OH210756   5.573   2.991   2.352
 3600TIP3    H110757   5.490   2.998   2.303
 3600TIP3    H210758   5.636   2.957   2.288
 3601TIP3   OH210759   6.059   0.645   0.846
 3601TIP3    H110760   6.106   0.695   0.780
 3601TIP3    H210761   6.098   0.670   0.929
 3602TIP3   OH210762   2.729   1.920   4.339
 3602TIP3    H110763   2.771   1.881   4.261
 3602TIP3    H210764   2.642   1.880   4.341
 3603TIP3   OH210765   0.921   0.333   4.344
 3603TIP3    H110766   0.998   0.389   4.341
 3603TIP3    H210767   0.874   0.352   4.263
 3604TIP3   OH210768   3.252   6.201   6.333
 3604TIP3    H110769   3.237   6.285   6.291
 3604TIP3    H210770   3.281   6.143   6.263
 3605TIP3   OH210771   0.561   0.529   6.278
 3605TIP3    H110772   0.516   0.450   6.307
 3605TIP3    H210773   0.622   0.498   6.211
 3606TIP3   OH210774   0.943   1.672   1.163
 3606TIP3    H110775   0.909   1.632   1.083
 3606TIP3    H210776   0.864   1.692   1.215
 3607TIP3   OH210777   7.343   5.506   5.197
 3607TIP3    H110778   7.361   5.449   5.272
 3607TIP3    H210779   7.421   5.497   5.142
 3608TIP3   OH210780   0.868   6.765   3.778
 3608TIP3    H110781   0.788   6.743   3.730
 3608TIP3    H210782   0.934   6.778   3.710
 3609TIP3   OH210783   7.986   0.843   3.422
 3609TIP3    H110784   8.016   0.809   3.337
 3609TIP3    H210785   8.030   0.787   3.486
 3610TIP3   OH210786   2.559   4.156   0.242
 3610TIP3    H110787   2.557   4.229   0.304
 3610TIP3    H210788   2.570   4.197   0.157
 3611TIP3   OH210789   2.743   0.559   4.191
 3611TIP3    H110790   2.778   0.599   4.112
 3611TIP3    H210791   2.820   0.528   4.239
 3612TIP3   OH210792   6.456   0.598   1.599
 3612TIP3    H110793   6.539   0.604   1.551
 3612TIP3    H210794   6.471   0.529   1.664
 3613TIP3   OH210795   6.656   1.436   6.207
 3613TIP3    H110796   6.598   1.431   6.130
 3613TIP3    H210797   6.714   1.361   6.198
 3614TIP3   OH210798   6.509   7.035   3.744
 3614TIP3    H110799   6.428   7.041   3.794
 3614TIP3    H210800   6.558   7.113   3.768
 3615TIP3   OH210801   6.981   7.503   5.298
 3615TIP3    H110802   6.973   7.598   5.289
 3615TIP3    H210803   6.907   7.469   5.248
 3616TIP3   OH210804   1.117   4.429   1.228
 3616TIP3    H110805   1.063   4.464   1.157
 3616TIP3    H210806   1.183   4.375   1.183
 3617TIP3   OH210807   4.055   1.461   2.860
 3617TIP3    H110808   4.015   1.374   2.857
 3617TIP3    H210809   4.044   1.489   2.950
 3618TIP3   OH210810   1.682   3.980   4.137
 3618TIP3    H110811   1.686   3.885   4.146
 3618TIP3    H210812   1.650   4.011   4.222
 3619TIP3   OH210813   5.632   3.225   4.113
 3619TIP3    H110814   5.651   3.189   4.199
 3619TIP3    H210815   5.539   3.209   4.099
 3620TIP3   OH210816   1.004   2.695   2.967
 3620TIP3    H110817   1.038   2.632   3.030
 3620TIP3    H210818   0.913   2.709   2.994
 3621TIP3   OH210819   5.972   1.532   0.164
 3621TIP3    H110820   5.909   1.529   0.237
 3621TIP3    H210821   6.043   1.588   0.196
 3622TIP3   OH210822   2.947   6.668   6.152
 3622TIP3    H110823   3.018   6.605   6.161
 3622TIP3    H210824   2.880   6.638   6.213
 3623TIP3   OH210825   6.848   2.220   1.412
 3623TIP3    H110826   6.784   2.270   1.462
 3623TIP3    H210827   6.815   2.131   1.412
 3624TIP3   OH210828   3.869   6.168   3.040
 3624TIP3    H110829   3.842   6.218   3.118
 3624TIP3    H210830   3.805   6.098   3.033
 3625TIP3   OH210831   1.822   3.943   5.969
 3625TIP3    H110832   1.812   3.890   6.047
 3625TIP3    H210833   1.917   3.949   5.956
 3626TIP3   OH210834   0.609   0.568   2.535
 3626TIP3    H110835   0.519   0.576   2.565
 3626TIP3    H210836   0.653   0.647   2.569
 3627TIP3   OH210837   6.893   0.228   5.987
 3627TIP3    H110838   6.917   0.287   5.915
 3627TIP3    H210839   6.820   0.176   5.952
 3628TIP3   OH210840   1.359   1.811   4.670
 3628TIP3    H110841   1.341   1.767   4.753
 3628TIP3    H210842   1.421   1.880   4.692
 3629TIP3   OH210843   6.304   4.328   1.517
 3629TIP3    H110844   6.368   4.260   1.498
 3629TIP3    H210845   6.225   4.280   1.541
 3630TIP3   OH210846   2.230   7.336   2.081
 3630TIP3    H110847   2.284   7.352   2.158
 3630TIP3    H210848   2.141   7.359   2.109
 3631TIP3   OH210849   0.965   1.761   2.637
 3631TIP3    H110850   0.892   1.817   2.664
 3631TIP3    H210851   0.923   1.688   2.591
 3632TIP3   OH210852   1.457   1.938   6.605
 3632TIP3    H110853   1.403   1.864   6.634
 3632TIP3    H210854   1.547   1.911   6.624
 3633TIP3   OH210855   2.900   3.104   3.505
 3633TIP3    H110856   2.994   3.095   3.515
 3633TIP3    H210857   2.880   3.057   3.424
 3634TIP3   OH210858   1.236   0.889   5.938
 3634TIP3    H110859   1.181   0.911   5.863
 3634TIP3    H210860   1.175   0.883   6.011
 3635TIP3   OH210861   0.659   1.477   6.040
 3635TIP3    H110862   0.710   1.501   5.962
 3635TIP3    H210863   0.571   1.462   6.007
 3636TIP3   OH210864   7.271   6.929   4.068
 3636TIP3    H110865   7.274   6.870   3.992
 3636TIP3    H210866   7.274   6.870   4.144
 3637TIP3   OH210867   5.817   7.742   3.714
 3637TIP3    H110868   5.768   7.783   3.785
 3637TIP3    H210869   5.901   7.788   3.713
 3638TIP3   OH210870   2.057   4.306   3.426
 3638TIP3    H110871   1.964   4.328   3.416
 3638TIP3    H210872   2.091   4.305   3.337
 3639TIP3   OH210873   1.446   2.329   2.908
 3639TIP3    H110874   1.413   2.403   2.959
 3639TIP3    H210875   1.521   2.297   2.957
 3640TIP3   OH210876   5.991   7.396   3.264
 3640TIP3    H110877   6.046   7.466   3.231
 3640TIP3    H210878   5.982   7.335   3.191
 3641TIP3   OH210879   0.102   7.634   5.402
 3641TIP3    H110880   0.084   7.680   5.321
 3641TIP3    H210881   0.186   7.591   5.387
 3642TIP3   OH210882   7.217   2.309   5.644
 3642TIP3    H110883   7.197   2.307   5.550
 3642TIP3    H210884   7.255   2.222   5.661
 3643TIP3   OH210885   6.530   4.624   2.256
 3643TIP3    H110886   6.618   4.644   2.223
 3643TIP3    H210887   6.485   4.585   2.181
 3644TIP3   OH210888   2.341   0.396   0.524
 3644TIP3    H110889   2.425   0.410   0.567
 3644TIP3    H210890   2.318   0.482   0.488
 3645TIP3   OH210891   4.433   5.172   5.686
 3645TIP3    H110892   4.402   5.253   5.726
 3645TIP3    H210893   4.419   5.105   5.752
 3646TIP3   OH210894   2.263   6.574   5.447
 3646TIP3    H110895   2.250   6.621   5.530
 3646TIP3    H210896   2.285   6.485   5.474
 3647TIP3   OH210897   0.071   7.667   2.956
 3647TIP3    H110898   0.034   7.726   3.022
 3647TIP3    H210899  -0.004   7.637   2.906
 3648TIP3   OH210900   5.706   6.498   2.507
 3648TIP3    H110901   5.740   6.516   2.419
 3648TIP3    H210902   5.698   6.403   2.511
 3649TIP3   OH210903   5.366   3.712   3.763
 3649TIP3    H110904   5.428   3.673   3.701
 3649TIP3    H210905   5.280   3.693   3.726
 3650TIP3   OH210906   1.367   4.275   5.481
 3650TIP3    H110907   1.455   4.304   5.457
 3650TIP3    H210908   1.366   4.181   5.461
 3651TIP3   OH210909   4.911   2.911   0.109
 3651TIP3    H110910   4.909   2.845   0.179
 3651TIP3    H210911   4.994   2.957   0.122
 3652TIP3   OH210912   0.567   2.995   4.542
 3652TIP3    H110913   0.479   3.030   4.530
 3652TIP3    H210914   0.556   2.900   4.536
 3653TIP3   OH210915   2.293   7.596   6.371
 3653TIP3    H110916   2.218   7.538   6.380
 3653TIP3    H210917   2.256   7.684   6.384
 3654TIP3   OH210918   5.039   5.307   5.919
 3654TIP3    H110919   4.954   5.305   5.963
 3654TIP3    H210920   5.050   5.399   5.894
 3655TIP3   OH210921   0.861   6.062   2.383
 3655TIP3    H110922   0.880   6.085   2.292
 3655TIP3    H210923   0.787   6.001   2.377
 3656TIP3   OH210924   4.212   5.552   6.520
 3656TIP3    H110925   4.290   5.566   6.466
 3656TIP3    H210926   4.238   5.582   6.607
 3657TIP3   OH210927   7.110   0.002   4.044
 3657TIP3    H110928   7.189  -0.036   4.083
 3657TIP3    H210929   7.106  -0.036   3.956
 3658TIP3   OH210930   6.349   3.281   1.452
 3658TIP3    H110931   6.325   3.285   1.360
 3658TIP3    H210932   6.419   3.347   1.461
 3659TIP3   OH210933   4.228   1.753   4.428
 3659TIP3    H110934   4.206   1.773   4.519
 3659TIP3    H210935   4.241   1.658   4.426
 3660TIP3   OH210936   3.090   4.078   0.262
 3660TIP3    H110937   3.047   4.036   0.337
 3660TIP3    H210938   3.088   4.012   0.193
 3661TIP3   OH210939   1.998   7.265   4.588
 3661TIP3    H110940   2.046   7.201   4.535
 3661TIP3    H210941   1.916   7.278   4.541
 3662TIP3   OH210942   2.188   6.538   0.729
 3662TIP3    H110943   2.155   6.560   0.642
 3662TIP3    H210944   2.113   6.499   0.774
 3663TIP3   OH210945   1.675   4.707   5.989
 3663TIP3    H110946   1.727   4.708   6.070
 3663TIP3    H210947   1.737   4.684   5.920
 3664TIP3   OH210948   4.158   6.391   6.646
 3664TIP3    H110949   4.163   6.302   6.679
 3664TIP3    H210950   4.085   6.430   6.695
 3665TIP3   OH210951   6.367   1.865   5.335
 3665TIP3    H110952   6.282   1.829   5.309
 3665TIP3    H210953   6.367   1.954   5.301
 3666TIP3   OH210954   1.576   6.316   1.613
 3666TIP3    H110955   1.516   6.271   1.672
 3666TIP3    H210956   1.524   6.336   1.535
 3667TIP3   OH210957   5.711   4.513   4.623
 3667TIP3    H110958   5.742   4.547   4.707
 3667TIP3    H210959   5.790   4.497   4.573
 3668TIP3   OH210960   7.492   0.205   4.095
 3668TIP3    H110961   7.485   0.300   4.107
 3668TIP3    H210962   7.539   0.175   4.173
 3669TIP3   OH210963   6.480   4.839   4.616
 3669TIP3    H110964   6.474   4.916   4.672
 3669TIP3    H210965   6.440   4.769   4.667
 3670TIP3   OH210966   6.046   0.951   1.460
 3670TIP3    H110967   6.011   0.893   1.527
 3670TIP3    H210968   6.141   0.942   1.467
 3671TIP3   OH210969   1.152   6.847   5.914
 3671TIP3    H110970   1.170   6.916   5.978
 3671TIP3    H210971   1.224   6.854   5.850
 3672TIP3   OH210972   3.941   3.127   3.618
 3672TIP3    H110973   3.847   3.113   3.607
 3672TIP3    H210974   3.971   3.049   3.665
 3673TIP3   OH210975   5.624   4.130   1.113
 3673TIP3    H110976   5.631   4.034   1.107
 3673TIP3    H210977   5.579   4.145   1.196
 3674TIP3   OH210978   0.470   1.648   6.510
 3674TIP3    H110979   0.509   1.681   6.429
 3674TIP3    H210980   0.537   1.663   6.577
 3675TIP3   OH210981   3.443   0.961   1.910
 3675TIP3    H110982   3.349   0.940   1.909
 3675TIP3    H210983   3.454   1.024   1.839
 3676TIP3   OH210984   1.120   6.080   6.717
 3676TIP3    H110985   1.164   6.069   6.632
 3676TIP3    H210986   1.032   6.046   6.702
 3677TIP3   OH210987   8.165   6.692   6.682
 3677TIP3    H110988   8.175   6.624   6.749
 3677TIP3    H210989   8.073   6.687   6.657
 3678TIP3   OH210990   3.337   6.902   1.775
 3678TIP3    H110991   3.251   6.867   1.752
 3678TIP3    H210992   3.340   6.989   1.734
 3679TIP3   OH210993   7.375   2.347   4.295
 3679TIP3    H110994   7.457   2.341   4.246
 3679TIP3    H210995   7.374   2.436   4.330
 3680TIP3   OH210996   7.323   3.730   2.348
 3680TIP3    H110997   7.293   3.810   2.305
 3680TIP3    H210998   7.288   3.659   2.295
 3681TIP3   OH210999   7.242   3.144   4.492
 3681TIP3    H111000   7.333   3.157   4.521
 3681TIP3    H211001   7.225   3.051   4.507
 3682TIP3   OH211002   5.083   6.925   2.386
 3682TIP3    H111003   5.104   6.937   2.479
 3682TIP3    H211004   5.075   7.014   2.352
 3683TIP3   OH211005   0.768   4.655   0.530
 3683TIP3    H111006   0.714   4.678   0.605
 3683TIP3    H211007   0.705   4.630   0.462
 3684TIP3   OH211008   2.142   6.139   3.017
 3684TIP3    H111009   2.164   6.215   2.963
 3684TIP3    H211010   2.169   6.163   3.105
 3685TIP3   OH211011   0.219   7.391   4.439
 3685TIP3    H111012   0.135   7.395   4.484
 3685TIP3    H211013   0.282   7.369   4.507
 3686TIP3   OH211014   2.725   5.233   3.589
 3686TIP3    H111015   2.741   5.300   3.523
 3686TIP3    H211016   2.682   5.279   3.660
 3687TIP3   OH211017   2.790   3.296   5.808
 3687TIP3    H111018   2.800   3.275   5.901
 3687TIP3    H211019   2.853   3.239   5.764
 3688TIP3   OH211020   1.606   0.500   4.822
 3688TIP3    H111021   1.699   0.523   4.821
 3688TIP3    H211022   1.573   0.529   4.737
 3689TIP3   OH211023   8.168   7.486   5.335
 3689TIP3    H111024   8.253   7.519   5.366
 3689TIP3    H211025   8.122   7.459   5.414
 3690TIP3   OH211026   5.461   5.754   1.305
 3690TIP3    H111027   5.450   5.720   1.393
 3690TIP3    H211028   5.391   5.712   1.254
 3691TIP3   OH211029   6.162   4.331   0.234
 3691TIP3    H111030   6.116   4.282   0.165
 3691TIP3    H211031   6.243   4.361   0.192
 3692TIP3   OH211032   6.856   5.469   6.376
 3692TIP3    H111033   6.888   5.428   6.456
 3692TIP3    H211034   6.797   5.538   6.408
 3693TIP3   OH211035   2.054   4.461   4.015
 3693TIP3    H111036   2.006   4.487   3.937
 3693TIP3    H211037   2.145   4.455   3.986
 3694TIP3   OH211038   0.594   1.819   2.256
 3694TIP3    H111039   0.601   1.834   2.162
 3694TIP3    H211040   0.562   1.729   2.263
 3695TIP3   OH211041   1.195   3.667   0.742
 3695TIP3    H111042   1.239   3.747   0.771
 3695TIP3    H211043   1.141   3.641   0.817
 3696TIP3   OH211044   6.569   7.820   1.338
 3696TIP3    H111045   6.555   7.847   1.247
 3696TIP3    H211046   6.524   7.736   1.345
 3697TIP3   OH211047   6.675   2.019   5.084
 3697TIP3    H111048   6.708   2.033   4.995
 3697TIP3    H211049   6.754   1.999   5.136
 3698TIP3   OH211050   4.789   4.034   0.171
 3698TIP3    H111051   4.817   3.950   0.206
 3698TIP3    H211052   4.759   4.083   0.248
 3699TIP3   OH211053   7.703   4.091   4.209
 3699TIP3    H111054   7.724   4.049   4.293
 3699TIP3    H211055   7.729   4.027   4.143
 3700TIP3   OH211056   1.466   6.747   2.254
 3700TIP3    H111057   1.389   6.724   2.202
 3700TIP3    H211058   1.511   6.664   2.269
 3701TIP3   OH211059   0.502   2.313   3.491
 3701TIP3    H111060   0.478   2.325   3.400
 3701TIP3    H211061   0.586   2.267   3.488
 3702TIP3   OH211062   6.775   3.032   4.055
 3702TIP3    H111063   6.854   3.060   4.008
 3702TIP3    H211064   6.713   3.103   4.042
 3703TIP3   OH211065   5.680   0.791   2.642
 3703TIP3    H111066   5.710   0.779   2.552
 3703TIP3    H211067   5.756   0.767   2.696
 3704TIP3   OH211068   6.357   4.730   6.503
 3704TIP3    H111069   6.434   4.686   6.467
 3704TIP3    H211070   6.285   4.669   6.488
 3705TIP3   OH211071   1.336   2.991   4.774
 3705TIP3    H111072   1.277   3.049   4.822
 3705TIP3    H211073   1.286   2.965   4.697
 3706TIP3   OH211074   2.667   5.974   0.360
 3706TIP3    H111075   2.736   5.909   0.349
 3706TIP3    H211076   2.662   6.019   0.276
 3707TIP3   OH211077   0.655   6.881   5.553
 3707TIP3    H111078   0.655   6.912   5.462
 3707TIP3    H211079   0.691   6.792   5.547
 3708TIP3   OH211080   8.075   0.818   4.633
 3708TIP3    H111081   8.050   0.896   4.683
 3708TIP3    H211082   8.001   0.804   4.573
 3709TIP3   OH211083   6.787   0.250   6.618
 3709TIP3    H111084   6.855   0.303   6.576
 3709TIP3    H211085   6.725   0.231   6.547
 3710TIP3   OH211086   5.285   7.079   0.878
 3710TIP3    H111087   5.283   7.010   0.812
 3710TIP3    H211088   5.314   7.157   0.830
 3711TIP3   OH211089   5.603   4.163   6.404
 3711TIP3    H111090   5.574   4.203   6.486
 3711TIP3    H211091   5.619   4.238   6.346
 3712TIP3   OH211092   3.330   6.334   2.994
 3712TIP3    H111093   3.327   6.407   2.932
 3712TIP3    H211094   3.340   6.376   3.079
 3713TIP3   OH211095   1.294   7.015   0.942
 3713TIP3    H111096   1.274   6.926   0.969
 3713TIP3    H211097   1.390   7.020   0.945
 3714TIP3   OH211098   3.575   6.127   0.911
 3714TIP3    H111099   3.670   6.114   0.912
 3714TIP3    H211100   3.559   6.189   0.983
 3715TIP3   OH211101   4.762   2.307   6.372
 3715TIP3    H111102   4.750   2.246   6.445
 3715TIP3    H211103   4.817   2.260   6.310
 3716TIP3   OH211104   0.531   0.772   4.541
 3716TIP3    H111105   0.533   0.687   4.499
 3716TIP3    H211106   0.440   0.784   4.568
 3717TIP3   OH211107   4.932   0.221   0.320
 3717TIP3    H111108   4.867   0.259   0.379
 3717TIP3    H211109   4.938   0.130   0.348
 3718TIP3   OH211110   6.518   0.914   3.224
 3718TIP3    H111111   6.606   0.939   3.198
 3718TIP3    H211112   6.530   0.859   3.302
 3719TIP3   OH211113   2.474   5.804   0.213
 3719TIP3    H111114   2.485   5.892   0.249
 3719TIP3    H211115   2.380   5.795   0.199
 3720TIP3   OH211116   0.655   5.180   0.369
 3720TIP3    H111117   0.721   5.163   0.436
 3720TIP3    H211118   0.687   5.137   0.290
 3721TIP3   OH211119   7.932   3.435   3.995
 3721TIP3    H111120   8.020   3.398   3.989
 3721TIP3    H211121   7.946   3.528   4.014
 3722TIP3   OH211122   1.244   4.089   6.438
 3722TIP3    H111123   1.273   4.016   6.383
 3722TIP3    H211124   1.314   4.154   6.431
 3723TIP3   OH211125   0.201   5.850   1.908
 3723TIP3    H111126   0.211   5.945   1.895
 3723TIP3    H211127   0.127   5.826   1.851
 3724TIP3   OH211128   1.642   5.044   1.763
 3724TIP3    H111129   1.677   4.964   1.724
 3724TIP3    H211130   1.718   5.090   1.797
 3725TIP3   OH211131   0.286   2.795   1.113
 3725TIP3    H111132   0.211   2.739   1.131
 3725TIP3    H211133   0.270   2.831   1.026
 3726TIP3   OH211134   7.497   5.690   5.521
 3726TIP3    H111135   7.548   5.747   5.579
 3726TIP3    H211136   7.478   5.613   5.574
 3727TIP3   OH211137   6.422   0.742   5.849
 3727TIP3    H111138   6.495   0.794   5.814
 3727TIP3    H211139   6.409   0.775   5.938
 3728TIP3   OH211140   1.342   2.809   3.081
 3728TIP3    H111141   1.364   2.815   3.174
 3728TIP3    H211142   1.348   2.899   3.049
 3729TIP3   OH211143   5.617   7.391   3.575
 3729TIP3    H111144   5.538   7.345   3.602
 3729TIP3    H211145   5.597   7.483   3.590
 3730TIP3   OH211146   3.192   1.438   2.692
 3730TIP3    H111147   3.119   1.435   2.631
 3730TIP3    H211148   3.152   1.424   2.778
 3731TIP3   OH211149   0.036   2.101   2.308
 3731TIP3    H111150   0.078   2.051   2.238
 3731TIP3    H211151  -0.035   2.148   2.264
 3732TIP3   OH211152   2.465   3.402   5.031
 3732TIP3    H111153   2.465   3.408   5.126
 3732TIP3    H211154   2.377   3.370   5.009
 3733TIP3   OH211155   4.686   6.592   4.213
 3733TIP3    H111156   4.662   6.548   4.295
 3733TIP3    H211157   4.674   6.525   4.146
 3734TIP3   OH211158   8.051   0.949   2.909
 3734TIP3    H111159   8.140   0.936   2.943
 3734TIP3    H211160   8.059   1.025   2.851
 3735TIP3   OH211161   7.583   5.186   3.531
 3735TIP3    H111162   7.532   5.126   3.476
 3735TIP3    H211163   7.541   5.181   3.617
 3736TIP3   OH211164   0.907   4.891   6.141
 3736TIP3    H111165   0.877   4.981   6.129
 3736TIP3    H211166   0.923   4.859   6.052
 3737TIP3   OH211167   1.781   4.635   5.568
 3737TIP3    H111168   1.740   4.651   5.483
 3737TIP3    H211169   1.774   4.718   5.615
 3738TIP3   OH211170   7.777   6.657   6.341
 3738TIP3    H111171   7.807   6.739   6.301
 3738TIP3    H211172   7.817   6.588   6.288
 3739TIP3   OH211173   0.993   6.463   2.707
 3739TIP3    H111174   1.066   6.406   2.684
 3739TIP3    H211175   0.916   6.417   2.674
 3740TIP3   OH211176   6.973   2.228   2.810
 3740TIP3    H111177   7.025   2.150   2.829
 3740TIP3    H211178   6.885   2.206   2.840
 3741TIP3   OH211179   2.440   2.653   5.902
 3741TIP3    H111180   2.460   2.740   5.866
 3741TIP3    H211181   2.446   2.665   5.997
 3742TIP3   OH211182   3.560   4.932   6.396
 3742TIP3    H111183   3.465   4.945   6.396
 3742TIP3    H211184   3.576   4.880   6.317
 3743TIP3   OH211185   0.588   7.069   0.851
 3743TIP3    H111186   0.641   7.003   0.808
 3743TIP3    H211187   0.622   7.072   0.941
 3744TIP3   OH211188   0.723   2.342   2.058
 3744TIP3    H111189   0.693   2.284   2.128
 3744TIP3    H211190   0.818   2.329   2.055
 3745TIP3   OH211191   4.113   5.663   2.157
 3745TIP3    H111192   4.200   5.635   2.186
 3745TIP3    H211193   4.071   5.582   2.126
 3746TIP3   OH211194   3.883   6.905   4.124
 3746TIP3    H111195   3.846   6.884   4.038
 3746TIP3    H211196   3.815   6.958   4.166
 3747TIP3   OH211197   2.978   3.685   5.828
 3747TIP3    H111198   2.977   3.769   5.873
 3747TIP3    H211199   2.920   3.629   5.879
 3748TIP3   OH211200   0.594   6.543   1.428
 3748TIP3    H111201   0.581   6.598   1.351
 3748TIP3    H211202   0.686   6.517   1.424
 3749TIP3   OH211203   2.117   3.624   0.280
 3749TIP3    H111204   2.087   3.559   0.344
 3749TIP3    H211205   2.042   3.638   0.222
 3750TIP3   OH211206   5.973   5.054   1.000
 3750TIP3    H111207   6.017   5.006   1.070
 3750TIP3    H211208   5.890   5.081   1.038
 3751TIP3   OH211209   0.438   1.857   3.135
 3751TIP3    H111210   0.405   1.782   3.185
 3751TIP3    H211211   0.486   1.909   3.200
 3752TIP3   OH211212   6.077   7.129   3.478
 3752TIP3    H111213   5.990   7.143   3.442
 3752TIP3    H211214   6.062   7.100   3.568
 3753TIP3   OH211215   2.858   1.763   5.509
 3753TIP3    H111216   2.859   1.839   5.568
 3753TIP3    H211217   2.821   1.796   5.427
 3754TIP3   OH211218   2.250   3.341   2.779
 3754TIP3    H111219   2.255   3.246   2.789
 3754TIP3    H211220   2.299   3.359   2.698
 3755TIP3   OH211221   7.311   0.308   1.762
 3755TIP3    H111222   7.229   0.310   1.811
 3755TIP3    H211223   7.319   0.396   1.725
 3756TIP3   OH211224   5.609   3.154   3.246
 3756TIP3    H111225   5.515   3.146   3.227
 3756TIP3    H211226   5.639   3.226   3.192
 3757TIP3   OH211227   6.501   6.359   1.259
 3757TIP3    H111228   6.509   6.296   1.187
 3757TIP3    H211229   6.591   6.378   1.283
 3758TIP3   OH211230   0.975   6.261   4.089
 3758TIP3    H111231   0.909   6.296   4.030
 3758TIP3    H211232   0.930   6.192   4.138
 3759TIP3   OH211233   5.897   2.510   0.106
 3759TIP3    H111234   5.906   2.419   0.076
 3759TIP3    H211235   5.841   2.504   0.183
 3760TIP3   OH211236   7.668   4.307   2.551
 3760TIP3    H111237   7.726   4.234   2.575
 3760TIP3    H211238   7.590   4.294   2.605
 3761TIP3   OH211239   3.617   3.721   3.692
 3761TIP3    H111240   3.571   3.673   3.623
 3761TIP3    H211241   3.602   3.814   3.671
 3762TIP3   OH211242   7.172   0.174   6.414
 3762TIP3    H111243   7.094   0.119   6.412
 3762TIP3    H211244   7.226   0.138   6.484
 3763TIP3   OH211245   6.234   1.970   6.027
 3763TIP3    H111246   6.160   1.909   6.017
 3763TIP3    H211247   6.282   1.963   5.944
 3764TIP3   OH211248   5.565   2.381   0.080
 3764TIP3    H111249   5.546   2.474   0.084
 3764TIP3    H211250   5.606   2.368  -0.005
 3765TIP3   OH211251   6.889   0.450   2.394
 3765TIP3    H111252   6.916   0.496   2.315
 3765TIP3    H211253   6.964   0.396   2.417
 3766TIP3   OH211254   0.301   4.446   1.408
 3766TIP3    H111255   0.208   4.459   1.427
 3766TIP3    H211256   0.331   4.388   1.478
 3767TIP3   OH211257   5.709   0.430   2.872
 3767TIP3    H111258   5.666   0.515   2.861
 3767TIP3    H211259   5.802   0.448   2.857
 3768TIP3   OH211260   5.473   2.288   2.115
 3768TIP3    H111261   5.529   2.264   2.189
 3768TIP3    H211262   5.522   2.357   2.070
 3769TIP3   OH211263   7.628   1.485   5.251
 3769TIP3    H111264   7.659   1.516   5.336
 3769TIP3    H211265   7.534   1.500   5.253
 3770TIP3   OH211266   1.654   1.885   4.928
 3770TIP3    H111267   1.677   1.949   4.996
 3770TIP3    H211268   1.634   1.805   4.977
 3771TIP3   OH211269   5.670   2.434   3.530
 3771TIP3    H111270   5.751   2.384   3.535
 3771TIP3    H211271   5.615   2.399   3.600
 3772TIP3   OH211272   8.211   7.524   2.769
 3772TIP3    H111273   8.134   7.494   2.721
 3772TIP3    H211274   8.285   7.500   2.714
 3773TIP3   OH211275   1.193   6.562   5.152
 3773TIP3    H111276   1.242   6.480   5.150
 3773TIP3    H211277   1.183   6.582   5.245
 3774TIP3   OH211278   2.837   2.191   5.617
 3774TIP3    H111279   2.784   2.242   5.556
 3774TIP3    H211280   2.898   2.142   5.562
 3775TIP3   OH211281   2.268   6.074   2.381
 3775TIP3    H111282   2.216   6.154   2.385
 3775TIP3    H211283   2.359   6.103   2.387
 3776TIP3   OH211284   4.768   0.745   6.435
 3776TIP3    H111285   4.785   0.693   6.514
 3776TIP3    H211286   4.724   0.823   6.468
 3777TIP3   OH211287   8.061   4.662   3.656
 3777TIP3    H111288   8.038   4.654   3.564
 3777TIP3    H211289   8.026   4.583   3.697
 3778TIP3   OH211290   5.471   7.349   0.240
 3778TIP3    H111291   5.384   7.365   0.203
 3778TIP3    H211292   5.461   7.267   0.289
 3779TIP3   OH211293   3.316   6.321   2.409
 3779TIP3    H111294   3.383   6.332   2.477
 3779TIP3    H211295   3.360   6.273   2.339
 3780TIP3   OH211296   0.487   1.974   3.791
 3780TIP3    H111297   0.466   2.058   3.833
 3780TIP3    H211298   0.478   1.909   3.861
 3781TIP3   OH211299   2.297   1.799   3.277
 3781TIP3    H111300   2.254   1.734   3.332
 3781TIP3    H211301   2.379   1.817   3.322
 3782TIP3   OH211302   3.886   1.738   4.062
 3782TIP3    H111303   3.925   1.780   3.985
 3782TIP3    H211304   3.795   1.768   4.062
 3783TIP3   OH211305   3.205   1.548   5.441
 3783TIP3    H111306   3.196   1.640   5.466
 3783TIP3    H211307   3.115   1.516   5.434
 3784TIP3   OH211308   1.973   1.072   5.765
 3784TIP3    H111309   2.066   1.050   5.767
 3784TIP3    H211310   1.943   1.057   5.855
 3785TIP3   OH211311   5.465   1.184   0.366
 3785TIP3    H111312   5.487   1.230   0.448
 3785TIP3    H211313   5.461   1.253   0.300
 3786TIP3   OH211314   1.818   1.441   6.104
 3786TIP3    H111315   1.912   1.426   6.094
 3786TIP3    H211316   1.811   1.507   6.173
 3787TIP3   OH211317   3.270   7.146   0.811
 3787TIP3    H111318   3.294   7.199   0.887
 3787TIP3    H211319   3.253   7.209   0.742
 3788TIP3   OH211320   0.398   5.700   0.139
 3788TIP3    H111321   0.489   5.693   0.109
 3788TIP3    H211322   0.396   5.649   0.220
 3789TIP3   OH211323   2.880   5.659   1.619
 3789TIP3    H111324   2.792   5.685   1.644
 3789TIP3    H211325   2.892   5.694   1.530
 3790TIP3   OH211326   6.815   3.704   5.842
 3790TIP3    H111327   6.838   3.777   5.899
 3790TIP3    H211328   6.833   3.626   5.895
 3791TIP3   OH211329   1.335   5.423   6.775
 3791TIP3    H111330   1.316   5.441   6.867
 3791TIP3    H211331   1.412   5.366   6.777
 3792TIP3   OH211332   4.231   0.500   0.078
 3792TIP3    H111333   4.156   0.500   0.137
 3792TIP3    H211334   4.305   0.474   0.132
 3793TIP3   OH211335   0.469   5.727   4.005
 3793TIP3    H111336   0.425   5.749   3.923
 3793TIP3    H211337   0.497   5.636   3.995
 3794TIP3   OH211338   2.035   5.656   1.976
 3794TIP3    H111339   1.994   5.703   1.903
 3794TIP3    H211340   1.962   5.628   2.031
 3795TIP3   OH211341   3.196   7.072   1.145
 3795TIP3    H111342   3.145   6.995   1.122
 3795TIP3    H211343   3.286   7.041   1.151
 3796TIP3   OH211344   6.554   2.990   5.852
 3796TIP3    H111345   6.515   3.076   5.838
 3796TIP3    H211346   6.486   2.928   5.827
 3797TIP3   OH211347   7.559   4.116   3.780
 3797TIP3    H111348   7.554   4.064   3.699
 3797TIP3    H211349   7.496   4.073   3.838
 3798TIP3   OH211350   7.957   4.807   0.378
 3798TIP3    H111351   8.036   4.792   0.430
 3798TIP3    H211352   7.889   4.755   0.421
 3799TIP3   OH211353   5.377   3.835   0.767
 3799TIP3    H111354   5.377   3.740   0.766
 3799TIP3    H211355   5.458   3.859   0.811
 3800TIP3   OH211356   6.261   3.568   3.403
 3800TIP3    H111357   6.300   3.631   3.462
 3800TIP3    H211358   6.333   3.537   3.348
 3801TIP3   OH211359   3.267   7.472   5.277
 3801TIP3    H111360   3.336   7.505   5.334
 3801TIP3    H211361   3.280   7.378   5.275
 3802TIP3   OH211362   2.830   4.616   5.397
 3802TIP3    H111363   2.749   4.566   5.385
 3802TIP3    H211364   2.851   4.650   5.310
 3803TIP3   OH211365   2.904   4.557   4.581
 3803TIP3    H111366   2.921   4.505   4.660
 3803TIP3    H211367   2.922   4.647   4.606
 3804TIP3   OH211368   5.625   4.249   0.844
 3804TIP3    H111369   5.695   4.230   0.782
 3804TIP3    H211370   5.635   4.183   0.913
 3805TIP3   OH211371   5.913   4.832   2.460
 3805TIP3    H111372   5.971   4.759   2.439
 3805TIP3    H211373   5.863   4.801   2.536
 3806TIP3   OH211374   3.654   2.776   6.231
 3806TIP3    H111375   3.590   2.801   6.297
 3806TIP3    H211376   3.716   2.849   6.228
 3807TIP3   OH211377   1.664   1.800   3.998
 3807TIP3    H111378   1.733   1.849   4.044
 3807TIP3    H211379   1.593   1.794   4.062
 3808TIP3   OH211380   7.396   4.634   5.846
 3808TIP3    H111381   7.462   4.686   5.799
 3808TIP3    H211382   7.332   4.699   5.877
 3809TIP3   OH211383   5.749   5.598   6.228
 3809TIP3    H111384   5.841   5.587   6.206
 3809TIP3    H211385   5.718   5.669   6.172
 3810TIP3   OH211386   3.249   0.142   2.134
 3810TIP3    H111387   3.309   0.068   2.127
 3810TIP3    H211388   3.299   0.209   2.181
 3811TIP3   OH211389   7.515   6.654   0.133
 3811TIP3    H111390   7.504   6.662   0.228
 3811TIP3    H211391   7.604   6.620   0.122
 3812TIP3   OH211392   7.550   3.379   2.742
 3812TIP3    H111393   7.598   3.304   2.778
 3812TIP3    H211394   7.537   3.357   2.650
 3813TIP3   OH211395   7.121   0.286   4.051
 3813TIP3    H111396   7.117   0.192   4.036
 3813TIP3    H211397   7.203   0.299   4.099
 3814TIP3   OH211398   0.255   5.444   1.546
 3814TIP3    H111399   0.256   5.537   1.522
 3814TIP3    H211400   0.163   5.419   1.541
 3815TIP3   OH211401   0.258   6.424   5.146
 3815TIP3    H111402   0.199   6.497   5.166
 3815TIP3    H211403   0.269   6.377   5.229
 3816TIP3   OH211404   0.133   4.113   0.705
 3816TIP3    H111405   0.124   4.083   0.795
 3816TIP3    H211406   0.045   4.141   0.679
 3817TIP3   OH211407   3.620   1.776   0.661
 3817TIP3    H111408   3.667   1.857   0.645
 3817TIP3    H211409   3.537   1.803   0.700
 3818TIP3   OH211410   0.832   7.174   1.545
 3818TIP3    H111411   0.913   7.203   1.503
 3818TIP3    H211412   0.764   7.190   1.480
 3819TIP3   OH211413   3.652   3.428   3.770
 3819TIP3    H111414   3.679   3.465   3.686
 3819TIP3    H211415   3.670   3.497   3.834
 3820TIP3   OH211416   4.375   0.341   2.603
 3820TIP3    H111417   4.298   0.342   2.546
 3820TIP3    H211418   4.339   0.346   2.692
 3821TIP3   OH211419   0.844   6.453   2.268
 3821TIP3    H111420   0.881   6.422   2.185
 3821TIP3    H211421   0.913   6.437   2.332
 3822TIP3   OH211422   5.791   7.583   3.334
 3822TIP3    H111423   5.814   7.569   3.425
 3822TIP3    H211424   5.838   7.516   3.285
 3823TIP3   OH211425   8.299   5.501   6.437
 3823TIP3    H111426   8.234   5.432   6.451
 3823TIP3    H211427   8.248   5.582   6.438
 3824TIP3   OH211428   6.106   1.088   4.496
 3824TIP3    H111429   6.027   1.141   4.493
 3824TIP3    H211430   6.167   1.137   4.551
 3825TIP3   OH211431   1.316   2.091   2.976
 3825TIP3    H111432   1.367   2.168   2.951
 3825TIP3    H211433   1.311   2.039   2.897
 3826TIP3   OH211434   0.980   3.435   4.970
 3826TIP3    H111435   0.886   3.453   4.963
 3826TIP3    H211436   0.987   3.369   5.038
 3827TIP3   OH211437   3.116   6.329   3.953
 3827TIP3    H111438   3.031   6.291   3.976
 3827TIP3    H211439   3.143   6.281   3.874
 3828TIP3   OH211440   2.077   1.519   0.771
 3828TIP3    H111441   2.098   1.612   0.762
 3828TIP3    H211442   1.984   1.517   0.793
 3829TIP3   OH211443   7.159   3.563   3.481
 3829TIP3    H111444   7.206   3.500   3.427
 3829TIP3    H211445   7.106   3.509   3.540
 3830TIP3   OH211446   1.607   6.879   3.151
 3830TIP3    H111447   1.525   6.893   3.199
 3830TIP3    H211448   1.661   6.955   3.175
 3831TIP3   OH211449   0.244   2.445   4.738
 3831TIP3    H111450   0.255   2.388   4.814
 3831TIP3    H211451   0.312   2.418   4.676
 3832TIP3   OH211452   3.334   7.209   1.871
 3832TIP3    H111453   3.321   7.185   1.779
 3832TIP3    H211454   3.428   7.224   1.879
 3833TIP3   OH211455   7.995   3.218   1.222
 3833TIP3    H111456   8.018   3.159   1.295
 3833TIP3    H211457   8.013   3.167   1.143
 3834TIP3   OH211458   4.616   2.456   6.199
 3834TIP3    H111459   4.684   2.405   6.244
 3834TIP3    H211460   4.558   2.390   6.161
 3835TIP3   OH211461   4.994   1.427   3.530
 3835TIP3    H111462   4.921   1.464   3.579
 3835TIP3    H211463   4.978   1.333   3.530
 3836TIP3   OH211464   7.196   6.197   3.624
 3836TIP3    H111465   7.154   6.112   3.640
 3836TIP3    H211466   7.154   6.257   3.686
 3837TIP3   OH211467   8.382   7.185   5.921
 3837TIP3    H111468   8.350   7.139   5.999
 3837TIP3    H211469   8.372   7.278   5.943
 3838TIP3   OH211470   7.909   6.282   3.642
 3838TIP3    H111471   7.995   6.275   3.602
 3838TIP3    H211472   7.907   6.370   3.680
 3839TIP3   OH211473   7.355   7.792   6.328
 3839TIP3    H111474   7.440   7.748   6.318
 3839TIP3    H211475   7.292   7.730   6.293
 3840TIP3   OH211476   0.808   6.385   1.336
 3840TIP3    H111477   0.785   6.292   1.348
 3840TIP3    H211478   0.893   6.394   1.379
 3841TIP3   OH211479   7.890   5.796   4.053
 3841TIP3    H111480   7.963   5.856   4.044
 3841TIP3    H211481   7.883   5.754   3.967
 3842TIP3   OH211482   1.868   6.494   4.489
 3842TIP3    H111483   1.832   6.436   4.556
 3842TIP3    H211484   1.902   6.569   4.537
 3843TIP3   OH211485   2.780   6.476   3.411
 3843TIP3    H111486   2.720   6.495   3.484
 3843TIP3    H211487   2.833   6.403   3.443
 3844TIP3   OH211488   3.666   1.041   1.701
 3844TIP3    H111489   3.704   1.063   1.616
 3844TIP3    H211490   3.581   1.084   1.701
 3845TIP3   OH211491   4.801   4.709   0.119
 3845TIP3    H111492   4.782   4.702   0.025
 3845TIP3    H211493   4.738   4.773   0.152
 3846TIP3   OH211494   6.364   3.157   6.235
 3846TIP3    H111495   6.309   3.228   6.203
 3846TIP3    H211496   6.391   3.185   6.322
 3847TIP3   OH211497   7.539   7.123   5.869
 3847TIP3    H111498   7.600   7.050   5.884
 3847TIP3    H211499   7.586   7.183   5.812
 3848TIP3   OH211500   0.734   2.461   3.198
 3848TIP3    H111501   0.814   2.416   3.224
 3848TIP3    H211502   0.690   2.482   3.280
 3849TIP3   OH211503   6.411   4.364   0.526
 3849TIP3    H111504   6.440   4.433   0.466
 3849TIP3    H211505   6.321   4.347   0.500
 3850TIP3   OH211506   7.064   0.029   6.092
 3850TIP3    H111507   7.001   0.101   6.088
 3850TIP3    H211508   7.144   0.064   6.053
 3851TIP3   OH211509   6.490   4.140   5.402
 3851TIP3    H111510   6.444   4.165   5.482
 3851TIP3    H211511   6.542   4.217   5.380
 3852TIP3   OH211512   0.143   0.224   3.143
 3852TIP3    H111513   0.079   0.183   3.202
 3852TIP3    H211514   0.143   0.168   3.065
 3853TIP3   OH211515   7.465   5.092   5.337
 3853TIP3    H111516   7.396   5.083   5.271
 3853TIP3    H211517   7.459   5.183   5.366
 3854TIP3   OH211518   8.118   0.352   1.514
 3854TIP3    H111519   8.027   0.326   1.528
 3854TIP3    H211520   8.158   0.276   1.471
 3855TIP3   OH211521   1.604   3.454   6.534
 3855TIP3    H111522   1.520   3.437   6.491
 3855TIP3    H211523   1.602   3.400   6.613
 3856TIP3   OH211524   7.050   4.055   1.414
 3856TIP3    H111525   7.013   3.973   1.379
 3856TIP3    H211526   7.070   4.106   1.336
 3857TIP3   OH211527   5.780   6.324   2.971
 3857TIP3    H111528   5.751   6.308   2.881
 3857TIP3    H211529   5.813   6.239   3.001
 3858TIP3   OH211530   2.755   4.841   2.467
 3858TIP3    H111531   2.695   4.844   2.392
 3858TIP3    H211532   2.699   4.822   2.542
 3859TIP3   OH211533   3.691   5.544   2.260
 3859TIP3    H111534   3.780   5.561   2.292
 3859TIP3    H211535   3.700   5.466   2.205
 3860TIP3   OH211536   7.360   3.727   6.158
 3860TIP3    H111537   7.357   3.785   6.234
 3860TIP3    H211538   7.285   3.753   6.105
 3861TIP3   OH211539   2.320   6.058   0.151
 3861TIP3    H111540   2.350   6.030   0.064
 3861TIP3    H211541   2.355   6.146   0.161
 3862TIP3   OH211542   7.075   6.101   1.122
 3862TIP3    H111543   7.075   6.135   1.212
 3862TIP3    H211544   6.983   6.089   1.101
 3863TIP3   OH211545   7.248   2.474   2.882
 3863TIP3    H111546   7.202   2.418   2.945
 3863TIP3    H211547   7.262   2.556   2.929
 3864TIP3   OH211548   3.309   4.586   3.633
 3864TIP3    H111549   3.342   4.633   3.709
 3864TIP3    H211550   3.280   4.655   3.573
 3865TIP3   OH211551   5.025   4.560   0.173
 3865TIP3    H111552   4.950   4.605   0.134
 3865TIP3    H211553   4.995   4.470   0.184
 3866TIP3   OH211554   1.143   2.893   5.015
 3866TIP3    H111555   1.212   2.952   5.045
 3866TIP3    H211556   1.143   2.904   4.919
 3867TIP3   OH211557   3.108   7.462   2.968
 3867TIP3    H111558   3.179   7.447   2.906
 3867TIP3    H211559   3.152   7.472   3.052
 3868TIP3   OH211560   0.154   5.146   1.941
 3868TIP3    H111561   0.122   5.058   1.958
 3868TIP3    H211562   0.243   5.147   1.977
 3869TIP3   OH211563   7.782   5.249   0.346
 3869TIP3    H111564   7.700   5.288   0.314
 3869TIP3    H211565   7.757   5.162   0.377
 3870TIP3   OH211566   8.001   4.066   0.457
 3870TIP3    H111567   8.054   4.021   0.391
 3870TIP3    H211568   8.060   4.132   0.494
 3871TIP3   OH211569   1.382   3.798   3.562
 3871TIP3    H111570   1.369   3.744   3.485
 3871TIP3    H211571   1.392   3.887   3.528
 3872TIP3   OH211572   3.628   1.557   4.323
 3872TIP3    H111573   3.596   1.509   4.399
 3872TIP3    H211574   3.722   1.563   4.337
 3873TIP3   OH211575   8.184   1.149   5.351
 3873TIP3    H111576   8.104   1.111   5.315
 3873TIP3    H211577   8.183   1.240   5.322
 3874TIP3   OH211578   3.158   4.122   1.618
 3874TIP3    H111579   3.251   4.143   1.623
 3874TIP3    H211580   3.118   4.195   1.571
 3875TIP3   OH211581   7.760   4.873   6.274
 3875TIP3    H111582   7.837   4.869   6.331
 3875TIP3    H211583   7.782   4.817   6.200
 3876TIP3   OH211584   7.684   3.404   0.601
 3876TIP3    H111585   7.753   3.376   0.662
 3876TIP3    H211586   7.732   3.431   0.523
 3877TIP3   OH211587   3.822   2.140   2.668
 3877TIP3    H111588   3.889   2.173   2.608
 3877TIP3    H211589   3.842   2.047   2.677
 3878TIP3   OH211590   3.111   0.463   2.561
 3878TIP3    H111591   3.170   0.407   2.611
 3878TIP3    H211592   3.121   0.433   2.471
 3879TIP3   OH211593   2.065   6.848   6.274
 3879TIP3    H111594   2.070   6.784   6.202
 3879TIP3    H211595   2.092   6.930   6.233
 3880TIP3   OH211596   0.880   3.444   5.335
 3880TIP3    H111597   0.863   3.469   5.244
 3880TIP3    H211598   0.957   3.495   5.360
 3881TIP3   OH211599   2.139   5.905   6.642
 3881TIP3    H111600   2.071   5.972   6.629
 3881TIP3    H211601   2.129   5.878   6.733
 3882TIP3   OH211602   0.039   6.480   1.986
 3882TIP3    H111603   0.070   6.512   1.901
 3882TIP3    H211604  -0.041   6.431   1.966
 3883TIP3   OH211605   7.594   3.711   2.995
 3883TIP3    H111606   7.644   3.786   3.027
 3883TIP3    H211607   7.577   3.732   2.903
 3884TIP3   OH211608   7.991   2.023   3.841
 3884TIP3    H111609   8.068   2.033   3.896
 3884TIP3    H211610   8.003   1.938   3.798
 3885TIP3   OH211611   1.259   3.224   2.378
 3885TIP3    H111612   1.187   3.222   2.316
 3885TIP3    H211613   1.264   3.134   2.412
 3886TIP3   OH211614   1.136   1.407   5.134
 3886TIP3    H111615   1.206   1.342   5.140
 3886TIP3    H211616   1.058   1.362   5.166
 3887TIP3   OH211617   5.862   5.340   0.917
 3887TIP3    H111618   5.790   5.402   0.923
 3887TIP3    H211619   5.919   5.362   0.991
 3888TIP3   OH211620   6.484   0.769   6.530
 3888TIP3    H111621   6.453   0.747   6.618
 3888TIP3    H211622   6.529   0.853   6.541
 3889TIP3   OH211623   1.430   0.772   1.530
 3889TIP3    H111624   1.354   0.719   1.505
 3889TIP3    H211625   1.393   0.857   1.553
 3890TIP3   OH211626   0.289   5.118   0.810
 3890TIP3    H111627   0.356   5.161   0.759
 3890TIP3    H211628   0.335   5.084   0.887
 3891TIP3   OH211629   1.762   6.560   2.651
 3891TIP3    H111630   1.682   6.509   2.635
 3891TIP3    H211631   1.735   6.628   2.713
 3892TIP3   OH211632   2.396   3.713   3.471
 3892TIP3    H111633   2.471   3.771   3.457
 3892TIP3    H211634   2.383   3.670   3.387
 3893TIP3   OH211635   0.667   0.546   1.152
 3893TIP3    H111636   0.692   0.565   1.062
 3893TIP3    H211637   0.671   0.631   1.196
 3894TIP3   OH211638   2.247   5.982   2.723
 3894TIP3    H111639   2.177   5.918   2.713
 3894TIP3    H211640   2.204   6.067   2.717
 3895TIP3   OH211641   0.249   6.838   4.045
 3895TIP3    H111642   0.327   6.848   4.101
 3895TIP3    H211643   0.211   6.755   4.074
 3896TIP3   OH211644   4.173   4.065   0.682
 3896TIP3    H111645   4.139   3.979   0.657
 3896TIP3    H211646   4.268   4.055   0.680
 3897TIP3   OH211647   2.605   2.203   5.443
 3897TIP3    H111648   2.537   2.148   5.403
 3897TIP3    H211649   2.566   2.290   5.449
 3898TIP3   OH211650   3.413   5.572   4.937
 3898TIP3    H111651   3.335   5.520   4.958
 3898TIP3    H211652   3.477   5.507   4.907
 3899TIP3   OH211653   1.966   4.527   3.780
 3899TIP3    H111654   1.881   4.551   3.742
 3899TIP3    H211655   2.024   4.517   3.705
 3900TIP3   OH211656   1.862   1.924   4.150
 3900TIP3    H111657   1.953   1.953   4.154
 3900TIP3    H211658   1.812   2.004   4.141
 3901TIP3   OH211659   3.972   6.331   1.592
 3901TIP3    H111660   3.968   6.404   1.654
 3901TIP3    H211661   3.887   6.333   1.548
 3902TIP3   OH211662   0.914   4.579   6.493
 3902TIP3    H111663   0.825   4.550   6.516
 3902TIP3    H211664   0.958   4.499   6.465
 3903TIP3   OH211665   7.792   3.472   6.426
 3903TIP3    H111666   7.887   3.483   6.415
 3903TIP3    H211667   7.770   3.525   6.503
 3904TIP3   OH211668   1.197   3.176   1.616
 3904TIP3    H111669   1.202   3.272   1.616
 3904TIP3    H211670   1.106   3.157   1.594
 3905TIP3   OH211671   3.851   4.535   5.028
 3905TIP3    H111672   3.861   4.467   5.094
 3905TIP3    H211673   3.930   4.588   5.035
 3906TIP3   OH211674   5.870   5.746   2.325
 3906TIP3    H111675   5.924   5.716   2.251
 3906TIP3    H211676   5.837   5.665   2.364
 3907TIP3   OH211677   1.008   0.536   6.587
 3907TIP3    H111678   1.066   0.525   6.663
 3907TIP3    H211679   0.971   0.623   6.598
 3908TIP3   OH211680   7.840   1.234   5.875
 3908TIP3    H111681   7.854   1.254   5.967
 3908TIP3    H211682   7.926   1.248   5.834
 3909TIP3   OH211683   4.430   4.760   5.344
 3909TIP3    H111684   4.359   4.705   5.376
 3909TIP3    H211685   4.430   4.836   5.402
 3910TIP3   OH211686   1.177   1.281   5.961
 3910TIP3    H111687   1.086   1.304   5.940
 3910TIP3    H211688   1.205   1.348   6.022
 3911TIP3   OH211689   4.489   2.364   3.179
 3911TIP3    H111690   4.507   2.454   3.205
 3911TIP3    H211691   4.472   2.317   3.261
 3912TIP3   OH211692   0.530   3.543   6.143
 3912TIP3    H111693   0.565   3.463   6.104
 3912TIP3    H211694   0.518   3.603   6.069
 3913TIP3   OH211695   6.133   4.334   0.490
 3913TIP3    H111696   6.158   4.343   0.398
 3913TIP3    H211697   6.118   4.424   0.519
 3914TIP3   OH211698   4.232   0.543   0.807
 3914TIP3    H111699   4.234   0.559   0.902
 3914TIP3    H211700   4.167   0.604   0.773
 3915TIP3   OH211701   2.048   0.659   2.145
 3915TIP3    H111702   2.099   0.734   2.113
 3915TIP3    H211703   2.030   0.680   2.236
 3916TIP3   OH211704   3.854   4.780   1.305
 3916TIP3    H111705   3.830   4.689   1.290
 3916TIP3    H211706   3.945   4.777   1.335
 3917TIP3   OH211707   6.396   4.672   5.133
 3917TIP3    H111708   6.431   4.746   5.083
 3917TIP3    H211709   6.313   4.651   5.091
 3918TIP3   OH211710   0.093   1.082   1.845
 3918TIP3    H111711   0.069   1.136   1.920
 3918TIP3    H211712   0.083   1.140   1.769
 3919TIP3   OH211713   2.818   3.028   3.263
 3919TIP3    H111714   2.781   2.989   3.184
 3919TIP3    H211715   2.757   3.097   3.287
 3920TIP3   OH211716   5.832   0.741   5.944
 3920TIP3    H111717   5.808   0.665   5.997
 3920TIP3    H211718   5.911   0.775   5.985
 3921TIP3   OH211719   4.367   6.020   5.822
 3921TIP3    H111720   4.326   6.072   5.891
 3921TIP3    H211721   4.322   6.045   5.742
 3922TIP3   OH211722   6.811   1.401   3.221
 3922TIP3    H111723   6.740   1.350   3.261
 3922TIP3    H211724   6.890   1.351   3.241
 3923TIP3   OH211725   4.592   2.945   1.294
 3923TIP3    H111726   4.525   2.958   1.227
 3923TIP3    H211727   4.664   2.901   1.248
 3924TIP3   OH211728   5.882   7.513   3.580
 3924TIP3    H111729   5.792   7.482   3.570
 3924TIP3    H211730   5.877   7.581   3.648
 3925TIP3   OH211731   5.393   2.840   0.224
 3925TIP3    H111732   5.369   2.751   0.201
 3925TIP3    H211733   5.488   2.838   0.234
 3926TIP3   OH211734   7.315   2.545   0.057
 3926TIP3    H111735   7.272   2.504   0.132
 3926TIP3    H211736   7.398   2.577   0.092
 3927TIP3   OH211737   3.728   4.415   2.230
 3927TIP3    H111738   3.771   4.333   2.208
 3927TIP3    H211739   3.783   4.483   2.190
 3928TIP3   OH211740   6.604   3.438   6.710
 3928TIP3    H111741   6.624   3.345   6.719
 3928TIP3    H211742   6.640   3.478   6.788
 3929TIP3   OH211743   8.110   6.511   2.778
 3929TIP3    H111744   8.034   6.567   2.795
 3929TIP3    H211745   8.179   6.546   2.834
 3930TIP3   OH211746   1.576   3.605   3.037
 3930TIP3    H111747   1.488   3.635   3.059
 3930TIP3    H211748   1.613   3.676   2.984
 3931TIP3   OH211749   4.604   4.733   3.146
 3931TIP3    H111750   4.605   4.655   3.202
 3931TIP3    H211751   4.637   4.803   3.202
 3932TIP3   OH211752   6.527   3.732   5.833
 3932TIP3    H111753   6.621   3.726   5.818
 3932TIP3    H211754   6.507   3.826   5.827
 3933TIP3   OH211755   7.034   4.537   6.353
 3933TIP3    H111756   7.082   4.454   6.356
 3933TIP3    H211757   7.069   4.588   6.426
 3934TIP3   OH211758   5.851   6.867   5.467
 3934TIP3    H111759   5.920   6.801   5.476
 3934TIP3    H211760   5.793   6.851   5.541
 3935TIP3   OH211761   6.822   1.748   3.909
 3935TIP3    H111762   6.801   1.822   3.967
 3935TIP3    H211763   6.741   1.697   3.905
 3936TIP3   OH211764   4.769   1.349   5.573
 3936TIP3    H111765   4.860   1.353   5.543
 3936TIP3    H211766   4.738   1.440   5.567
 3937TIP3   OH211767   5.102   7.186   5.794
 3937TIP3    H111768   5.124   7.243   5.867
 3937TIP3    H211769   5.102   7.244   5.717
 3938TIP3   OH211770   1.322   1.423   3.152
 3938TIP3    H111771   1.273   1.371   3.088
 3938TIP3    H211772   1.338   1.506   3.108
 3939TIP3   OH211773   5.939   7.031   2.793
 3939TIP3    H111774   5.966   6.939   2.795
 3939TIP3    H211775   5.844   7.029   2.790
 3940TIP3   OH211776   4.560   2.629   3.246
 3940TIP3    H111777   4.616   2.687   3.193
 3940TIP3    H211778   4.492   2.687   3.280
 3941TIP3   OH211779   6.259   5.650   2.022
 3941TIP3    H111780   6.230   5.567   1.985
 3941TIP3    H211781   6.316   5.688   1.955
 3942TIP3   OH211782   5.913   2.053   4.346
 3942TIP3    H111783   5.980   2.121   4.353
 3942TIP3    H211784   5.962   1.973   4.331
 3943TIP3   OH211785   6.533   1.926   3.123
 3943TIP3    H111786   6.628   1.935   3.125
 3943TIP3    H211787   6.518   1.842   3.080
 3944TIP3   OH211788   4.573   6.336   6.747
 3944TIP3    H111789   4.563   6.279   6.670
 3944TIP3    H211790   4.590   6.277   6.819
 3945TIP3   OH211791   0.652   0.754   5.515
 3945TIP3    H111792   0.570   0.761   5.563
 3945TIP3    H211793   0.649   0.668   5.473
 3946TIP3   OH211794   2.557   2.740   3.554
 3946TIP3    H111795   2.533   2.785   3.473
 3946TIP3    H211796   2.547   2.806   3.622
 3947TIP3   OH211797   3.803   7.019   0.179
 3947TIP3    H111798   3.731   6.980   0.227
 3947TIP3    H211799   3.838   7.087   0.237
 3948TIP3   OH211800   4.317   2.532   0.470
 3948TIP3    H111801   4.295   2.521   0.563
 3948TIP3    H211802   4.375   2.608   0.468
 3949TIP3   OH211803   3.015   4.055   2.252
 3949TIP3    H111804   2.966   4.137   2.260
 3949TIP3    H211805   3.043   4.036   2.341
 3950TIP3   OH211806   5.613   5.901   5.589
 3950TIP3    H111807   5.559   5.921   5.512
 3950TIP3    H211808   5.693   5.864   5.553
 3951TIP3   OH211809   6.673   0.411   2.607
 3951TIP3    H111810   6.680   0.445   2.518
 3951TIP3    H211811   6.580   0.393   2.620
 3952TIP3   OH211812   7.164   3.262   5.618
 3952TIP3    H111813   7.206   3.341   5.650
 3952TIP3    H211814   7.085   3.253   5.671
 3953TIP3   OH211815   3.326   2.648   0.099
 3953TIP3    H111816   3.353   2.684   0.183
 3953TIP3    H211817   3.239   2.685   0.084
 3954TIP3   OH211818   6.032   4.060   5.387
 3954TIP3    H111819   6.126   4.044   5.393
 3954TIP3    H211820   6.014   4.054   5.293
 3955TIP3   OH211821   4.281   0.074   0.842
 3955TIP3    H111822   4.282   0.062   0.937
 3955TIP3    H211823   4.191   0.099   0.823
 3956TIP3   OH211824   7.725   7.579   6.625
 3956TIP3    H111825   7.684   7.665   6.630
 3956TIP3    H211826   7.653   7.517   6.640
 3957TIP3   OH211827   3.699   5.820   6.526
 3957TIP3    H111828   3.717   5.764   6.602
 3957TIP3    H211829   3.683   5.907   6.563
 3958TIP3   OH211830   0.839   2.073   1.130
 3958TIP3    H111831   0.752   2.106   1.152
 3958TIP3    H211832   0.897   2.148   1.142
 3959TIP3   OH211833   6.606   0.708   1.174
 3959TIP3    H111834   6.636   0.796   1.198
 3959TIP3    H211835   6.684   0.665   1.139
 3960TIP3   OH211836   3.326   7.590   0.694
 3960TIP3    H111837   3.374   7.573   0.775
 3960TIP3    H211838   3.375   7.661   0.652
 3961TIP3   OH211839   0.226   5.212   5.944
 3961TIP3    H111840   0.225   5.254   5.858
 3961TIP3    H211841   0.138   5.177   5.955
 3962TIP3   OH211842   8.147   1.099   0.255
 3962TIP3    H111843   8.099   1.152   0.319
 3962TIP3    H211844   8.238   1.129   0.262
 3963TIP3   OH211845   0.895   7.635   1.243
 3963TIP3    H111846   0.847   7.560   1.209
 3963TIP3    H211847   0.987   7.610   1.237
 3964TIP3   OH211848   1.432   5.393   5.687
 3964TIP3    H111849   1.512   5.365   5.643
 3964TIP3    H211850   1.416   5.481   5.653
 3965TIP3   OH211851   1.609   1.306   5.986
 3965TIP3    H111852   1.535   1.367   5.981
 3965TIP3    H211853   1.677   1.355   6.031
 3966TIP3   OH211854   5.557   4.849   3.102
 3966TIP3    H111855   5.473   4.889   3.121
 3966TIP3    H211856   5.617   4.923   3.090
 3967TIP3   OH211857   5.216   3.167   3.836
 3967TIP3    H111858   5.272   3.190   3.910
 3967TIP3    H211859   5.175   3.084   3.863
 3968TIP3   OH211860   6.060   7.432   0.540
 3968TIP3    H111861   6.086   7.511   0.589
 3968TIP3    H211862   6.076   7.360   0.600
 3969TIP3   OH211863   6.967   4.647   3.530
 3969TIP3    H111864   7.036   4.682   3.587
 3969TIP3    H211865   6.905   4.719   3.522
 3970TIP3   OH211866   0.601   0.604   0.411
 3970TIP3    H111867   0.651   0.534   0.453
 3970TIP3    H211868   0.519   0.608   0.461
 3971TIP3   OH211869   4.666   3.284   2.379
 3971TIP3    H111870   4.647   3.331   2.298
 3971TIP3    H211871   4.636   3.195   2.363
 3972TIP3   OH211872   8.231   4.858   4.480
 3972TIP3    H111873   8.218   4.919   4.553
 3972TIP3    H211874   8.236   4.914   4.403
 3973TIP3   OH211875   0.898   3.534   3.615
 3973TIP3    H111876   0.959   3.498   3.679
 3973TIP3    H211877   0.945   3.530   3.532
 3974TIP3   OH211878   6.406   7.804   6.205
 3974TIP3    H111879   6.427   7.840   6.119
 3974TIP3    H211880   6.342   7.866   6.242
 3975TIP3   OH211881   0.894   0.676   2.434
 3975TIP3    H111882   0.832   0.648   2.366
 3975TIP3    H211883   0.839   0.721   2.499
 3976TIP3   OH211884   3.224   4.306   2.962
 3976TIP3    H111885   3.284   4.232   2.961
 3976TIP3    H211886   3.238   4.349   2.877
 3977TIP3   OH211887   0.877   7.071   5.206
 3977TIP3    H111888   0.925   7.154   5.208
 3977TIP3    H211889   0.886   7.037   5.296
 3978TIP3   OH211890   6.535   2.251   2.043
 3978TIP3    H111891   6.567   2.237   2.132
 3978TIP3    H211892   6.559   2.341   2.022
 3979TIP3   OH211893   6.892   1.062   2.808
 3979TIP3    H111894   6.981   1.088   2.783
 3979TIP3    H211895   6.836   1.127   2.767
 3980TIP3   OH211896   5.147   2.813   2.021
 3980TIP3    H111897   5.237   2.814   1.989
 3980TIP3    H211898   5.105   2.888   1.978
 3981TIP3   OH211899   2.024   3.975   1.478
 3981TIP3    H111900   2.025   4.024   1.561
 3981TIP3    H211901   2.096   4.013   1.428
 3982TIP3   OH211902   2.124   3.486   1.970
 3982TIP3    H111903   2.186   3.519   2.035
 3982TIP3    H211904   2.150   3.529   1.888
 3983TIP3   OH211905   5.095   2.667   0.052
 3983TIP3    H111906   5.038   2.743   0.062
 3983TIP3    H211907   5.090   2.645  -0.041
 3984TIP3   OH211908   4.366   3.133   4.099
 3984TIP3    H111909   4.393   3.168   4.014
 3984TIP3    H211910   4.274   3.160   4.108
 3985TIP3   OH211911   0.443   2.300   0.979
 3985TIP3    H111912   0.423   2.367   1.045
 3985TIP3    H211913   0.433   2.345   0.895
 3986TIP3   OH211914   1.973   6.931   0.980
 3986TIP3    H111915   1.985   6.851   1.032
 3986TIP3    H211916   1.903   6.910   0.919
 3987TIP3   OH211917   8.070   4.702   6.221
 3987TIP3    H111918   8.135   4.741   6.279
 3987TIP3    H211919   8.103   4.614   6.204
 3988TIP3   OH211920   4.436   4.420   4.226
 3988TIP3    H111921   4.374   4.462   4.168
 3988TIP3    H211922   4.522   4.442   4.190
 3989TIP3   OH211923   6.487   4.935   3.937
 3989TIP3    H111924   6.480   4.883   3.857
 3989TIP3    H211925   6.460   5.023   3.910
 3990TIP3   OH211926   5.086   5.077   1.541
 3990TIP3    H111927   5.090   5.172   1.557
 3990TIP3    H211928   5.024   5.045   1.607
 3991TIP3   OH211929   6.960   6.041   4.223
 3991TIP3    H111930   6.911   6.123   4.229
 3991TIP3    H211931   6.989   6.037   4.131
 3992TIP3   OH211932   3.492   3.701   4.497
 3992TIP3    H111933   3.532   3.765   4.438
 3992TIP3    H211934   3.415   3.746   4.532
 3993TIP3   OH211935   2.781   0.173   1.931
 3993TIP3    H111936   2.873   0.190   1.951
 3993TIP3    H211937   2.760   0.093   1.979
 3994TIP3   OH211938   4.420   1.998   1.755
 3994TIP3    H111939   4.352   2.023   1.817
 3994TIP3    H211940   4.443   1.908   1.779
 3995TIP3   OH211941   4.021   7.595   2.193
 3995TIP3    H111942   3.981   7.608   2.279
 3995TIP3    H211943   4.077   7.518   2.204
 3996TIP3   OH211944   1.940   3.020   2.595
 3996TIP3    H111945   1.859   2.995   2.552
 3996TIP3    H211946   2.004   3.030   2.524
 3997TIP3   OH211947   7.361   0.863   5.549
 3997TIP3    H111948   7.338   0.862   5.642
 3997TIP3    H211949   7.336   0.951   5.519
 3998TIP3   OH211950   4.652   5.787   0.090
 3998TIP3    H111951   4.739   5.811   0.123
 3998TIP3    H211952   4.610   5.741   0.163
 3999TIP3   OH211953   1.312   5.729   5.745
 3999TIP3    H111954   1.311   5.768   5.832
 3999TIP3    H211955   1.220   5.725   5.720
 4000TIP3   OH211956   6.194   4.603   5.421
 4000TIP3    H111957   6.161   4.689   5.446
 4000TIP3    H211958   6.230   4.566   5.502
 4001TIP3   OH211959   3.876   4.262   0.117
 4001TIP3    H111960   3.966   4.231   0.129
 4001TIP3    H211961   3.885   4.357   0.103
 4002TIP3   OH211962   3.815   3.403   5.916
 4002TIP3    H111963   3.856   3.318   5.906
 4002TIP3    H211964   3.880   3.456   5.963
 4003TIP3   OH211965   6.002   2.311   6.210
 4003TIP3    H111966   6.056   2.374   6.259
 4003TIP3    H211967   6.032   2.226   6.241
 4004TIP3   OH211968   7.202   2.871   5.304
 4004TIP3    H111969   7.112   2.850   5.332
 4004TIP3    H211970   7.242   2.909   5.382
 4005TIP3   OH211971   4.180   2.634   0.258
 4005TIP3    H111972   4.100   2.586   0.277
 4005TIP3    H211973   4.239   2.612   0.330
 4006TIP3   OH211974   1.411   4.561   2.813
 4006TIP3    H111975   1.345   4.599   2.754
 4006TIP3    H211976   1.399   4.467   2.805
 4007TIP3   OH211977   6.007  -0.008   1.864
 4007TIP3    H111978   5.912  -0.024   1.866
 4007TIP3    H211979   6.036  -0.048   1.783
 4008TIP3   OH211980   7.990   7.389   5.537
 4008TIP3    H111981   7.906   7.435   5.535
 4008TIP3    H211982   8.001   7.365   5.629
 4009TIP3   OH211983   7.498   0.953   4.909
 4009TIP3    H111984   7.579   1.002   4.890
 4009TIP3    H211985   7.507   0.872   4.858
 4010TIP3   OH211986   2.679   3.790   1.237
 4010TIP3    H111987   2.703   3.726   1.304
 4010TIP3    H211988   2.694   3.745   1.154
 4011TIP3   OH211989   1.919   4.947   0.065
 4011TIP3    H111990   1.911   5.017   0.001
 4011TIP3    H211991   1.832   4.906   0.067
 4012TIP3   OH211992   5.850   1.697   3.779
 4012TIP3    H111993   5.845   1.729   3.689
 4012TIP3    H211994   5.943   1.679   3.793
 4013TIP3   OH211995   2.723   4.869   4.379
 4013TIP3    H111996   2.777   4.850   4.302
 4013TIP3    H211997   2.633   4.868   4.346
 4014TIP3   OH211998   4.270   4.012   4.607
 4014TIP3    H111999   4.299   4.097   4.572
 4014TIP3    H212000   4.340   3.987   4.668
 4015TIP3   OH212001   7.581   6.639   3.198
 4015TIP3    H112002   7.634   6.718   3.187
 4015TIP3    H212003   7.557   6.613   3.109
 4016TIP3   OH212004   4.120   6.832   3.937
 4016TIP3    H112005   4.109   6.824   4.032
 4016TIP3    H212006   4.209   6.800   3.920
 4017TIP3   OH212007   5.579   1.584   1.295
 4017TIP3    H112008   5.491   1.602   1.265
 4017TIP3    H212009   5.626   1.553   1.217
 4018TIP3   OH212010   1.965   0.766   0.103
 4018TIP3    H112011   2.022   0.745   0.029
 4018TIP3    H212012   2.024   0.795   0.172
 4019TIP3   OH212013   4.936   2.338   1.042
 4019TIP3    H112014   4.948   2.432   1.056
 4019TIP3    H212015   4.850   2.320   1.081
 4020TIP3   OH212016   4.549   1.153   4.153
 4020TIP3    H112017   4.467   1.104   4.157
 4020TIP3    H212018   4.538   1.211   4.078
 4021TIP3   OH212019   5.593   2.590   0.268
 4021TIP3    H112020   5.522   2.592   0.203
 4021TIP3    H212021   5.634   2.676   0.262
 4022TIP3   OH212022   4.409   1.296   5.095
 4022TIP3    H112023   4.396   1.257   5.181
 4022TIP3    H212024   4.394   1.225   5.033
 4023TIP3   OH212025   3.988   2.202   2.463
 4023TIP3    H112026   4.062   2.198   2.402
 4023TIP3    H212027   3.964   2.294   2.466
 4024TIP3   OH212028   5.293   4.360   3.427
 4024TIP3    H112029   5.272   4.399   3.342
 4024TIP3    H212030   5.375   4.312   3.412
 4025TIP3   OH212031   1.046   6.451   1.509
 4025TIP3    H112032   1.088   6.536   1.515
 4025TIP3    H212033   1.065   6.408   1.592
 4026TIP3   OH212034   0.487   2.111   5.588
 4026TIP3    H112035   0.518   2.025   5.617
 4026TIP3    H212036   0.554   2.142   5.528
 4027TIP3   OH212037   1.769   1.196   3.455
 4027TIP3    H112038   1.808   1.149   3.381
 4027TIP3    H212039   1.679   1.164   3.459
 4028TIP3   OH212040   6.918   3.216   1.916
 4028TIP3    H112041   6.825   3.215   1.895
 4028TIP3    H212042   6.935   3.129   1.952
 4029TIP3   OH212043   0.946   1.120   5.900
 4029TIP3    H112044   0.970   1.031   5.874
 4029TIP3    H212045   0.857   1.131   5.865
 4030TIP3   OH212046   1.660   1.694   3.212
 4030TIP3    H112047   1.627   1.750   3.141
 4030TIP3    H212048   1.672   1.608   3.171
 4031TIP3   OH212049   7.785   5.554   4.667
 4031TIP3    H112050   7.693   5.565   4.646
 4031TIP3    H212051   7.832   5.586   4.590
 4032TIP3   OH212052   1.910   3.825   1.683
 4032TIP3    H112053   1.979   3.835   1.750
 4032TIP3    H212054   1.930   3.893   1.618
 4033TIP3   OH212055   5.253   1.017   1.162
 4033TIP3    H112056   5.265   1.037   1.069
 4033TIP3    H212057   5.253   0.922   1.166
 4034TIP3   OH212058   8.202   4.256   3.754
 4034TIP3    H112059   8.178   4.304   3.833
 4034TIP3    H212060   8.211   4.324   3.687
 4035TIP3   OH212061   3.210   0.629   6.713
 4035TIP3    H112062   3.175   0.601   6.628
 4035TIP3    H212063   3.305   0.619   6.704
 4036TIP3   OH212064   6.444   5.781   1.837
 4036TIP3    H112065   6.506   5.826   1.780
 4036TIP3    H212066   6.402   5.716   1.780
 4037TIP3   OH212067   1.201   6.406   4.107
 4037TIP3    H112068   1.182   6.466   4.035
 4037TIP3    H212069   1.124   6.350   4.113
 4038TIP3   OH212070   6.031   0.663   3.498
 4038TIP3    H112071   6.060   0.582   3.538
 4038TIP3    H212072   6.100   0.686   3.436
 4039TIP3   OH212073   0.473   6.334   1.557
 4039TIP3    H112074   0.520   6.401   1.507
 4039TIP3    H212075   0.395   6.315   1.504
 4040TIP3   OH212076   2.201   2.405   4.765
 4040TIP3    H112077   2.141   2.362   4.826
 4040TIP3    H212078   2.171   2.378   4.678
 4041TIP3   OH212079   1.655   1.853   5.710
 4041TIP3    H112080   1.700   1.784   5.758
 4041TIP3    H212081   1.562   1.835   5.723
 4042TIP3   OH212082   7.920   0.891   3.807
 4042TIP3    H112083   7.917   0.938   3.890
 4042TIP3    H212084   8.013   0.877   3.790
 4043TIP3   OH212085   3.269   2.168   1.391
 4043TIP3    H112086   3.230   2.080   1.395
 4043TIP3    H212087   3.241   2.202   1.306
 4044TIP3   OH212088   0.635   3.131   0.860
 4044TIP3    H112089   0.679   3.200   0.908
 4044TIP3    H212090   0.699   3.059   0.857
 4045TIP3   OH212091   2.328   3.923   1.624
 4045TIP3    H112092   2.258   3.943   1.686
 4045TIP3    H212093   2.305   3.838   1.588
 4046TIP3   OH212094   3.692   1.654   4.964
 4046TIP3    H112095   3.665   1.718   4.898
 4046TIP3    H212096   3.765   1.608   4.924
 4047TIP3   OH212097   4.293   6.711   4.972
 4047TIP3    H112098   4.364   6.767   4.940
 4047TIP3    H212099   4.303   6.630   4.921
 4048TIP3   OH212100   8.284   1.033   4.468
 4048TIP3    H112101   8.326   0.999   4.389
 4048TIP3    H212102   8.191   1.037   4.447
 4049TIP3   OH212103   2.750   1.227   6.644
 4049TIP3    H112104   2.758   1.320   6.665
 4049TIP3    H212105   2.661   1.203   6.668
 4050TIP3   OH212106   6.154   1.118   2.328
 4050TIP3    H112107   6.114   1.058   2.265
 4050TIP3    H212108   6.124   1.204   2.302
 4051TIP3   OH212109   7.954   0.215   2.164
 4051TIP3    H112110   7.943   0.233   2.071
 4051TIP3    H212111   7.972   0.122   2.169
 4052TIP3   OH212112   4.838   3.069   4.966
 4052TIP3    H112113   4.925   3.050   4.930
 4052TIP3    H212114   4.779   3.011   4.916
 4053TIP3   OH212115   5.550   4.898   1.488
 4053TIP3    H112116   5.456   4.894   1.503
 4053TIP3    H212117   5.585   4.940   1.567
 4054TIP3   OH212118   6.398   4.629   1.151
 4054TIP3    H112119   6.485   4.620   1.189
 4054TIP3    H212120   6.339   4.631   1.227
 4055TIP3   OH212121   6.699   0.929   4.405
 4055TIP3    H112122   6.665   1.003   4.354
 4055TIP3    H212123   6.791   0.949   4.420
 4056TIP3   OH212124   3.023   4.782   3.287
 4056TIP3    H112125   3.036   4.765   3.380
 4056TIP3    H212126   3.107   4.817   3.257
 4057TIP3   OH212127   0.501   4.056   2.982
 4057TIP3    H112128   0.474   4.021   3.068
 4057TIP3    H212129   0.430   4.116   2.958
 4058TIP3   OH212130   0.469   2.787   4.231
 4058TIP3    H112131   0.496   2.763   4.320
 4058TIP3    H212132   0.469   2.704   4.184
 4059TIP3   OH212133   2.041   4.067   6.501
 4059TIP3    H112134   2.030   4.041   6.592
 4059TIP3    H212135   2.126   4.030   6.476
 4060TIP3   OH212136   3.782   1.706   5.245
 4060TIP3    H112137   3.706   1.685   5.190
 4060TIP3    H212138   3.749   1.766   5.311
 4061TIP3   OH212139   5.545   4.722   6.369
 4061TIP3    H112140   5.529   4.676   6.451
 4061TIP3    H212141   5.602   4.794   6.393
 4062TIP3   OH212142   5.861   3.398   6.285
 4062TIP3    H112143   5.907   3.378   6.204
 4062TIP3    H212144   5.816   3.480   6.268
 4063TIP3   OH212145   7.348   1.132   3.329
 4063TIP3    H112146   7.411   1.084   3.382
 4063TIP3    H212147   7.269   1.136   3.383
 4064TIP3   OH212148   3.543   6.199   3.010
 4064TIP3    H112149   3.518   6.143   2.937
 4064TIP3    H212150   3.465   6.250   3.030
 4065TIP3   OH212151   0.424   3.208   5.013
 4065TIP3    H112152   0.458   3.177   4.929
 4065TIP3    H212153   0.363   3.141   5.041
 4066TIP3   OH212154   4.529   2.524   0.675
 4066TIP3    H112155   4.603   2.581   0.698
 4066TIP3    H212156   4.558   2.476   0.598
 4067TIP3   OH212157   3.990   3.909   4.907
 4067TIP3    H112158   4.073   3.920   4.953
 4067TIP3    H212159   3.925   3.949   4.964
 4068TIP3   OH212160   2.216   1.969   6.052
 4068TIP3    H112161   2.171   2.013   5.979
 4068TIP3    H212162   2.154   1.973   6.124
 4069TIP3   OH212163   6.181   6.288   5.190
 4069TIP3    H112164   6.123   6.337   5.248
 4069TIP3    H212165   6.137   6.204   5.176
 4070TIP3   OH212166   7.168   6.407   4.299
 4070TIP3    H112167   7.169   6.469   4.227
 4070TIP3    H212168   7.082   6.417   4.339
 4071TIP3   OH212169   5.796   7.540   3.937
 4071TIP3    H112170   5.792   7.534   4.033
 4071TIP3    H212171   5.741   7.616   3.916
 4072TIP3   OH212172   7.098   1.522   2.349
 4072TIP3    H112173   7.010   1.490   2.328
 4072TIP3    H212174   7.103   1.607   2.304
 4073TIP3   OH212175   5.476   3.414   4.435
 4073TIP3    H112176   5.538   3.483   4.410
 4073TIP3    H212177   5.454   3.434   4.526
 4074TIP3   OH212178   6.841   2.330   2.152
 4074TIP3    H112179   6.919   2.349   2.204
 4074TIP3    H212180   6.770   2.324   2.215
 4075TIP3   OH212181   7.719   3.816   5.189
 4075TIP3    H112182   7.797   3.762   5.201
 4075TIP3    H212183   7.670   3.772   5.119
 4076TIP3   OH212184   8.245   7.307   3.918
 4076TIP3    H112185   8.332   7.269   3.904
 4076TIP3    H212186   8.218   7.274   4.004
 4077TIP3   OH212187   4.233   3.652   6.088
 4077TIP3    H112188   4.318   3.623   6.056
 4077TIP3    H212189   4.253   3.719   6.153
 4078TIP3   OH212190   7.902   5.586   6.134
 4078TIP3    H112191   7.813   5.558   6.111
 4078TIP3    H212192   7.950   5.504   6.149
 4079TIP3   OH212193   5.491   6.157   2.307
 4079TIP3    H112194   5.422   6.217   2.279
 4079TIP3    H212195   5.528   6.123   2.226
 4080TIP3   OH212196   6.793  -0.056   5.235
 4080TIP3    H112197   6.761   0.032   5.214
 4080TIP3    H212198   6.721  -0.097   5.282
 4081TIP3   OH212199   0.288   0.766   4.273
 4081TIP3    H112200   0.247   0.849   4.250
 4081TIP3    H212201   0.379   0.775   4.245
 4082TIP3   OH212202   3.508   6.166   1.380
 4082TIP3    H112203   3.586   6.193   1.429
 4082TIP3    H212204   3.436   6.211   1.424
 4083TIP3   OH212205   0.924   0.992   2.002
 4083TIP3    H112206   0.898   0.913   2.051
 4083TIP3    H212207   0.842   1.035   1.980
 4084TIP3   OH212208   1.336   6.514   6.134
 4084TIP3    H112209   1.248   6.482   6.112
 4084TIP3    H212210   1.340   6.510   6.229
 4085TIP3   OH212211   7.549   0.348   4.858
 4085TIP3    H112212   7.557   0.253   4.863
 4085TIP3    H212213   7.637   0.378   4.833
 4086TIP3   OH212214   3.432   6.104   4.246
 4086TIP3    H112215   3.426   6.196   4.221
 4086TIP3    H212216   3.351   6.065   4.212
 4087TIP3   OH212217   2.443   6.858   3.518
 4087TIP3    H112218   2.431   6.785   3.579
 4087TIP3    H212219   2.355   6.878   3.487
 4088TIP3   OH212220   1.773   0.748   2.559
 4088TIP3    H112221   1.836   0.815   2.587
 4088TIP3    H212222   1.794   0.671   2.612
 4089TIP3   OH212223   4.172   4.415   2.085
 4089TIP3    H112224   4.229   4.346   2.120
 4089TIP3    H212225   4.208   4.434   1.999
 4090TIP3   OH212226   1.646   2.509   0.802
 4090TIP3    H112227   1.580   2.450   0.838
 4090TIP3    H212228   1.612   2.597   0.818
 4091TIP3   OH212229   2.938   5.753   1.365
 4091TIP3    H112230   2.878   5.825   1.344
 4091TIP3    H212231   3.025   5.793   1.358
 4092TIP3   OH212232   7.189   5.310   1.849
 4092TIP3    H112233   7.272   5.355   1.831
 4092TIP3    H212234   7.162   5.345   1.934
 4093TIP3   OH212235   2.708   1.770   5.815
 4093TIP3    H112236   2.796   1.766   5.778
 4093TIP3    H212237   2.700   1.691   5.869
 4094TIP3   OH212238   2.439   4.230   2.753
 4094TIP3    H112239   2.464   4.184   2.833
 4094TIP3    H212240   2.513   4.288   2.734
 4095TIP3   OH212241   0.899   2.225   0.520
 4095TIP3    H112242   0.850   2.210   0.440
 4095TIP3    H212243   0.845   2.286   0.571
 4096TIP3   OH212244   4.013   2.877   5.122
 4096TIP3    H112245   4.095   2.916   5.090
 4096TIP3    H212246   4.013   2.788   5.084
 4097TIP3   OH212247   6.708   3.901   1.088
 4097TIP3    H112248   6.667   3.972   1.136
 4097TIP3    H212249   6.793   3.936   1.062
 4098TIP3   OH212250   3.382   2.346   3.798
 4098TIP3    H112251   3.462   2.395   3.779
 4098TIP3    H212252   3.321   2.411   3.830
 4099TIP3   OH212253   3.594   4.342   6.336
 4099TIP3    H112254   3.529   4.274   6.318
 4099TIP3    H212255   3.558   4.421   6.297
 4100TIP3   OH212256   1.396   1.795   5.749
 4100TIP3    H112257   1.362   1.882   5.772
 4100TIP3    H212258   1.324   1.735   5.770
 4101TIP3   OH212259   3.149   0.478   2.263
 4101TIP3    H112260   3.203   0.400   2.276
 4101TIP3    H212261   3.061   0.444   2.252
 4102TIP3   OH212262   5.158   4.917   4.325
 4102TIP3    H112263   5.153   5.004   4.365
 4102TIP3    H212264   5.100   4.863   4.379
 4103TIP3   OH212265   0.572   2.925   1.109
 4103TIP3    H112266   0.607   2.886   1.029
 4103TIP3    H212267   0.497   2.977   1.079
 4104TIP3   OH212268   5.954   5.244   1.499
 4104TIP3    H112269   5.880   5.207   1.452
 4104TIP3    H212270   5.926   5.333   1.521
 4105TIP3   OH212271   2.582   2.992   5.548
 4105TIP3    H112272   2.663   3.001   5.499
 4105TIP3    H212273   2.566   3.078   5.587
 4106TIP3   OH212274   4.293   7.009   4.820
 4106TIP3    H112275   4.283   6.959   4.738
 4106TIP3    H212276   4.371   6.972   4.861
 4107TIP3   OH212277   3.561   3.742   5.408
 4107TIP3    H112278   3.638   3.750   5.464
 4107TIP3    H212279   3.584   3.672   5.346
 4108TIP3   OH212280   3.230   4.178   3.261
 4108TIP3    H112281   3.211   4.264   3.300
 4108TIP3    H212282   3.286   4.135   3.325
 4109TIP3   OH212283   5.539   5.215   1.258
 4109TIP3    H112284   5.474   5.149   1.284
 4109TIP3    H212285   5.494   5.269   1.193
 4110TIP3   OH212286   3.928   1.613   6.082
 4110TIP3    H112287   3.910   1.660   6.164
 4110TIP3    H212288   3.994   1.666   6.038
 4111TIP3   OH212289   6.252   7.372   3.487
 4111TIP3    H112290   6.309   7.296   3.500
 4111TIP3    H212291   6.164   7.336   3.490
 4112TIP3   OH212292   4.935   0.780   0.398
 4112TIP3    H112293   4.868   0.713   0.385
 4112TIP3    H212294   5.007   0.753   0.341
 4113TIP3   OH212295   5.236   5.291   0.455
 4113TIP3    H112296   5.153   5.263   0.493
 4113TIP3    H212297   5.262   5.218   0.399
 4114TIP3   OH212298   3.437   1.096   0.452
 4114TIP3    H112299   3.492   1.174   0.454
 4114TIP3    H212300   3.405   1.087   0.542
 4115TIP3   OH212301   5.607   5.058   3.595
 4115TIP3    H112302   5.671   5.046   3.664
 4115TIP3    H212303   5.522   5.054   3.640
 4116TIP3   OH212304   2.714   4.401   1.728
 4116TIP3    H112305   2.759   4.356   1.800
 4116TIP3    H212306   2.764   4.378   1.650
 4117TIP3   OH212307   0.413   0.826   0.920
 4117TIP3    H112308   0.344   0.823   0.987
 4117TIP3    H212309   0.365   0.842   0.839
 4118TIP3   OH212310   1.494   3.981   0.607
 4118TIP3    H112311   1.512   3.892   0.579
 4118TIP3    H212312   1.576   4.028   0.593
 4119TIP3   OH212313   7.758   5.346   0.871
 4119TIP3    H112314   7.755   5.333   0.777
 4119TIP3    H212315   7.672   5.319   0.902
 4120TIP3   OH212316   5.505   4.185   3.361
 4120TIP3    H112317   5.505   4.123   3.288
 4120TIP3    H212318   5.542   4.135   3.434
 4121TIP3   OH212319   0.339   0.373   5.290
 4121TIP3    H112320   0.326   0.459   5.251
 4121TIP3    H212321   0.303   0.311   5.226
 4122TIP3   OH212322   5.862   2.850   1.803
 4122TIP3    H112323   5.828   2.771   1.845
 4122TIP3    H212324   5.953   2.853   1.830
 4123TIP3   OH212325   0.380   2.717   3.865
 4123TIP3    H112326   0.392   2.675   3.780
 4123TIP3    H212327   0.308   2.779   3.851
 4124TIP3   OH212328   3.177   4.883   6.222
 4124TIP3    H112329   3.164   4.969   6.262
 4124TIP3    H212330   3.271   4.878   6.204
 4125TIP3   OH212331   4.204   2.786   5.901
 4125TIP3    H112332   4.154   2.827   5.831
 4125TIP3    H212333   4.250   2.858   5.943
 4126TIP3   OH212334   3.721   3.480   2.016
 4126TIP3    H112335   3.646   3.479   2.074
 4126TIP3    H212336   3.783   3.540   2.056
 4127TIP3   OH212337   7.995   0.162   6.219
 4127TIP3    H112338   8.023   0.251   6.197
 4127TIP3    H212339   7.900   0.164   6.212
 4128TIP3   OH212340   3.143   4.791   0.386
 4128TIP3    H112341   3.067   4.821   0.435
 4128TIP3    H212342   3.175   4.869   0.340
 4129TIP3   OH212343   8.153   4.114   3.485
 4129TIP3    H112344   8.226   4.152   3.437
 4129TIP3    H212345   8.167   4.019   3.481
 4130TIP3   OH212346   3.448   0.463   3.272
 4130TIP3    H112347   3.528   0.484   3.225
 4130TIP3    H212348   3.387   0.435   3.203
 4131TIP3   OH212349   0.972   6.229   5.790
 4131TIP3    H112350   0.988   6.162   5.856
 4131TIP3    H212351   0.899   6.194   5.738
 4132TIP3   OH212352   5.378   2.100   3.849
 4132TIP3    H112353   5.286   2.076   3.843
 4132TIP3    H212354   5.410   2.097   3.758
 4133TIP3   OH212355   7.512   5.087   5.735
 4133TIP3    H112356   7.518   5.156   5.668
 4133TIP3    H212357   7.544   5.129   5.815
 4134TIP3   OH212358   4.341   0.203   2.264
 4134TIP3    H112359   4.282   0.128   2.259
 4134TIP3    H212360   4.345   0.236   2.174
 4135TIP3   OH212361   2.606   7.533   0.904
 4135TIP3    H112362   2.574   7.618   0.875
 4135TIP3    H212363   2.575   7.471   0.838
 4136TIP3   OH212364   2.111   1.153   1.256
 4136TIP3    H112365   2.121   1.059   1.246
 4136TIP3    H212366   2.083   1.165   1.347
 4137TIP3   OH212367   6.543   1.038   6.515
 4137TIP3    H112368   6.606   1.073   6.579
 4137TIP3    H212369   6.458   1.046   6.559
 4138TIP3   OH212370   0.838   2.443   1.615
 4138TIP3    H112371   0.768   2.440   1.550
 4138TIP3    H212372   0.815   2.374   1.678
 4139TIP3   OH212373   2.809   4.606   3.434
 4139TIP3    H112374   2.716   4.625   3.445
 4139TIP3    H212375   2.853   4.655   3.504
 4140TIP3   OH212376   6.681   7.285   0.872
 4140TIP3    H112377   6.758   7.287   0.814
 4140TIP3    H212378   6.718   7.267   0.959
 4141TIP3   OH212379   1.629   1.277   5.434
 4141TIP3    H112380   1.713   1.323   5.432
 4141TIP3    H212381   1.591   1.302   5.519
 4142TIP3   OH212382   2.582   0.594   5.523
 4142TIP3    H112383   2.673   0.564   5.511
 4142TIP3    H212384   2.572   0.664   5.459
 4143TIP3   OH212385   5.061   1.955   5.631
 4143TIP3    H112386   5.043   1.879   5.576
 4143TIP3    H212387   4.975   1.989   5.656
 4144TIP3   OH212388   0.597   4.004   2.034
 4144TIP3    H112389   0.629   4.058   2.107
 4144TIP3    H212390   0.506   3.983   2.057
 4145TIP3   OH212391   5.201   7.286   0.641
 4145TIP3    H112392   5.121   7.303   0.689
 4145TIP3    H212393   5.172   7.263   0.552
 4146TIP3   OH212394   1.704   5.127   5.121
 4146TIP3    H112395   1.701   5.055   5.184
 4146TIP3    H212396   1.754   5.195   5.165
 4147TIP3   OH212397   4.756   7.693   2.436
 4147TIP3    H112398   4.816   7.679   2.362
 4147TIP3    H212399   4.803   7.752   2.495
 4148TIP3   OH212400   3.683   6.853   4.913
 4148TIP3    H112401   3.665   6.947   4.911
 4148TIP3    H212402   3.601   6.812   4.938
 4149TIP3   OH212403   2.173   3.305   1.339
 4149TIP3    H112404   2.104   3.296   1.405
 4149TIP3    H212405   2.138   3.259   1.262
 4150TIP3   OH212406   3.492   0.434   5.648
 4150TIP3    H112407   3.540   0.375   5.590
 4150TIP3    H212408   3.533   0.422   5.734
 4151TIP3   OH212409   8.231   4.501   0.509
 4151TIP3    H112410   8.262   4.484   0.420
 4151TIP3    H212411   8.239   4.596   0.520
 4152TIP3   OH212412   7.131   6.896   4.744
 4152TIP3    H112413   7.201   6.961   4.751
 4152TIP3    H212414   7.170   6.815   4.775
 4153TIP3   OH212415   1.268   3.409   5.164
 4153TIP3    H112416   1.311   3.399   5.249
 4153TIP3    H212417   1.181   3.372   5.178
 4154TIP3   OH212418   4.493   3.725   4.954
 4154TIP3    H112419   4.411   3.678   4.937
 4154TIP3    H212420   4.541   3.719   4.872
 4155TIP3   OH212421   6.824   7.611   6.096
 4155TIP3    H112422   6.840   7.581   6.007
 4155TIP3    H212423   6.856   7.701   6.097
 4156TIP3   OH212424   8.083   7.785   2.465
 4156TIP3    H112425   8.178   7.800   2.469
 4156TIP3    H212426   8.044   7.868   2.493
 4157TIP3   OH212427   2.747   3.875   0.495
 4157TIP3    H112428   2.692   3.838   0.564
 4157TIP3    H212429   2.687   3.929   0.443
 4158TIP3   OH212430   0.045   1.661   1.769
 4158TIP3    H112431  -0.023   1.594   1.756
 4158TIP3    H212432   0.090   1.633   1.849
 4159TIP3   OH212433   6.502   0.429   4.825
 4159TIP3    H112434   6.505   0.524   4.834
 4159TIP3    H212435   6.546   0.396   4.903
 4160TIP3   OH212436   1.631   3.777   1.772
 4160TIP3    H112437   1.643   3.682   1.773
 4160TIP3    H212438   1.717   3.812   1.747
 4161TIP3   OH212439   1.808   6.038   3.147
 4161TIP3    H112440   1.846   6.039   3.059
 4161TIP3    H212441   1.883   6.031   3.206
 4162TIP3   OH212442   1.292   4.380   6.632
 4162TIP3    H112443   1.344   4.338   6.563
 4162TIP3    H212444   1.204   4.343   6.621
 4163TIP3   OH212445   5.307   6.617   3.281
 4163TIP3    H112446   5.275   6.619   3.371
 4163TIP3    H212447   5.235   6.580   3.231
 4164TIP3   OH212448   0.898   4.430   5.198
 4164TIP3    H112449   0.826   4.415   5.137
 4164TIP3    H212450   0.928   4.342   5.222
 4165TIP3   OH212451   4.094   2.041   2.185
 4165TIP3    H112452   4.015   1.998   2.217
 4165TIP3    H212453   4.145   2.060   2.264
 4166TIP3   OH212454   5.379   0.019   2.947
 4166TIP3    H112455   5.291   0.016   2.983
 4166TIP3    H212456   5.393   0.111   2.925
 4167TIP3   OH212457   6.169   5.151   2.454
 4167TIP3    H112458   6.087   5.118   2.418
 4167TIP3    H212459   6.183   5.100   2.534
 4168TIP3   OH212460   5.354   2.591   0.105
 4168TIP3    H112461   5.338   2.509   0.151
 4168TIP3    H212462   5.268   2.619   0.074
 4169TIP3   OH212463   2.664   1.963   2.428
 4169TIP3    H112464   2.744   2.010   2.404
 4169TIP3    H212465   2.596   2.030   2.430
 4170TIP3   OH212466   5.977   7.206   6.342
 4170TIP3    H112467   6.031   7.200   6.263
 4170TIP3    H212468   6.005   7.132   6.396
 4171TIP3   OH212469   6.336   2.437   4.043
 4171TIP3    H112470   6.377   2.358   4.007
 4171TIP3    H212471   6.406   2.480   4.093
 4172TIP3   OH212472   4.475   4.715   4.415
 4172TIP3    H112473   4.484   4.624   4.386
 4172TIP3    H212474   4.562   4.753   4.403
 4173TIP3   OH212475   4.893   6.066   3.652
 4173TIP3    H112476   4.812   6.018   3.671
 4173TIP3    H212477   4.924   6.093   3.739
 4174TIP3   OH212478   2.440   0.326   4.870
 4174TIP3    H112479   2.407   0.237   4.861
 4174TIP3    H212480   2.526   0.316   4.911
 4175TIP3   OH212481   7.821   1.530   4.071
 4175TIP3    H112482   7.733   1.525   4.032
 4175TIP3    H212483   7.838   1.442   4.105
 4176TIP3   OH212484   2.093  -0.053   0.617
 4176TIP3    H112485   2.114   0.037   0.593
 4176TIP3    H212486   2.004  -0.066   0.587
 4177TIP3   OH212487   3.418   3.482   2.854
 4177TIP3    H112488   3.463   3.558   2.892
 4177TIP3    H212489   3.477   3.409   2.872
 4178TIP3   OH212490   0.037   0.892   6.385
 4178TIP3    H112491   0.097   0.838   6.334
 4178TIP3    H212492   0.066   0.881   6.476
 4179TIP3   OH212493   0.846   4.013   5.937
 4179TIP3    H112494   0.826   4.010   5.844
 4179TIP3    H212495   0.830   4.103   5.963
 4180TIP3   OH212496   5.671   6.095   6.665
 4180TIP3    H112497   5.718   6.017   6.696
 4180TIP3    H212498   5.579   6.077   6.687
 4181TIP3   OH212499   1.591   1.045   5.876
 4181TIP3    H112500   1.660   0.983   5.902
 4181TIP3    H212501   1.627   1.131   5.898
 4182TIP3   OH212502   7.810   7.679   1.181
 4182TIP3    H112503   7.854   7.660   1.098
 4182TIP3    H212504   7.809   7.595   1.227
 4183TIP3   OH212505   6.552   7.388   3.438
 4183TIP3    H112506   6.568   7.461   3.497
 4183TIP3    H212507   6.486   7.421   3.377
 4184TIP3   OH212508   7.100   5.285   0.346
 4184TIP3    H112509   7.050   5.335   0.410
 4184TIP3    H212510   7.183   5.265   0.390
 4185TIP3   OH212511   4.019   4.523   2.369
 4185TIP3    H112512   4.067   4.571   2.301
 4185TIP3    H212513   4.064   4.439   2.375
 4186TIP3   OH212514   4.696   5.676   2.934
 4186TIP3    H112515   4.701   5.746   2.869
 4186TIP3    H212516   4.786   5.667   2.966
 4187TIP3   OH212517   7.973   7.439   6.058
 4187TIP3    H112518   7.997   7.518   6.107
 4187TIP3    H212519   8.019   7.368   6.103
 4188TIP3   OH212520   3.534   2.663   1.538
 4188TIP3    H112521   3.576   2.693   1.458
 4188TIP3    H212522   3.475   2.592   1.509
 4189TIP3   OH212523   8.031   7.200   6.154
 4189TIP3    H112524   8.115   7.159   6.136
 4189TIP3    H212525   8.034   7.222   6.248
 4190TIP3   OH212526   7.846   4.174   0.714
 4190TIP3    H112527   7.940   4.187   0.703
 4190TIP3    H212528   7.811   4.261   0.730
 4191TIP3   OH212529   2.676   6.104   5.672
 4191TIP3    H112530   2.739   6.168   5.639
 4191TIP3    H212531   2.720   6.020   5.659
 4192TIP3   OH212532   2.112   4.988   2.097
 4192TIP3    H112533   2.024   5.009   2.067
 4192TIP3    H212534   2.126   5.045   2.172
 4193TIP3   OH212535   5.582   1.925   6.356
 4193TIP3    H112536   5.627   1.933   6.440
 4193TIP3    H212537   5.632   1.981   6.296
 4194TIP3   OH212538   4.648   4.803   1.293
 4194TIP3    H112539   4.677   4.793   1.384
 4194TIP3    H212540   4.645   4.714   1.259
 4195TIP3   OH212541   0.521   3.306   1.923
 4195TIP3    H112542   0.537   3.296   1.829
 4195TIP3    H212543   0.505   3.218   1.954
 4196TIP3   OH212544   4.965   3.765   3.090
 4196TIP3    H112545   5.034   3.789   3.029
 4196TIP3    H212546   4.990   3.806   3.173
 4197TIP3   OH212547   3.427   0.718   3.738
 4197TIP3    H112548   3.353   0.768   3.705
 4197TIP3    H212549   3.503   0.775   3.724
 4198TIP3   OH212550   2.484   5.970   6.199
 4198TIP3    H112551   2.396   5.944   6.172
 4198TIP3    H212552   2.527   5.889   6.226
 4199TIP3   OH212553   7.061   3.629   4.533
 4199TIP3    H112554   6.969   3.605   4.524
 4199TIP3    H212555   7.059   3.716   4.573
 4200TIP3   OH212556   4.107   1.003   0.497
 4200TIP3    H112557   4.061   0.919   0.500
 4200TIP3    H212558   4.147   1.011   0.584
 4201TIP3   OH212559   4.199   2.059   0.243
 4201TIP3    H112560   4.152   1.975   0.246
 4201TIP3    H212561   4.138   2.119   0.201
 4202TIP3   OH212562   5.169   7.147   5.328
 4202TIP3    H112563   5.235   7.202   5.285
 4202TIP3    H212564   5.201   7.058   5.317
 4203TIP3   OH212565   5.240   7.146   3.853
 4203TIP3    H112566   5.305   7.085   3.887
 4203TIP3    H212567   5.260   7.229   3.895
 4204TIP3   OH212568   7.453   5.983   0.743
 4204TIP3    H112569   7.482   5.947   0.659
 4204TIP3    H212570   7.493   5.927   0.809
 4205TIP3   OH212571   3.469   1.847   1.810
 4205TIP3    H112572   3.517   1.767   1.832
 4205TIP3    H212573   3.497   1.868   1.721
 4206TIP3   OH212574   5.295   0.510   0.825
 4206TIP3    H112575   5.231   0.460   0.876
 4206TIP3    H212576   5.285   0.600   0.857
 4207TIP3   OH212577   4.581   1.973   6.713
 4207TIP3    H112578   4.571   1.941   6.623
 4207TIP3    H212579   4.669   1.947   6.738
 4208TIP3   OH212580   4.034   0.094   6.122
 4208TIP3    H112581   3.961   0.032   6.132
 4208TIP3    H212582   4.030   0.148   6.201
 4209TIP3   OH212583   6.956   7.285   3.115
 4209TIP3    H112584   6.924   7.248   3.197
 4209TIP3    H212585   6.878   7.290   3.059
 4210TIP3   OH212586   1.476   1.475   0.121
 4210TIP3    H112587   1.393   1.520   0.109
 4210TIP3    H212588   1.542   1.535   0.086
 4211TIP3   OH212589   6.319   4.193   4.569
 4211TIP3    H112590   6.286   4.254   4.635
 4211TIP3    H212591   6.311   4.107   4.610
 4212TIP3   OH212592   3.389   5.416   1.342
 4212TIP3    H112593   3.307   5.433   1.389
 4212TIP3    H212594   3.457   5.454   1.397
 4213TIP3   OH212595   4.246   5.454   2.394
 4213TIP3    H112596   4.328   5.497   2.368
 4213TIP3    H212597   4.272   5.395   2.465
 4214TIP3   OH212598   7.208   3.764   5.755
 4214TIP3    H112599   7.204   3.826   5.682
 4214TIP3    H212600   7.171   3.812   5.829
 4215TIP3   OH212601   3.512   4.897   2.055
 4215TIP3    H112602   3.563   4.874   2.133
 4215TIP3    H212603   3.475   4.984   2.075
 4216TIP3   OH212604   2.965   4.947   2.010
 4216TIP3    H112605   3.041   4.977   1.961
 4216TIP3    H212606   2.977   4.853   2.019
 4217TIP3   OH212607   7.013   3.389   3.918
 4217TIP3    H112608   7.107   3.403   3.903
 4217TIP3    H212609   6.994   3.436   3.999
 4218TIP3   OH212610   7.799   2.044   3.377
 4218TIP3    H112611   7.801   2.126   3.425
 4218TIP3    H212612   7.844   1.981   3.433
 4219TIP3   OH212613   0.234   5.438   3.060
 4219TIP3    H112614   0.145   5.462   3.085
 4219TIP3    H212615   0.289   5.505   3.101
 4220TIP3   OH212616   2.537   7.060   2.942
 4220TIP3    H112617   2.618   7.009   2.936
 4220TIP3    H212618   2.555   7.125   3.010
 4221TIP3   OH212619   3.794   5.928   5.331
 4221TIP3    H112620   3.858   5.956   5.266
 4221TIP3    H212621   3.710   5.933   5.285
 4222TIP3   OH212622   5.848   5.004   3.476
 4222TIP3    H112623   5.755   5.011   3.499
 4222TIP3    H212624   5.865   4.910   3.475
 4223TIP3   OH212625   8.135   6.740   0.780
 4223TIP3    H112626   8.192   6.665   0.797
 4223TIP3    H212627   8.094   6.758   0.864
 4224TIP3   OH212628   7.923   7.714   5.881
 4224TIP3    H112629   7.973   7.708   5.800
 4224TIP3    H212630   7.988   7.710   5.951
 4225TIP3   OH212631   1.057   6.784   1.054
 4225TIP3    H112632   1.102   6.722   1.112
 4225TIP3    H212633   0.964   6.769   1.070
 4226TIP3   OH212634   2.181   5.281   4.625
 4226TIP3    H112635   2.247   5.264   4.692
 4226TIP3    H212636   2.231   5.306   4.548
 4227TIP3   OH212637   6.050   2.710   1.472
 4227TIP3    H112638   5.993   2.742   1.542
 4227TIP3    H212639   6.026   2.763   1.396
 4228TIP3   OH212640   6.689   4.590   5.224
 4228TIP3    H112641   6.594   4.597   5.223
 4228TIP3    H212642   6.706   4.499   5.247
 4229TIP3   OH212643   4.978   3.923   3.308
 4229TIP3    H112644   4.896   3.971   3.318
 4229TIP3    H212645   5.042   3.975   3.356
 4230TIP3   OH212646   6.694   0.199   5.248
 4230TIP3    H112647   6.625   0.176   5.311
 4230TIP3    H212648   6.750   0.260   5.296
 4231TIP3   OH212649   8.031   6.952   4.582
 4231TIP3    H112650   7.988   6.975   4.499
 4231TIP3    H212651   8.005   6.862   4.599
 4232TIP3   OH212652   6.954   4.419   1.994
 4232TIP3    H112653   6.925   4.502   1.958
 4232TIP3    H212654   7.028   4.393   1.939
 4233TIP3   OH212655   3.492   2.960   0.503
 4233TIP3    H112656   3.413   3.011   0.519
 4233TIP3    H212657   3.549   2.979   0.578
 4234TIP3   OH212658   7.368   7.109   0.655
 4234TIP3    H112659   7.438   7.173   0.647
 4234TIP3    H212660   7.296   7.145   0.602
 4235TIP3   OH212661   3.244   6.800   2.520
 4235TIP3    H112662   3.324   6.845   2.494
 4235TIP3    H212663   3.248   6.716   2.475
 4236TIP3   OH212664   2.924   6.982   3.235
 4236TIP3    H112665   2.924   7.053   3.299
 4236TIP3    H212666   3.008   6.991   3.189
 4237TIP3   OH212667   3.336   2.132   6.588
 4237TIP3    H112668   3.259   2.177   6.554
 4237TIP3    H212669   3.410   2.170   6.540
 4238TIP3   OH212670   5.403   0.458   3.500
 4238TIP3    H112671   5.412   0.368   3.530
 4238TIP3    H212672   5.336   0.454   3.431
 4239TIP3   OH212673   6.854   2.013   4.510
 4239TIP3    H112674   6.896   2.059   4.438
 4239TIP3    H212675   6.923   2.002   4.576
 4240TIP3   OH212676   8.029   6.593   3.382
 4240TIP3    H112677   8.120   6.623   3.388
 4240TIP3    H212678   8.022   6.557   3.294
 4241TIP3   OH212679   5.088   5.722   0.153
 4241TIP3    H112680   5.151   5.665   0.108
 4241TIP3    H212681   5.101   5.808   0.112
 4242TIP3   OH212682   5.093   2.344   0.539
 4242TIP3    H112683   5.101   2.439   0.543
 4242TIP3    H212684   5.004   2.328   0.507
 4243TIP3   OH212685   3.494   1.345   6.382
 4243TIP3    H112686   3.539   1.266   6.354
 4243TIP3    H212687   3.539   1.416   6.337
 4244TIP3   OH212688   4.789   4.782   4.689
 4244TIP3    H112689   4.698   4.754   4.678
 4244TIP3    H212690   4.797   4.859   4.633
 4245TIP3   OH212691   0.348   6.859   4.938
 4245TIP3    H112692   0.261   6.835   4.904
 4245TIP3    H212693   0.329   6.912   5.015
 4246TIP3   OH212694   5.637   2.204   2.303
 4246TIP3    H112695   5.689   2.127   2.278
 4246TIP3    H212696   5.637   2.203   2.398
 4247TIP3   OH212697   4.103   2.414   3.802
 4247TIP3    H112698   4.156   2.487   3.771
 4247TIP3    H212699   4.165   2.340   3.805
 4248TIP3   OH212700   0.801   2.861   2.478
 4248TIP3    H112701   0.761   2.832   2.560
 4248TIP3    H212702   0.878   2.911   2.506
 4249TIP3   OH212703   5.896   3.737   2.671
 4249TIP3    H112704   5.812   3.781   2.687
 4249TIP3    H212705   5.955   3.773   2.737
 4250TIP3   OH212706   7.243   3.897   6.394
 4250TIP3    H112707   7.164   3.935   6.355
 4250TIP3    H212708   7.259   3.949   6.472
 4251TIP3   OH212709   3.332   0.319   3.513
 4251TIP3    H112710   3.320   0.234   3.472
 4251TIP3    H212711   3.424   0.341   3.496
 4252TIP3   OH212712  -0.023   4.340   6.062
 4252TIP3    H112713  -0.006   4.422   6.017
 4252TIP3    H212714  -0.056   4.366   6.148
 4253TIP3   OH212715   5.220   6.341   2.643
 4253TIP3    H112716   5.222   6.434   2.618
 4253TIP3    H212717   5.199   6.294   2.563
 4254TIP3   OH212718   7.775   6.757   1.152
 4254TIP3    H112719   7.712   6.692   1.120
 4254TIP3    H212720   7.724   6.838   1.161
 4255TIP3   OH212721   6.706   4.827   5.827
 4255TIP3    H112722   6.632   4.774   5.856
 4255TIP3    H212723   6.757   4.843   5.906
 4256TIP3   OH212724   3.310   0.526   3.904
 4256TIP3    H112725   3.359   0.594   3.857
 4256TIP3    H212726   3.246   0.494   3.842
 4257TIP3   OH212727   5.052   5.716   2.096
 4257TIP3    H112728   5.007   5.799   2.113
 4257TIP3    H212729   5.104   5.701   2.175
 4258TIP3   OH212730   3.000   3.807   4.426
 4258TIP3    H112731   2.928   3.779   4.368
 4258TIP3    H212732   3.048   3.726   4.444
 4259TIP3   OH212733   4.123   1.665   1.271
 4259TIP3    H112734   4.057   1.688   1.206
 4259TIP3    H212735   4.082   1.685   1.355
 4260TIP3   OH212736   7.128   4.065   0.730
 4260TIP3    H112737   7.153   4.135   0.790
 4260TIP3    H212738   7.034   4.080   0.713
 4261TIP3   OH212739   5.786   0.108   0.059
 4261TIP3    H112740   5.822   0.188   0.022
 4261TIP3    H212741   5.694   0.108   0.031
 4262TIP3   OH212742   1.442   5.188   3.125
 4262TIP3    H112743   1.466   5.270   3.167
 4262TIP3    H212744   1.350   5.199   3.102
 4263TIP3   OH212745   5.573   3.172   5.257
 4263TIP3    H112746   5.649   3.224   5.283
 4263TIP3    H212747   5.570   3.179   5.162
 4264TIP3   OH212748   1.511   7.700   5.398
 4264TIP3    H112749   1.581   7.649   5.439
 4264TIP3    H212750   1.555   7.755   5.333
 4265TIP3   OH212751   4.883   5.515   0.264
 4265TIP3    H112752   4.915   5.559   0.185
 4265TIP3    H212753   4.920   5.427   0.257
 4266TIP3   OH212754   7.873   5.640   0.616
 4266TIP3    H112755   7.894   5.697   0.543
 4266TIP3    H212756   7.940   5.660   0.682
 4267TIP3   OH212757   0.267   6.614   3.046
 4267TIP3    H112758   0.185   6.587   3.007
 4267TIP3    H212759   0.331   6.608   2.974
 4268TIP3   OH212760   6.744   1.160   3.454
 4268TIP3    H112761   6.703   1.245   3.469
 4268TIP3    H212762   6.744   1.117   3.539
 4269TIP3   OH212763   6.495   3.507   2.193
 4269TIP3    H112764   6.514   3.420   2.159
 4269TIP3    H212765   6.579   3.552   2.192
 4270TIP3   OH212766   2.184   2.216   3.730
 4270TIP3    H112767   2.131   2.165   3.670
 4270TIP3    H212768   2.273   2.208   3.696
 4271TIP3   OH212769   3.436   5.234   2.120
 4271TIP3    H112770   3.432   5.308   2.180
 4271TIP3    H212771   3.522   5.195   2.136
 4272TIP3   OH212772   3.672   7.086   0.971
 4272TIP3    H112773   3.761   7.120   0.962
 4272TIP3    H212774   3.681   6.992   0.956
 4273TIP3   OH212775   3.826   3.492   5.100
 4273TIP3    H112776   3.911   3.461   5.068
 4273TIP3    H212777   3.845   3.576   5.142
 4274TIP3   OH212778   3.562   1.451   5.079
 4274TIP3    H112779   3.531   1.490   5.160
 4274TIP3    H212780   3.604   1.523   5.032
 4275TIP3   OH212781   4.524   1.713   3.442
 4275TIP3    H112782   4.489   1.637   3.395
 4275TIP3    H212783   4.475   1.714   3.525
 4276TIP3   OH212784   0.151   0.662   6.296
 4276TIP3    H112785   0.182   0.608   6.224
 4276TIP3    H212786   0.230   0.682   6.347
 4277TIP3   OH212787   2.435   7.200   3.270
 4277TIP3    H112788   2.483   7.234   3.195
 4277TIP3    H212789   2.351   7.170   3.234
 4278TIP3   OH212790   1.523   2.603   0.206
 4278TIP3    H112791   1.476   2.674   0.252
 4278TIP3    H212792   1.535   2.637   0.117
 4279TIP3   OH212793   5.271   2.715   2.796
 4279TIP3    H112794   5.189   2.731   2.842
 4279TIP3    H212795   5.332   2.778   2.833
 4280TIP3   OH212796   3.864   2.326   4.351
 4280TIP3    H112797   3.946   2.330   4.302
 4280TIP3    H212798   3.890   2.294   4.438
 4281TIP3   OH212799   6.564   5.486   4.127
 4281TIP3    H112800   6.589   5.455   4.040
 4281TIP3    H212801   6.641   5.471   4.182
 4282TIP3   OH212802   7.102   4.096   0.105
 4282TIP3    H112803   7.075   4.188   0.111
 4282TIP3    H212804   7.179   4.099   0.048
 4283TIP3   OH212805   6.915   1.640   0.619
 4283TIP3    H112806   6.909   1.716   0.560
 4283TIP3    H212807   6.830   1.597   0.610
 4284TIP3   OH212808   5.774   0.107   1.288
 4284TIP3    H112809   5.803   0.048   1.218
 4284TIP3    H212810   5.852   0.155   1.313
 4285TIP3   OH212811   1.501   2.206   6.439
 4285TIP3    H112812   1.521   2.189   6.531
 4285TIP3    H212813   1.417   2.251   6.440
 4286TIP3   OH212814   2.498   6.029   1.696
 4286TIP3    H112815   2.424   6.074   1.656
 4286TIP3    H212816   2.515   6.078   1.777
 4287TIP3   OH212817   8.232   2.249   1.471
 4287TIP3    H112818   8.153   2.257   1.419
 4287TIP3    H212819   8.268   2.337   1.476
 4288TIP3   OH212820   7.672   1.524   0.843
 4288TIP3    H112821   7.621   1.460   0.793
 4288TIP3    H212822   7.617   1.603   0.844
 4289TIP3   OH212823   2.705   1.999   2.728
 4289TIP3    H112824   2.684   1.988   2.636
 4289TIP3    H212825   2.764   2.074   2.730
 4290TIP3   OH212826   4.026   7.568   1.542
 4290TIP3    H112827   4.097   7.555   1.480
 4290TIP3    H212828   3.989   7.481   1.555
 4291TIP3   OH212829   4.694   3.590   1.169
 4291TIP3    H112830   4.734   3.504   1.159
 4291TIP3    H212831   4.748   3.633   1.236
 4292TIP3   OH212832   0.358   4.711   6.218
 4292TIP3    H112833   0.264   4.728   6.209
 4292TIP3    H212834   0.388   4.694   6.129
 4293TIP3   OH212835   7.001   6.855   6.416
 4293TIP3    H112836   7.077   6.839   6.360
 4293TIP3    H212837   7.038   6.883   6.500
 4294TIP3   OH212838   5.780   1.562   3.479
 4294TIP3    H112839   5.727   1.551   3.400
 4294TIP3    H212840   5.718   1.549   3.551
 4295TIP3   OH212841   3.566   4.650   1.975
 4295TIP3    H112842   3.573   4.745   1.983
 4295TIP3    H212843   3.477   4.635   1.944
 4296TIP3   OH212844   6.393   7.294   1.377
 4296TIP3    H112845   6.365   7.289   1.286
 4296TIP3    H212846   6.327   7.243   1.425
 4297TIP3   OH212847   6.437   0.722   4.861
 4297TIP3    H112848   6.474   0.764   4.783
 4297TIP3    H212849   6.342   0.736   4.853
 4298TIP3   OH212850   0.483   5.518   5.861
 4298TIP3    H112851   0.509   5.448   5.921
 4298TIP3    H212852   0.395   5.492   5.831
 4299TIP3   OH212853   2.866   1.074   3.966
 4299TIP3    H112854   2.804   1.014   4.007
 4299TIP3    H212855   2.949   1.058   4.011
 4300TIP3   OH212856   6.704   3.461   4.138
 4300TIP3    H112857   6.686   3.425   4.051
 4300TIP3    H212858   6.618   3.485   4.172
 4301TIP3   OH212859   2.328   3.817   2.804
 4301TIP3    H112860   2.390   3.831   2.876
 4301TIP3    H212861   2.384   3.805   2.727
 4302TIP3   OH212862   0.325   1.226   5.170
 4302TIP3    H112863   0.262   1.242   5.240
 4302TIP3    H212864   0.399   1.184   5.213
 4303TIP3   OH212865   6.934   7.621   2.008
 4303TIP3    H112866   6.873   7.602   1.937
 4303TIP3    H212867   6.900   7.572   2.083
 4304TIP3   OH212868   6.476   1.895   4.160
 4304TIP3    H112869   6.382   1.905   4.141
 4304TIP3    H212870   6.485   1.923   4.251
 4305TIP3   OH212871   0.182   2.529   5.501
 4305TIP3    H112872   0.171   2.532   5.596
 4305TIP3    H212873   0.259   2.474   5.488
 4306TIP3   OH212874   7.234   0.496   2.618
 4306TIP3    H112875   7.244   0.405   2.645
 4306TIP3    H212876   7.312   0.513   2.565
 4307TIP3   OH212877   6.151   5.851   5.333
 4307TIP3    H112878   6.117   5.785   5.393
 4307TIP3    H212879   6.081   5.866   5.271
 4308TIP3   OH212880   7.952   6.844   3.592
 4308TIP3    H112881   8.037   6.802   3.578
 4308TIP3    H212882   7.889   6.782   3.555
 4309TIP3   OH212883   7.590   3.269   0.914
 4309TIP3    H112884   7.510   3.309   0.880
 4309TIP3    H212885   7.644   3.343   0.941
 4310TIP3   OH212886   4.140   5.969   4.275
 4310TIP3    H112887   4.181   5.887   4.304
 4310TIP3    H212888   4.050   5.963   4.307
 4311TIP3   OH212889   1.214   7.769   3.756
 4311TIP3    H112890   1.141   7.812   3.710
 4311TIP3    H212891   1.241   7.699   3.697
 4312TIP3   OH212892   7.356   5.778   4.450
 4312TIP3    H112893   7.261   5.769   4.440
 4312TIP3    H212894   7.377   5.861   4.406
 4313TIP3   OH212895   4.683   5.407   2.891
 4313TIP3    H112896   4.688   5.491   2.845
 4313TIP3    H212897   4.600   5.410   2.938
 4314TIP3   OH212898   2.340   6.804   2.911
 4314TIP3    H112899   2.387   6.823   2.830
 4314TIP3    H212900   2.408   6.776   2.972
 4315TIP3   OH212901   3.502   7.350   6.504
 4315TIP3    H112902   3.539   7.422   6.453
 4315TIP3    H212903   3.443   7.393   6.566
 4316TIP3   OH212904   6.727   3.272   3.579
 4316TIP3    H112905   6.816   3.309   3.579
 4316TIP3    H212906   6.720   3.229   3.664
 4317TIP3   OH212907   6.653   2.787   3.947
 4317TIP3    H112908   6.717   2.851   3.977
 4317TIP3    H212909   6.644   2.725   4.020
 4318TIP3   OH212910   0.681   6.738   3.572
 4318TIP3    H112911   0.687   6.830   3.547
 4318TIP3    H212912   0.619   6.699   3.511
 4319TIP3   OH212913   0.053   1.999   3.555
 4319TIP3    H112914   0.103   2.080   3.561
 4319TIP3    H212915   0.102   1.945   3.493
 4320TIP3   OH212916   2.062   6.131   5.763
 4320TIP3    H112917   2.003   6.180   5.705
 4320TIP3    H212918   2.033   6.040   5.757
 4321TIP3   OH212919   2.975   0.980   5.023
 4321TIP3    H112920   3.002   0.889   5.037
 4321TIP3    H212921   2.888   0.973   4.982
 4322TIP3   OH212922   2.641   6.624   6.652
 4322TIP3    H112923   2.636   6.677   6.572
 4322TIP3    H212924   2.706   6.669   6.707
 4323TIP3   OH212925   0.584   2.988   6.186
 4323TIP3    H112926   0.607   2.970   6.095
 4323TIP3    H212927   0.639   3.062   6.211
 4324TIP3   OH212928   1.884   1.845   1.137
 4324TIP3    H112929   1.808   1.901   1.118
 4324TIP3    H212930   1.948   1.867   1.069
 4325TIP3   OH212931   3.089   4.761   1.270
 4325TIP3    H112932   3.176   4.768   1.308
 4325TIP3    H212933   3.071   4.667   1.267
 4326TIP3   OH212934   5.769   5.088   3.160
 4326TIP3    H112935   5.829   5.063   3.230
 4326TIP3    H212936   5.724   5.165   3.193
 4327TIP3   OH212937   8.229   3.503   3.056
 4327TIP3    H112938   8.158   3.513   2.992
 4327TIP3    H212939   8.296   3.565   3.028
 4328TIP3   OH212940   5.821   4.034   3.787
 4328TIP3    H112941   5.790   4.085   3.861
 4328TIP3    H212942   5.827   3.944   3.820
 4329TIP3   OH212943   3.842   3.814   1.122
 4329TIP3    H112944   3.914   3.877   1.120
 4329TIP3    H212945   3.859   3.755   1.049
 4330TIP3   OH212946   5.992   1.503   1.084
 4330TIP3    H112947   5.983   1.595   1.062
 4330TIP3    H212948   5.938   1.457   1.020
 4331TIP3   OH212949   2.630   4.619   5.166
 4331TIP3    H112950   2.612   4.702   5.210
 4331TIP3    H212951   2.719   4.629   5.132
 4332TIP3   OH212952   4.158   6.908   5.109
 4332TIP3    H112953   4.192   6.995   5.089
 4332TIP3    H212954   4.206   6.849   5.052
 4333TIP3   OH212955   2.848   6.764   5.018
 4333TIP3    H112956   2.848   6.847   5.066
 4333TIP3    H212957   2.891   6.784   4.935
 4334TIP3   OH212958   3.515   0.160   2.524
 4334TIP3    H112959   3.593   0.213   2.511
 4334TIP3    H212960   3.546   0.070   2.519
 4335TIP3   OH212961   5.733   3.682   3.082
 4335TIP3    H112962   5.816   3.725   3.062
 4335TIP3    H212963   5.758   3.600   3.124
 4336TIP3   OH212964   4.713   4.255   2.587
 4336TIP3    H112965   4.754   4.187   2.640
 4336TIP3    H212966   4.700   4.328   2.647
 4337TIP3   OH212967   3.199   1.341   6.397
 4337TIP3    H112968   3.289   1.332   6.368
 4337TIP3    H212969   3.147   1.306   6.325
 4338TIP3   OH212970   2.728   4.975   6.738
 4338TIP3    H112971   2.692   4.900   6.692
 4338TIP3    H212972   2.683   4.976   6.822
 4339TIP3   OH212973   1.854   3.516   5.418
 4339TIP3    H112974   1.935   3.566   5.429
 4339TIP3    H212975   1.784   3.582   5.426
 4340TIP3   OH212976   0.249   2.665   2.733
 4340TIP3    H112977   0.262   2.572   2.748
 4340TIP3    H212978   0.290   2.682   2.648
 4341TIP3   OH212979   4.017   0.742   0.783
 4341TIP3    H112980   3.958   0.813   0.809
 4341TIP3    H212981   3.959   0.673   0.751
 4342TIP3   OH212982   1.047   4.051   0.351
 4342TIP3    H112983   1.080   4.006   0.429
 4342TIP3    H212984   0.982   4.113   0.385
 4343TIP3   OH212985   1.534   3.102   4.428
 4343TIP3    H112986   1.485   3.185   4.435
 4343TIP3    H212987   1.623   3.125   4.453
 4344TIP3   OH212988   7.003   2.047   5.136
 4344TIP3    H112989   7.085   2.001   5.120
 4344TIP3    H212990   6.976   2.019   5.224
 4345TIP3   OH212991   5.241   5.639   5.700
 4345TIP3    H112992   5.198   5.683   5.626
 4345TIP3    H212993   5.334   5.640   5.677
 4346TIP3   OH212994   3.583   1.313   2.455
 4346TIP3    H112995   3.650   1.357   2.403
 4346TIP3    H212996   3.501   1.354   2.426
 4347TIP3   OH212997   4.966   4.840   2.293
 4347TIP3    H112998   4.960   4.882   2.379
 4347TIP3    H212999   4.883   4.860   2.250
 4348TIP3   OH213000   7.817   7.169   1.666
 4348TIP3    H113001   7.819   7.113   1.744
 4348TIP3    H213002   7.863   7.248   1.692
 4349TIP3   OH213003   5.483   1.570   5.700
 4349TIP3    H113004   5.388   1.581   5.709
 4349TIP3    H213005   5.520   1.649   5.739
 4350TIP3   OH213006   8.025   2.914   2.696
 4350TIP3    H113007   8.105   2.860   2.695
 4350TIP3    H213008   8.053   2.997   2.736
 4351TIP3   OH213009   7.475   0.287   5.153
 4351TIP3    H113010   7.494   0.368   5.106
 4351TIP3    H213011   7.388   0.300   5.190
 4352TIP3   OH213012   6.451   6.278   0.793
 4352TIP3    H113013   6.527   6.302   0.847
 4352TIP3    H213014   6.490   6.246   0.711
 4353TIP3   OH213015   0.549   7.532   4.411
 4353TIP3    H113016   0.536   7.585   4.332
 4353TIP3    H213017   0.598   7.589   4.470
 4354TIP3   OH213018   3.065   2.673   6.499
 4354TIP3    H113019   3.109   2.666   6.583
 4354TIP3    H213020   3.133   2.654   6.434
 4355TIP3   OH213021   3.970   6.603   1.175
 4355TIP3    H113022   3.925   6.521   1.158
 4355TIP3    H213023   3.906   6.656   1.224
 4356TIP3   OH213024   1.956   5.016   3.017
 4356TIP3    H113025   2.015   4.941   3.008
 4356TIP3    H213026   1.869   4.980   3.000
 4357TIP3   OH213027   5.489   1.821   5.818
 4357TIP3    H113028   5.419   1.759   5.836
 4357TIP3    H213029   5.446   1.894   5.773
 4358TIP3   OH213030   6.650   6.351   3.339
 4358TIP3    H113031   6.643   6.442   3.365
 4358TIP3    H213032   6.705   6.311   3.406
 4359TIP3   OH213033   7.665   3.258   2.141
 4359TIP3    H113034   7.610   3.204   2.198
 4359TIP3    H213035   7.658   3.346   2.177
 4360TIP3   OH213036   2.526   4.147   5.651
 4360TIP3    H113037   2.594   4.152   5.719
 4360TIP3    H213038   2.540   4.062   5.610
 4361TIP3   OH213039   3.090   2.482   3.360
 4361TIP3    H113040   3.139   2.517   3.435
 4361TIP3    H213041   3.000   2.510   3.374
 4362TIP3   OH213042   0.933   4.163   1.172
 4362TIP3    H113043   0.933   4.067   1.169
 4362TIP3    H213044   0.878   4.189   1.098
 4363TIP3   OH213045   2.843   4.896   2.970
 4363TIP3    H113046   2.807   4.983   2.953
 4363TIP3    H213047   2.937   4.904   2.952
 4364TIP3   OH213048   3.048   2.394   4.022
 4364TIP3    H113049   3.123   2.416   4.078
 4364TIP3    H213050   3.055   2.454   3.948
 4365TIP3   OH213051   3.538   6.198   1.909
 4365TIP3    H113052   3.616   6.177   1.857
 4365TIP3    H213053   3.543   6.293   1.922
 4366TIP3   OH213054   8.313   6.659   6.099
 4366TIP3    H113055   8.228   6.702   6.106
 4366TIP3    H213056   8.341   6.645   6.189
 4367TIP3   OH213057   1.740   4.854   2.971
 4367TIP3    H113058   1.673   4.881   3.033
 4367TIP3    H213059   1.697   4.789   2.915
 4368TIP3   OH213060   1.989   4.880   4.803
 4368TIP3    H113061   2.005   4.970   4.831
 4368TIP3    H213062   2.074   4.849   4.772
 4369TIP3   OH213063   6.364   7.761   1.558
 4369TIP3    H113064   6.309   7.839   1.573
 4369TIP3    H213065   6.323   7.693   1.611
 4370TIP3   OH213066   2.760   6.186   4.638
 4370TIP3    H113067   2.808   6.126   4.581
 4370TIP3    H213068   2.822   6.208   4.708
 4371TIP3   OH213069   0.368   2.186   1.276
 4371TIP3    H113070   0.407   2.273   1.272
 4371TIP3    H213071   0.355   2.169   1.369
 4372TIP3   OH213072   0.881   7.269   3.972
 4372TIP3    H113073   0.863   7.192   3.918
 4372TIP3    H213074   0.876   7.238   4.062
 4373TIP3   OH213075   3.376   3.948   5.879
 4373TIP3    H113076   3.384   3.970   5.786
 4373TIP3    H213077   3.430   4.013   5.924
 4374TIP3   OH213078   0.371   1.781   5.466
 4374TIP3    H113079   0.375   1.867   5.508
 4374TIP3    H213080   0.301   1.734   5.512
 4375TIP3   OH213081   4.549   2.907   5.786
 4375TIP3    H113082   4.635   2.944   5.765
 4375TIP3    H213083   4.488   2.978   5.769
 4376TIP3   OH213084   7.724   4.759   3.769
 4376TIP3    H113085   7.664   4.820   3.812
 4376TIP3    H213086   7.716   4.678   3.819
 4377TIP3   OH213087   4.141   5.175   5.473
 4377TIP3    H113088   4.230   5.190   5.441
 4377TIP3    H213089   4.087   5.239   5.426
 4378TIP3   OH213090   2.064   1.314   2.487
 4378TIP3    H113091   2.108   1.331   2.403
 4378TIP3    H213092   2.125   1.347   2.553
 4379TIP3   OH213093   5.754   1.970   2.602
 4379TIP3    H113094   5.791   1.994   2.517
 4379TIP3    H213095   5.691   2.039   2.622
 4380TIP3   OH213096   6.601   5.279   2.012
 4380TIP3    H113097   6.561   5.304   2.095
 4380TIP3    H213098   6.529   5.245   1.959
 4381TIP3   OH213099   6.437   1.453   4.838
 4381TIP3    H113100   6.440   1.538   4.883
 4381TIP3    H213101   6.346   1.424   4.849
 4382TIP3   OH213102   6.480   3.717   3.013
 4382TIP3    H113103   6.555   3.765   3.047
 4382TIP3    H213104   6.437   3.680   3.090
 4383TIP3   OH213105   1.993   0.017   3.543
 4383TIP3    H113106   2.065   0.077   3.562
 4383TIP3    H213107   1.977  -0.029   3.626
 4384TIP3   OH213108   3.716   1.972   2.040
 4384TIP3    H113109   3.634   1.957   1.992
 4384TIP3    H213110   3.762   2.039   1.989
 4385TIP3   OH213111   5.184   3.761   5.388
 4385TIP3    H113112   5.257   3.817   5.414
 4385TIP3    H213113   5.205   3.733   5.299
 4386TIP3   OH213114   7.813   2.092   2.838
 4386TIP3    H113115   7.784   2.183   2.834
 4386TIP3    H213116   7.889   2.094   2.897
 4387TIP3   OH213117   3.770   3.795   6.074
 4387TIP3    H113118   3.724   3.730   6.020
 4387TIP3    H213119   3.746   3.772   6.164
 4388TIP3   OH213120   5.833   1.271   4.057
 4388TIP3    H113121   5.823   1.366   4.052
 4388TIP3    H213122   5.787   1.238   3.980
 4389TIP3   OH213123   3.136   1.525   4.243
 4389TIP3    H113124   3.191   1.451   4.270
 4389TIP3    H213125   3.051   1.509   4.283
 4390TIP3   OH213126   3.426   4.923   6.119
 4390TIP3    H113127   3.504   4.979   6.115
 4390TIP3    H213128   3.439   4.858   6.051
 4391TIP3   OH213129   4.330   3.856   0.481
 4391TIP3    H113130   4.238   3.861   0.508
 4391TIP3    H213131   4.342   3.933   0.425
 4392TIP3   OH213132   1.026   5.193   4.541
 4392TIP3    H113133   1.032   5.187   4.637
 4392TIP3    H213134   0.938   5.226   4.525
 4393TIP3   OH213135   1.740   5.527   2.478
 4393TIP3    H113136   1.743   5.565   2.565
 4393TIP3    H213137   1.799   5.581   2.425
 4394TIP3   OH213138   3.238   4.181   2.569
 4394TIP3    H113139   3.246   4.212   2.479
 4394TIP3    H213140   3.160   4.127   2.570
 4395TIP3   OH213141   4.525   6.893   4.967
 4395TIP3    H113142   4.592   6.939   4.916
 4395TIP3    H213143   4.530   6.933   5.054
 4396TIP3   OH213144   1.295   7.401   5.818
 4396TIP3    H113145   1.368   7.343   5.802
 4396TIP3    H213146   1.320   7.484   5.776
 4397TIP3   OH213147   3.243   4.822   5.238
 4397TIP3    H113148   3.210   4.885   5.174
 4397TIP3    H213149   3.187   4.745   5.226
 4398TIP3   OH213150   3.915   2.548   1.044
 4398TIP3    H113151   3.860   2.553   1.122
 4398TIP3    H213152   3.968   2.469   1.057
 4399TIP3   OH213153   5.245   1.320   4.079
 4399TIP3    H113154   5.205   1.337   3.993
 4399TIP3    H213155   5.322   1.266   4.059
 4400TIP3   OH213156   2.237   5.776   4.821
 4400TIP3    H113157   2.273   5.793   4.908
 4400TIP3    H213158   2.168   5.842   4.810
 4401TIP3   OH213159   6.362   3.086   1.645
 4401TIP3    H113160   6.426   3.020   1.618
 4401TIP3    H213161   6.359   3.148   1.573
 4402TIP3   OH213162   0.414   3.279   0.443
 4402TIP3    H113163   0.387   3.309   0.530
 4402TIP3    H213164   0.484   3.217   0.460
 4403TIP3   OH213165   7.102   2.073   3.474
 4403TIP3    H113166   7.148   2.047   3.394
 4403TIP3    H213167   7.139   2.019   3.543
 4404TIP3   OH213168   7.025   2.832   2.672
 4404TIP3    H113169   7.101   2.798   2.720
 4404TIP3    H213170   6.994   2.758   2.619
 4405TIP3   OH213171   2.459   4.105   5.356
 4405TIP3    H113172   2.473   4.028   5.299
 4405TIP3    H213173   2.380   4.146   5.321
 4406TIP3   OH213174   0.686   2.189   5.882
 4406TIP3    H113175   0.780   2.172   5.887
 4406TIP3    H213176   0.646   2.103   5.871
 4407TIP3   OH213177   1.469   4.552   5.759
 4407TIP3    H113178   1.437   4.640   5.778
 4407TIP3    H213179   1.447   4.539   5.666
 4408TIP3   OH213180   3.143   0.304   6.602
 4408TIP3    H113181   3.087   0.359   6.546
 4408TIP3    H213182   3.085   0.277   6.674
 4409TIP3   OH213183   7.342   3.738   3.582
 4409TIP3    H113184   7.282   3.673   3.546
 4409TIP3    H213185   7.331   3.814   3.526
 4410TIP3   OH213186   5.350   4.184   1.832
 4410TIP3    H113187   5.419   4.184   1.898
 4410TIP3    H213188   5.357   4.098   1.790
 4411TIP3   OH213189   0.260   5.721   4.182
 4411TIP3    H113190   0.296   5.749   4.266
 4411TIP3    H213191   0.337   5.706   4.127
 4412TIP3   OH213192   1.563   3.756   5.092
 4412TIP3    H113193   1.584   3.845   5.119
 4412TIP3    H213194   1.563   3.705   5.173
 4413TIP3   OH213195   2.193   2.714   0.269
 4413TIP3    H113196   2.256   2.718   0.341
 4413TIP3    H213197   2.182   2.621   0.251
 4414TIP3   OH213198   8.208   1.870   2.474
 4414TIP3    H113199   8.268   1.908   2.539
 4414TIP3    H213200   8.213   1.930   2.400
 4415TIP3   OH213201   6.207   5.083   4.731
 4415TIP3    H113202   6.185   5.007   4.677
 4415TIP3    H213203   6.303   5.083   4.733
 4416TIP3   OH213204   4.953   7.851   0.338
 4416TIP3    H113205   4.943   7.784   0.406
 4416TIP3    H213206   4.964   7.802   0.257
 4417TIP3   OH213207   1.829   2.355   4.004
 4417TIP3    H113208   1.836   2.267   3.967
 4417TIP3    H213209   1.742   2.386   3.978
 4418TIP3   OH213210   4.812   5.608   4.090
 4418TIP3    H113211   4.902   5.577   4.098
 4418TIP3    H213212   4.774   5.555   4.020
 4419TIP3   OH213213   4.062   4.957   6.393
 4419TIP3    H113214   4.092   4.969   6.483
 4419TIP3    H213215   4.011   4.875   6.396
 4420TIP3   OH213216   6.003   2.018   0.105
 4420TIP3    H113217   6.011   1.954   0.034
 4420TIP3    H213218   6.092   2.028   0.139
 4421TIP3   OH213219   2.833   0.271   1.209
 4421TIP3    H113220   2.773   0.281   1.283
 4421TIP3    H213221   2.920   0.275   1.249
 4422TIP3   OH213222   3.782   6.302   4.198
 4422TIP3    H113223   3.846   6.337   4.136
 4422TIP3    H213224   3.808   6.337   4.283
 4423TIP3   OH213225   5.336   2.264   2.935
 4423TIP3    H113226   5.287   2.220   2.865
 4423TIP3    H213227   5.390   2.329   2.889
 4424TIP3   OH213228   1.075   4.667   5.581
 4424TIP3    H113229   1.028   4.607   5.523
 4424TIP3    H213230   1.037   4.753   5.565
 4425TIP3   OH213231   5.871   7.808   2.709
 4425TIP3    H113232   5.811   7.883   2.714
 4425TIP3    H213233   5.815   7.734   2.685
 4426TIP3   OH213234   3.218   2.956   4.805
 4426TIP3    H113235   3.249   2.931   4.892
 4426TIP3    H213236   3.191   2.874   4.764
 4427TIP3   OH213237   7.635   3.036   0.722
 4427TIP3    H113238   7.653   3.063   0.632
 4427TIP3    H213239   7.650   3.115   0.774
 4428TIP3   OH213240   6.287   2.749   0.724
 4428TIP3    H113241   6.264   2.688   0.654
 4428TIP3    H213242   6.248   2.712   0.803
 4429TIP3   OH213243   7.104   1.019   1.422
 4429TIP3    H113244   7.177   0.975   1.466
 4429TIP3    H213245   7.097   0.974   1.338
 4430TIP3   OH213246   6.745   2.273   5.617
 4430TIP3    H113247   6.814   2.215   5.584
 4430TIP3    H213248   6.790   2.355   5.639
 4431TIP3   OH213249   8.289   0.376   1.731
 4431TIP3    H113250   8.225   0.354   1.663
 4431TIP3    H213251   8.304   0.293   1.777
 4432TIP3   OH213252   7.756   6.515   0.133
 4432TIP3    H113253   7.839   6.536   0.089
 4432TIP3    H213254   7.733   6.428   0.100
 4433TIP3   OH213255   0.966   7.738   2.088
 4433TIP3    H113256   1.059   7.717   2.086
 4433TIP3    H213257   0.963   7.831   2.110
 4434TIP3   OH213258   1.757   3.681   6.431
 4434TIP3    H113259   1.758   3.742   6.505
 4434TIP3    H213260   1.707   3.606   6.462
 4435TIP3   OH213261   1.188   0.934   2.079
 4435TIP3    H113262   1.258   0.952   2.016
 4435TIP3    H213263   1.112   0.981   2.045
 4436TIP3   OH213264   0.541   1.460   4.338
 4436TIP3    H113265   0.618   1.455   4.394
 4436TIP3    H213266   0.524   1.369   4.313
 4437TIP3   OH213267   2.332   0.336   6.402
 4437TIP3    H113268   2.294   0.368   6.484
 4437TIP3    H213269   2.361   0.247   6.422
 4438TIP3   OH213270   1.830   1.411   0.884
 4438TIP3    H113271   1.800   1.327   0.919
 4438TIP3    H213272   1.751   1.465   0.882
 4439TIP3   OH213273   0.243   2.675   4.441
 4439TIP3    H113274   0.186   2.726   4.498
 4439TIP3    H213275   0.210   2.690   4.353
 4440TIP3   OH213276   1.962   5.641   2.367
 4440TIP3    H113277   2.048   5.666   2.403
 4440TIP3    H213278   1.983   5.581   2.296
 4441TIP3   OH213279   4.676   5.397   6.352
 4441TIP3    H113280   4.594   5.446   6.354
 4441TIP3    H213281   4.676   5.346   6.433
 4442TIP3   OH213282   5.389   2.230   5.871
 4442TIP3    H113283   5.378   2.318   5.907
 4442TIP3    H213284   5.442   2.184   5.937
 4443TIP3   OH213285   2.446   0.094   1.155
 4443TIP3    H113286   2.379   0.029   1.135
 4443TIP3    H213287   2.493   0.058   1.230
 4444TIP3   OH213288   0.978   6.203   4.701
 4444TIP3    H113289   1.059   6.200   4.752
 4444TIP3    H213290   1.000   6.254   4.623
 4445TIP3   OH213291   5.836   1.300   5.279
 4445TIP3    H113292   5.779   1.267   5.210
 4445TIP3    H213293   5.890   1.366   5.237
 4446TIP3   OH213294   0.046   3.663   5.717
 4446TIP3    H113295  -0.007   3.614   5.654
 4446TIP3    H213296   0.025   3.624   5.802
 4447TIP3   OH213297   5.338   5.532   4.489
 4447TIP3    H113298   5.390   5.563   4.563
 4447TIP3    H213299   5.261   5.492   4.528
 4448TIP3   OH213300   2.786   3.512   3.314
 4448TIP3    H113301   2.850   3.472   3.373
 4448TIP3    H213302   2.706   3.460   3.326
 4449TIP3   OH213303   2.835   6.220   3.686
 4449TIP3    H113304   2.903   6.210   3.753
 4449TIP3    H213305   2.818   6.314   3.684
 4450TIP3   OH213306   1.505   1.111   3.283
 4450TIP3    H113307   1.431   1.051   3.289
 4450TIP3    H213308   1.523   1.119   3.189
 4451TIP3   OH213309   8.222   2.855   1.091
 4451TIP3    H113310   8.139   2.859   1.043
 4451TIP3    H213311   8.274   2.926   1.054
 4452TIP3   OH213312   7.718   3.903   4.796
 4452TIP3    H113313   7.701   3.922   4.888
 4452TIP3    H213314   7.814   3.903   4.789
 4453TIP3   OH213315   3.837   0.809   5.542
 4453TIP3    H113316   3.848   0.745   5.471
 4453TIP3    H213317   3.754   0.785   5.582
 4454TIP3   OH213318   0.491   4.450   4.995
 4454TIP3    H113319   0.487   4.545   5.003
 4454TIP3    H213320   0.488   4.419   5.086
 4455TIP3   OH213321   7.743   4.064   5.341
 4455TIP3    H113322   7.737   4.046   5.435
 4455TIP3    H213323   7.748   3.977   5.301
 4456TIP3   OH213324   6.675   6.026   0.409
 4456TIP3    H113325   6.746   5.969   0.438
 4456TIP3    H213326   6.637   5.980   0.334
 4457TIP3   OH213327   2.938   1.476   4.659
 4457TIP3    H113328   2.983   1.536   4.600
 4457TIP3    H213329   2.949   1.514   4.746
 4458TIP3   OH213330   6.124   7.454   1.055
 4458TIP3    H113331   6.170   7.516   1.111
 4458TIP3    H213332   6.032   7.462   1.082
 4459TIP3   OH213333   6.545   1.398   0.333
 4459TIP3    H113334   6.580   1.348   0.259
 4459TIP3    H213335   6.514   1.480   0.295
 4460TIP3   OH213336   6.247   1.860   3.056
 4460TIP3    H113337   6.298   1.799   3.004
 4460TIP3    H213338   6.192   1.906   2.993
 4461TIP3   OH213339   7.368   0.740   2.462
 4461TIP3    H113340   7.280   0.728   2.425
 4461TIP3    H213341   7.355   0.799   2.537
 4462TIP3   OH213342   2.613   7.586   2.126
 4462TIP3    H113343   2.707   7.565   2.122
 4462TIP3    H213344   2.610   7.681   2.114
 4463TIP3   OH213345   0.840   2.080   6.501
 4463TIP3    H113346   0.856   2.129   6.581
 4463TIP3    H213347   0.748   2.095   6.482
 4464TIP3   OH213348   0.220   5.098   4.975
 4464TIP3    H113349   0.266   5.098   5.058
 4464TIP3    H213350   0.235   5.011   4.938
 4465TIP3   OH213351   6.028   5.719   2.995
 4465TIP3    H113352   5.968   5.661   3.042
 4465TIP3    H213353   6.115   5.682   3.013
 4466TIP3   OH213354   6.671   2.744   4.240
 4466TIP3    H113355   6.630   2.829   4.224
 4466TIP3    H213356   6.668   2.734   4.335
 4467TIP3   OH213357   1.341   5.292   2.758
 4467TIP3    H113358   1.356   5.360   2.692
 4467TIP3    H213359   1.364   5.210   2.714
 4468TIP3   OH213360   4.635   3.521   0.402
 4468TIP3    H113361   4.709   3.464   0.421
 4468TIP3    H213362   4.651   3.552   0.313
 4469TIP3   OH213363   4.350   4.209   3.597
 4469TIP3    H113364   4.347   4.254   3.513
 4469TIP3    H213365   4.276   4.245   3.647
 4470TIP3   OH213366   2.324   6.426   6.046
 4470TIP3    H113367   2.347   6.341   6.082
 4470TIP3    H213368   2.388   6.487   6.084
 4471TIP3   OH213369   7.527   4.434   3.061
 4471TIP3    H113370   7.554   4.522   3.035
 4471TIP3    H213371   7.580   4.416   3.140
 4472TIP3   OH213372   4.973   3.768   5.825
 4472TIP3    H113373   4.937   3.683   5.798
 4472TIP3    H213374   4.982   3.761   5.920
 4473TIP3   OH213375   0.669   5.567   3.339
 4473TIP3    H113376   0.594   5.596   3.391
 4473TIP3    H213377   0.679   5.636   3.272
 4474TIP3   OH213378   6.782   3.457   1.046
 4474TIP3    H113379   6.813   3.371   1.077
 4474TIP3    H213380   6.790   3.452   0.951
 4475TIP3   OH213381   1.758   3.631   1.481
 4475TIP3    H113382   1.706   3.552   1.468
 4475TIP3    H213383   1.816   3.610   1.554
 4476TIP3   OH213384   7.844   5.296   0.062
 4476TIP3    H113385   7.924   5.248   0.040
 4476TIP3    H213386   7.814   5.258   0.144
 4477TIP3   OH213387   2.311   5.594   2.171
 4477TIP3    H113388   2.271   5.641   2.244
 4477TIP3    H213389   2.392   5.559   2.207
 4478TIP3   OH213390   7.593   5.369   1.149
 4478TIP3    H113391   7.568   5.279   1.129
 4478TIP3    H213392   7.681   5.378   1.112
 4479TIP3   OH213393   6.320   0.730   3.585
 4479TIP3    H113394   6.329   0.635   3.580
 4479TIP3    H213395   6.256   0.744   3.655
 4480TIP3   OH213396   6.877   5.309   2.436
 4480TIP3    H113397   6.807   5.305   2.371
 4480TIP3    H213398   6.880   5.221   2.473
 4481TIP3   OH213399   4.277   7.591   4.308
 4481TIP3    H113400   4.314   7.679   4.316
 4481TIP3    H213401   4.352   7.533   4.319
 4482TIP3   OH213402   6.381   1.650   0.602
 4482TIP3    H113403   6.388   1.575   0.662
 4482TIP3    H213404   6.304   1.697   0.632
 4483TIP3   OH213405   2.411   6.019   4.819
 4483TIP3    H113406   2.474   5.952   4.847
 4483TIP3    H213407   2.366   5.979   4.745
 4484TIP3   OH213408   3.168   7.369   0.632
 4484TIP3    H113409   3.212   7.449   0.660
 4484TIP3    H213410   3.206   7.350   0.546
 4485TIP3   OH213411   3.966   1.467   4.117
 4485TIP3    H113412   3.918   1.413   4.054
 4485TIP3    H213413   3.967   1.554   4.078
 4486TIP3   OH213414   7.215   5.850   4.868
 4486TIP3    H113415   7.135   5.814   4.908
 4486TIP3    H213416   7.194   5.858   4.775
 4487TIP3   OH213417   8.078   7.127   2.810
 4487TIP3    H113418   8.015   7.119   2.882
 4487TIP3    H213419   8.046   7.068   2.742
 4488TIP3   OH213420   4.565   6.113   6.541
 4488TIP3    H113421   4.495   6.132   6.479
 4488TIP3    H213422   4.537   6.031   6.583
 4489TIP3   OH213423   3.294   4.072   1.131
 4489TIP3    H113424   3.324   4.027   1.210
 4489TIP3    H213425   3.200   4.081   1.142
 4490TIP3   OH213426   6.485   4.430   3.926
 4490TIP3    H113427   6.570   4.388   3.912
 4490TIP3    H213428   6.501   4.523   3.913
 4491TIP3   OH213429   7.170   3.642   1.933
 4491TIP3    H113430   7.212   3.690   1.862
 4491TIP3    H213431   7.124   3.570   1.889
 4492TIP3   OH213432   3.088   4.969   4.282
 4492TIP3    H113433   3.034   5.001   4.355
 4492TIP3    H213434   3.121   5.048   4.240
 4493TIP3   OH213435   3.069   1.899   4.551
 4493TIP3    H113436   3.061   1.829   4.617
 4493TIP3    H213437   3.058   1.854   4.467
 4494TIP3   OH213438   5.038   3.994   3.911
 4494TIP3    H113439   4.988   4.074   3.924
 4494TIP3    H213440   5.116   4.005   3.965
 4495TIP3   OH213441   1.247   4.988   3.511
 4495TIP3    H113442   1.196   4.908   3.514
 4495TIP3    H213443   1.338   4.959   3.514
 4496TIP3   OH213444   0.230   2.566   3.403
 4496TIP3    H113445   0.240   2.657   3.433
 4496TIP3    H213446   0.268   2.565   3.316
 4497TIP3   OH213447   0.402   3.832   4.226
 4497TIP3    H113448   0.364   3.800   4.144
 4497TIP3    H213449   0.406   3.927   4.215
 4498TIP3   OH213450   3.561   5.761   2.344
 4498TIP3    H113451   3.583   5.681   2.297
 4498TIP3    H213452   3.645   5.798   2.370
 4499TIP3   OH213453   4.062   0.984   2.850
 4499TIP3    H113454   4.016   0.924   2.792
 4499TIP3    H213455   4.010   1.065   2.846
 4500TIP3   OH213456   1.198   7.636   3.292
 4500TIP3    H113457   1.103   7.634   3.280
 4500TIP3    H213458   1.219   7.728   3.310
 4501TIP3   OH213459   2.031   1.291   5.218
 4501TIP3    H113460   1.946   1.264   5.253
 4501TIP3    H213461   2.053   1.370   5.268
 4502TIP3   OH213462   8.075   3.955   2.048
 4502TIP3    H113463   8.039   3.904   2.120
 4502TIP3    H213464   8.015   4.028   2.037
 4503TIP3   OH213465   4.276   0.714   3.776
 4503TIP3    H113466   4.282   0.698   3.870
 4503TIP3    H213467   4.289   0.808   3.766
 4504TIP3   OH213468   2.344   0.846   3.753
 4504TIP3    H113469   2.344   0.898   3.673
 4504TIP3    H213470   2.410   0.778   3.737
 4505TIP3   OH213471   4.145   4.736   2.978
 4505TIP3    H113472   4.134   4.648   3.015
 4505TIP3    H213473   4.237   4.740   2.952
 4506TIP3   OH213474   5.808   6.917   4.842
 4506TIP3    H113475   5.810   6.970   4.922
 4506TIP3    H213476   5.800   6.827   4.873
 4507TIP3   OH213477   0.406   4.239   6.704
 4507TIP3    H113478   0.483   4.236   6.762
 4507TIP3    H213479   0.363   4.322   6.726
 4508TIP3   OH213480   4.530   6.459   3.861
 4508TIP3    H113481   4.619   6.440   3.891
 4508TIP3    H213482   4.488   6.501   3.935
 4509TIP3   OH213483   4.392   7.426   3.443
 4509TIP3    H113484   4.453   7.354   3.427
 4509TIP3    H213485   4.314   7.385   3.479
 4510TIP3   OH213486   5.239   0.740   1.230
 4510TIP3    H113487   5.182   0.664   1.243
 4510TIP3    H213488   5.326   0.709   1.254
 4511TIP3   OH213489   3.510   2.275   6.019
 4511TIP3    H113490   3.463   2.246   6.098
 4511TIP3    H213491   3.584   2.325   6.052
 4512TIP3   OH213492   1.707   5.859   4.175
 4512TIP3    H113493   1.712   5.851   4.080
 4512TIP3    H213494   1.617   5.835   4.196
 4513TIP3   OH213495   2.286   7.154   2.880
 4513TIP3    H113496   2.346   7.103   2.934
 4513TIP3    H213497   2.324   7.152   2.792
 4514TIP3   OH213498   1.017   6.829   6.667
 4514TIP3    H113499   1.103   6.814   6.706
 4514TIP3    H213500   0.955   6.808   6.737
 4515TIP3   OH213501   8.132   7.191   5.397
 4515TIP3    H113502   8.067   7.123   5.418
 4515TIP3    H213503   8.095   7.271   5.433
 4516TIP3   OH213504   2.804   1.558   2.504
 4516TIP3    H113505   2.847   1.641   2.527
 4516TIP3    H213506   2.719   1.583   2.469
 4517TIP3   OH213507   0.571   5.480   4.016
 4517TIP3    H113508   0.659   5.453   3.991
 4517TIP3    H213509   0.522   5.398   4.023
 4518TIP3   OH213510   0.575   2.767   1.824
 4518TIP3    H113511   0.578   2.761   1.729
 4518TIP3    H213512   0.665   2.784   1.850
 4519TIP3   OH213513   4.228   3.753   4.536
 4519TIP3    H113514   4.218   3.846   4.553
 4519TIP3    H213515   4.289   3.748   4.462
 4520TIP3   OH213516   4.590   6.443   6.044
 4520TIP3    H113517   4.660   6.387   6.078
 4520TIP3    H213518   4.621   6.469   5.957
 4521TIP3   OH213519   4.156   7.823   1.413
 4521TIP3    H113520   4.089   7.766   1.452
 4521TIP3    H213521   4.174   7.889   1.480
 4522TIP3   OH213522   1.008   3.322   4.654
 4522TIP3    H113523   0.950   3.389   4.692
 4522TIP3    H213524   0.952   3.247   4.639
 4523TIP3   OH213525   7.702   4.772   1.641
 4523TIP3    H113526   7.665   4.754   1.728
 4523TIP3    H213527   7.704   4.868   1.636
 4524TIP3   OH213528   3.392   0.627   2.717
 4524TIP3    H113529   3.401   0.603   2.625
 4524TIP3    H213530   3.476   0.667   2.739
 4525TIP3   OH213531   5.429   4.532   1.072
 4525TIP3    H113532   5.475   4.595   1.127
 4525TIP3    H213533   5.342   4.571   1.058
 4526TIP3   OH213534   2.991   2.706   5.589
 4526TIP3    H113535   3.022   2.622   5.555
 4526TIP3    H213536   2.985   2.693   5.683
 4527TIP3   OH213537   6.722   4.960   4.139
 4527TIP3    H113538   6.747   4.879   4.095
 4527TIP3    H213539   6.632   4.945   4.169
 4528TIP3   OH213540   7.714   7.141   1.307
 4528TIP3    H113541   7.748   7.225   1.276
 4528TIP3    H213542   7.671   7.102   1.231
 4529TIP3   OH213543   7.195   1.046   0.553
 4529TIP3    H113544   7.271   0.994   0.578
 4529TIP3    H213545   7.217   1.136   0.579
 4530TIP3   OH213546   5.355   1.626   6.593
 4530TIP3    H113547   5.273   1.579   6.578
 4530TIP3    H213548   5.347   1.706   6.541
 4531TIP3   OH213549   2.479   4.013   0.669
 4531TIP3    H113550   2.543   4.067   0.623
 4531TIP3    H213551   2.516   4.000   0.757
 4532TIP3   OH213552   0.230   1.056   0.207
 4532TIP3    H113553   0.182   1.138   0.204
 4532TIP3    H213554   0.203   1.009   0.128
 4533TIP3   OH213555   6.490   1.858   6.169
 4533TIP3    H113556   6.397   1.867   6.193
 4533TIP3    H213557   6.532   1.934   6.209
 4534TIP3   OH213558   1.140   5.234   4.055
 4534TIP3    H113559   1.206   5.167   4.037
 4534TIP3    H213560   1.149   5.252   4.148
 4535TIP3   OH213561   3.563   0.963   5.666
 4535TIP3    H113562   3.494   0.961   5.599
 4535TIP3    H213563   3.516   0.958   5.749
 4536TIP3   OH213564   3.759   4.595   0.576
 4536TIP3    H113565   3.798   4.564   0.658
 4536TIP3    H213566   3.678   4.544   0.568
 4537TIP3   OH213567   5.810   3.493   2.554
 4537TIP3    H113568   5.836   3.574   2.597
 4537TIP3    H213569   5.727   3.515   2.511
 4538TIP3   OH213570   7.541   6.818   1.407
 4538TIP3    H113571   7.448   6.831   1.388
 4538TIP3    H213572   7.567   6.743   1.354
 4539TIP3   OH213573   0.443   1.984   1.068
 4539TIP3    H113574   0.426   2.073   1.039
 4539TIP3    H213575   0.384   1.929   1.017
 4540TIP3   OH213576   0.240   5.426   0.579
 4540TIP3    H113577   0.317   5.396   0.628
 4540TIP3    H213578   0.228   5.360   0.511
 4541TIP3   OH213579   5.044   1.703   6.631
 4541TIP3    H113580   5.059   1.772   6.567
 4541TIP3    H213581   5.061   1.745   6.715
 4542TIP3   OH213582   0.522   7.601   3.259
 4542TIP3    H113583   0.577   7.601   3.337
 4542TIP3    H213584   0.448   7.656   3.282
 4543TIP3   OH213585   3.477   2.587   2.663
 4543TIP3    H113586   3.560   2.547   2.637
 4543TIP3    H213587   3.475   2.581   2.758
 4544TIP3   OH213588   6.682   1.801   5.368
 4544TIP3    H113589   6.664   1.752   5.448
 4544TIP3    H213590   6.596   1.814   5.329
 4545TIP3   OH213591   6.026   7.709   1.465
 4545TIP3    H113592   5.938   7.670   1.465
 4545TIP3    H213593   6.015   7.791   1.417
 4546TIP3   OH213594   3.299   3.032   4.535
 4546TIP3    H113595   3.258   3.009   4.618
 4546TIP3    H213596   3.393   3.020   4.551
 4547TIP3   OH213597   4.465   5.831   3.256
 4547TIP3    H113598   4.420   5.790   3.182
 4547TIP3    H213599   4.553   5.849   3.224
 4548TIP3   OH213600   6.574   2.088   1.023
 4548TIP3    H113601   6.610   2.014   1.072
 4548TIP3    H213602   6.623   2.164   1.054
 4549TIP3   OH213603   6.336   3.026   0.727
 4549TIP3    H113604   6.315   2.933   0.734
 4549TIP3    H213605   6.251   3.070   0.728
 4550TIP3   OH213606   6.022   7.122   4.391
 4550TIP3    H113607   6.062   7.201   4.355
 4550TIP3    H213608   5.990   7.074   4.315
 4551TIP3   OH213609   4.701   0.687   6.708
 4551TIP3    H113610   4.695   0.782   6.721
 4551TIP3    H213611   4.699   0.651   6.797
 4552TIP3   OH213612   3.962   2.140   1.659
 4552TIP3    H113613   3.977   2.088   1.738
 4552TIP3    H213614   3.895   2.204   1.684
 4553TIP3   OH213615   1.638   5.320   6.548
 4553TIP3    H113616   1.563   5.261   6.558
 4553TIP3    H213617   1.656   5.352   6.636
 4554TIP3   OH213618   8.070   7.536   0.723
 4554TIP3    H113619   8.032   7.585   0.650
 4554TIP3    H213620   8.064   7.444   0.697
 4555TIP3   OH213621   5.502   5.202   5.924
 4555TIP3    H113622   5.424   5.195   5.978
 4555TIP3    H213623   5.490   5.135   5.856
 4556TIP3   OH213624   5.749   1.543   0.618
 4556TIP3    H113625   5.843   1.531   0.632
 4556TIP3    H213626   5.741   1.557   0.523
 4557TIP3   OH213627   2.337   6.940   4.819
 4557TIP3    H113628   2.354   7.033   4.804
 4557TIP3    H213629   2.300   6.909   4.736
 4558TIP3   OH213630   4.749   4.449   3.553
 4558TIP3    H113631   4.833   4.405   3.550
 4558TIP3    H213632   4.711   4.426   3.638
 4559TIP3   OH213633   1.495   3.344   2.302
 4559TIP3    H113634   1.459   3.431   2.286
 4559TIP3    H213635   1.419   3.287   2.310
 4560TIP3   OH213636   3.736   6.726   3.190
 4560TIP3    H113637   3.646   6.722   3.158
 4560TIP3    H213638   3.734   6.790   3.261
 4561TIP3   OH213639   0.824   5.129   6.033
 4561TIP3    H113640   0.786   5.217   6.029
 4561TIP3    H213641   0.791   5.085   5.955
 4562TIP3   OH213642   5.681   1.831   6.004
 4562TIP3    H113643   5.614   1.820   5.937
 4562TIP3    H213644   5.640   1.799   6.085
 4563TIP3   OH213645   0.922   0.112   0.193
 4563TIP3    H113646   0.877   0.196   0.200
 4563TIP3    H213647   0.852   0.048   0.180
 4564TIP3   OH213648   1.943   0.777   3.924
 4564TIP3    H113649   1.985   0.863   3.928
 4564TIP3    H213650   1.946   0.753   3.832
 4565TIP3   OH213651   8.089   5.607   1.406
 4565TIP3    H113652   8.057   5.680   1.459
 4565TIP3    H213653   8.123   5.545   1.470
 4566TIP3   OH213654   5.676   5.386   3.268
 4566TIP3    H113655   5.692   5.453   3.335
 4566TIP3    H213656   5.602   5.335   3.302
 4567TIP3   OH213657   6.199   3.956   6.449
 4567TIP3    H113658   6.134   3.897   6.486
 4567TIP3    H213659   6.253   3.901   6.393
 4568TIP3   OH213660   3.675   7.375   2.832
 4568TIP3    H113661   3.659   7.465   2.806
 4568TIP3    H213662   3.696   7.380   2.926
 4569TIP3   OH213663   1.489   4.287   4.049
 4569TIP3    H113664   1.534   4.356   4.000
 4569TIP3    H213665   1.512   4.303   4.141
 4570TIP3   OH213666   4.153   5.554   5.531
 4570TIP3    H113667   4.067   5.557   5.573
 4570TIP3    H213668   4.172   5.460   5.521
 4571TIP3   OH213669   2.488   3.257   4.671
 4571TIP3    H113670   2.495   3.245   4.576
 4571TIP3    H213671   2.511   3.348   4.686
 4572TIP3   OH213672   8.273   7.267   0.437
 4572TIP3    H113673   8.270   7.335   0.370
 4572TIP3    H213674   8.192   7.278   0.487
 4573TIP3   OH213675   5.482   4.599   1.374
 4573TIP3    H113676   5.434   4.682   1.370
 4573TIP3    H213677   5.486   4.577   1.467
 4574TIP3   OH213678   1.150   6.482   1.786
 4574TIP3    H113679   1.099   6.555   1.823
 4574TIP3    H213680   1.131   6.408   1.843
 4575TIP3   OH213681   5.495   6.864   1.956
 4575TIP3    H113682   5.468   6.891   2.044
 4575TIP3    H213683   5.503   6.946   1.907
 4576TIP3   OH213684   7.791   2.968   1.733
 4576TIP3    H113685   7.853   2.943   1.665
 4576TIP3    H213686   7.744   2.888   1.754
 4577TIP3   OH213687   1.628   3.437   0.007
 4577TIP3    H113688   1.722   3.426  -0.005
 4577TIP3    H213689   1.618   3.455   0.101
 4578TIP3   OH213690   6.066   0.288   3.663
 4578TIP3    H113691   5.990   0.322   3.710
 4578TIP3    H213692   6.142   0.326   3.708
 4579TIP3   OH213693   4.935   2.999   6.466
 4579TIP3    H113694   4.989   2.985   6.543
 4579TIP3    H213695   4.845   2.995   6.499
 4580TIP3   OH213696   0.861   6.744   2.601
 4580TIP3    H113697   0.911   6.747   2.519
 4580TIP3    H213698   0.865   6.652   2.627
 4581TIP3   OH213699   1.460   0.558   1.162
 4581TIP3    H113700   1.480   0.626   1.098
 4581TIP3    H213701   1.365   0.562   1.172
 4582TIP3   OH213702   4.777   4.361   4.283
 4582TIP3    H113703   4.743   4.284   4.329
 4582TIP3    H213704   4.704   4.389   4.227
 4583TIP3   OH213705   0.374   7.638   4.579
 4583TIP3    H113706   0.282   7.618   4.568
 4583TIP3    H213707   0.419   7.588   4.511
 4584TIP3   OH213708   7.123   7.678   6.256
 4584TIP3    H113709   7.070   7.755   6.236
 4584TIP3    H213710   7.059   7.613   6.287
 4585TIP3   OH213711   6.283   1.223   5.888
 4585TIP3    H113712   6.303   1.268   5.805
 4585TIP3    H213713   6.235   1.288   5.939
 4586TIP3   OH213714   5.500   3.639   5.433
 4586TIP3    H113715   5.466   3.607   5.516
 4586TIP3    H213716   5.561   3.708   5.456
 4587TIP3   OH213717   7.263   7.578   4.777
 4587TIP3    H113718   7.319   7.656   4.772
 4587TIP3    H213719   7.257   7.547   4.687
 4588TIP3   OH213720   2.120   6.299   2.301
 4588TIP3    H113721   2.129   6.394   2.301
 4588TIP3    H213722   2.102   6.277   2.210
 4589TIP3   OH213723   6.549   1.196   1.680
 4589TIP3    H113724   6.506   1.166   1.760
 4589TIP3    H213725   6.531   1.128   1.616
 4590TIP3   OH213726   4.864   4.196   6.519
 4590TIP3    H113727   4.822   4.152   6.592
 4590TIP3    H213728   4.843   4.142   6.443
 4591TIP3   OH213729   5.362   2.524   1.948
 4591TIP3    H113730   5.391   2.548   2.036
 4591TIP3    H213731   5.364   2.606   1.899
 4592TIP3   OH213732   4.314   6.359   6.248
 4592TIP3    H113733   4.394   6.349   6.299
 4592TIP3    H213734   4.303   6.453   6.237
 4593TIP3   OH213735   6.872   5.504   4.867
 4593TIP3    H113736   6.954   5.486   4.913
 4593TIP3    H213737   6.889   5.584   4.818
 4594TIP3   OH213738   8.106   5.597   4.061
 4594TIP3    H113739   8.051   5.630   4.132
 4594TIP3    H213740   8.169   5.667   4.045
 4595TIP3   OH213741   0.222   4.937   6.652
 4595TIP3    H113742   0.262   4.975   6.574
 4595TIP3    H213743   0.279   4.963   6.724
 4596TIP3   OH213744   3.384   6.515   6.355
 4596TIP3    H113745   3.346   6.515   6.267
 4596TIP3    H213746   3.356   6.598   6.394
 4597TIP3   OH213747   0.901   4.490   3.704
 4597TIP3    H113748   0.853   4.507   3.785
 4597TIP3    H213749   0.885   4.567   3.651
 4598TIP3   OH213750   2.082   5.411   0.593
 4598TIP3    H113751   2.167   5.445   0.567
 4598TIP3    H213752   2.071   5.439   0.684
 4599TIP3   OH213753   3.703   1.692   5.910
 4599TIP3    H113754   3.674   1.627   5.846
 4599TIP3    H213755   3.767   1.646   5.965
 4600TIP3   OH213756   5.891   3.870   2.181
 4600TIP3    H113757   5.947   3.835   2.250
 4600TIP3    H213758   5.941   3.855   2.100
 4601TIP3   OH213759   1.883   4.963   2.428
 4601TIP3    H113760   1.870   5.054   2.455
 4601TIP3    H213761   1.885   4.914   2.511
 4602TIP3   OH213762   5.863   6.941   4.227
 4602TIP3    H113763   5.912   6.927   4.146
 4602TIP3    H213764   5.806   6.865   4.235
 4603TIP3   OH213765   4.059   0.343   2.532
 4603TIP3    H113766   3.974   0.330   2.489
 4603TIP3    H213767   4.071   0.265   2.586
 4604TIP3   OH213768   6.340   5.116   2.751
 4604TIP3    H113769   6.357   5.138   2.843
 4604TIP3    H213770   6.271   5.049   2.756
 4605TIP3   OH213771   4.971   3.465   2.811
 4605TIP3    H113772   5.011   3.393   2.762
 4605TIP3    H213773   5.006   3.456   2.899
 4606TIP3   OH213774   5.323   5.112   1.412
 4606TIP3    H113775   5.332   5.170   1.487
 4606TIP3    H213776   5.247   5.057   1.433
 4607TIP3   OH213777   6.108   1.917   1.152
 4607TIP3    H113778   6.190   1.959   1.125
 4607TIP3    H213779   6.133   1.828   1.174
 4608TIP3   OH213780   2.427   4.904   6.079
 4608TIP3    H113781   2.354   4.845   6.100
 4608TIP3    H213782   2.421   4.974   6.145
 4609TIP3   OH213783   8.129   3.064   4.702
 4609TIP3    H113784   8.050   3.116   4.718
 4609TIP3    H213785   8.152   3.082   4.610
 4610TIP3   OH213786   1.175   0.871   4.376
 4610TIP3    H113787   1.121   0.914   4.442
 4610TIP3    H213788   1.265   0.896   4.397
 4611TIP3   OH213789   7.935   5.918   0.424
 4611TIP3    H113790   8.027   5.908   0.448
 4611TIP3    H213791   7.935   5.925   0.329
 4612TIP3   OH213792   0.892   6.505   5.617
 4612TIP3    H113793   0.832   6.550   5.558
 4612TIP3    H213794   0.955   6.462   5.559
 4613TIP3   OH213795   7.710   5.832   0.852
 4613TIP3    H113796   7.711   5.754   0.797
 4613TIP3    H213797   7.773   5.891   0.811
 4614TIP3   OH213798   0.096   4.530   3.786
 4614TIP3    H113799   0.040   4.518   3.709
 4614TIP3    H213800   0.063   4.468   3.850
 4615TIP3   OH213801   5.544   3.615   3.513
 4615TIP3    H113802   5.560   3.687   3.452
 4615TIP3    H213803   5.631   3.586   3.541
 4616TIP3   OH213804   7.474   1.786   4.927
 4616TIP3    H113805   7.492   1.776   4.833
 4616TIP3    H213806   7.500   1.703   4.966
 4617TIP3   OH213807   1.222   6.607   5.422
 4617TIP3    H113808   1.160   6.538   5.445
 4617TIP3    H213809   1.267   6.627   5.504
 4618TIP3   OH213810   3.352   6.444   0.724
 4618TIP3    H113811   3.319   6.354   0.723
 4618TIP3    H213812   3.282   6.496   0.684
 4619TIP3   OH213813   0.337   3.267   5.579
 4619TIP3    H113814   0.342   3.223   5.664
 4619TIP3    H213815   0.258   3.230   5.539
 4620TIP3   OH213816   0.250   3.314   0.674
 4620TIP3    H113817   0.160   3.321   0.643
 4620TIP3    H213818   0.248   3.241   0.736
 4621TIP3   OH213819   5.298   1.240   6.766
 4621TIP3    H113820   5.345   1.225   6.684
 4621TIP3    H213821   5.323   1.166   6.822
 4622TIP3   OH213822   8.204   0.883   3.764
 4622TIP3    H113823   8.261   0.960   3.772
 4622TIP3    H213824   8.257   0.810   3.797
 4623TIP3   OH213825   7.892   6.228   2.994
 4623TIP3    H113826   7.917   6.139   2.971
 4623TIP3    H213827   7.802   6.220   3.025
 4624TIP3   OH213828   5.902   7.075   2.321
 4624TIP3    H113829   5.986   7.085   2.366
 4624TIP3    H213830   5.897   6.982   2.298
 4625TIP3   OH213831   6.667   0.863   6.150
 4625TIP3    H113832   6.731   0.920   6.191
 4625TIP3    H213833   6.586   0.914   6.149
 4626TIP3   OH213834   1.892   2.917   1.108
 4626TIP3    H113835   1.928   2.957   1.029
 4626TIP3    H213836   1.963   2.922   1.172
 4627TIP3   OH213837   6.973   0.292   4.626
 4627TIP3    H113838   7.069   0.292   4.623
 4627TIP3    H213839   6.947   0.259   4.539
 4628TIP3   OH213840   5.420   7.097   1.868
 4628TIP3    H113841   5.369   7.089   1.788
 4628TIP3    H213842   5.356   7.122   1.935
 4629TIP3   OH213843   1.333   7.612   5.057
 4629TIP3    H113844   1.302   7.569   5.137
 4629TIP3    H213845   1.391   7.548   5.016
 4630TIP3   OH213846   2.399   3.331   0.572
 4630TIP3    H113847   2.388   3.405   0.512
 4630TIP3    H213848   2.461   3.273   0.528
 4631TIP3   OH213849   5.081   1.905   6.451
 4631TIP3    H113850   5.080   1.869   6.362
 4631TIP3    H213851   5.174   1.920   6.469
 4632TIP3   OH213852   1.485   3.344   3.371
 4632TIP3    H113853   1.524   3.257   3.371
 4632TIP3    H213854   1.559   3.404   3.386
 4633TIP3   OH213855   0.772   3.428   0.648
 4633TIP3    H113856   0.829   3.486   0.701
 4633TIP3    H213857   0.684   3.448   0.679
 4634TIP3   OH213858   5.554   1.448   5.246
 4634TIP3    H113859   5.562   1.358   5.277
 4634TIP3    H213860   5.465   1.474   5.268
 4635TIP3   OH213861   3.680   7.046   3.099
 4635TIP3    H113862   3.702   6.990   3.024
 4635TIP3    H213863   3.719   7.003   3.174
 4636TIP3   OH213864   6.428   5.862   1.416
 4636TIP3    H113865   6.362   5.886   1.351
 4636TIP3    H213866   6.502   5.830   1.365
 4637TIP3   OH213867   4.109   0.637   3.543
 4637TIP3    H113868   4.156   0.695   3.603
 4637TIP3    H213869   4.176   0.605   3.483
 4638TIP3   OH213870   3.522   1.844   6.558
 4638TIP3    H113871   3.541   1.875   6.470
 4638TIP3    H213872   3.431   1.870   6.574
 4639TIP3   OH213873   7.144   0.813   3.075
 4639TIP3    H113874   7.198   0.892   3.079
 4639TIP3    H213875   7.086   0.827   3.000
 4640TIP3   OH213876   2.638   5.880   2.519
 4640TIP3    H113877   2.590   5.963   2.509
 4640TIP3    H213878   2.574   5.821   2.558
 4641TIP3   OH213879   5.296   1.436   4.863
 4641TIP3    H113880   5.246   1.517   4.858
 4641TIP3    H213881   5.340   1.430   4.778
 4642TIP3   OH213882   6.679   0.426   1.497
 4642TIP3    H113883   6.725   0.501   1.534
 4642TIP3    H213884   6.656   0.372   1.572
 4643TIP3   OH213885   6.627   2.301   2.317
 4643TIP3    H113886   6.593   2.224   2.362
 4643TIP3    H213887   6.553   2.361   2.312
 4644TIP3   OH213888   7.812   6.468   4.491
 4644TIP3    H113889   7.869   6.534   4.450
 4644TIP3    H213890   7.865   6.431   4.562
 4645TIP3   OH213891   4.851   0.142   3.396
 4645TIP3    H113892   4.833   0.048   3.395
 4645TIP3    H213893   4.869   0.162   3.488
 4646TIP3   OH213894   6.648   7.643   6.333
 4646TIP3    H113895   6.647   7.559   6.380
 4646TIP3    H213896   6.711   7.629   6.262
 4647TIP3   OH213897   4.738   5.910   6.813
 4647TIP3    H113898   4.790   5.958   6.749
 4647TIP3    H213899   4.734   5.821   6.779
 4648TIP3   OH213900   2.904   0.911   6.147
 4648TIP3    H113901   2.925   0.861   6.226
 4648TIP3    H213902   2.964   0.877   6.081
 4649TIP3   OH213903   6.820   4.197   6.435
 4649TIP3    H113904   6.751   4.154   6.485
 4649TIP3    H213905   6.858   4.259   6.497
 4650TIP3   OH213906   0.226   6.269   3.955
 4650TIP3    H113907   0.313   6.289   3.988
 4650TIP3    H213908   0.231   6.288   3.861
 4651TIP3   OH213909   3.200   3.082   6.601
 4651TIP3    H113910   3.188   3.147   6.670
 4651TIP3    H213911   3.226   3.003   6.647
 4652TIP3   OH213912   8.158   5.228   3.634
 4652TIP3    H113913   8.091   5.199   3.572
 4652TIP3    H213914   8.124   5.201   3.720
 4653TIP3   OH213915   6.746   1.032   3.072
 4653TIP3    H113916   6.754   0.941   3.043
 4653TIP3    H213917   6.785   1.083   3.001
 4654TIP3   OH213918   7.805   1.535   3.664
 4654TIP3    H113919   7.855   1.584   3.730
 4654TIP3    H213920   7.865   1.467   3.634
 4655TIP3   OH213921   6.936   0.028   6.439
 4655TIP3    H113922   6.932  -0.032   6.365
 4655TIP3    H213923   6.846   0.062   6.447
 4656TIP3   OH213924   7.607   7.025   3.718
 4656TIP3    H113925   7.649   7.110   3.721
 4656TIP3    H213926   7.528   7.039   3.665
 4657TIP3   OH213927   4.851   3.711   1.384
 4657TIP3    H113928   4.899   3.792   1.403
 4657TIP3    H213929   4.868   3.654   1.458
 4658TIP3   OH213930   4.001   4.478   1.071
 4658TIP3    H113931   4.059   4.554   1.069
 4658TIP3    H213932   4.004   4.448   1.163
 4659TIP3   OH213933   3.937   1.594   6.485
 4659TIP3    H113934   4.010   1.614   6.543
 4659TIP3    H213935   3.861   1.634   6.527
 4660TIP3   OH213936   7.834   5.296   5.691
 4660TIP3    H113937   7.756   5.270   5.741
 4660TIP3    H213938   7.830   5.391   5.687
 4661TIP3   OH213939   6.975   0.118   2.626
 4661TIP3    H113940   7.002   0.026   2.618
 4661TIP3    H213941   6.884   0.119   2.597
 4662TIP3   OH213942   7.747   5.730   1.092
 4662TIP3    H113943   7.729   5.769   1.006
 4662TIP3    H213944   7.782   5.803   1.144
 4663TIP3   OH213945   8.092   2.021   5.946
 4663TIP3    H113946   8.016   1.984   5.900
 4663TIP3    H213947   8.054   2.088   6.004
 4664TIP3   OH213948   5.212   5.243   3.237
 4664TIP3    H113949   5.146   5.293   3.190
 4664TIP3    H213950   5.285   5.304   3.249
 4665TIP3   OH213951   7.021   5.414   2.907
 4665TIP3    H113952   6.998   5.448   2.820
 4665TIP3    H213953   7.041   5.492   2.958
 4666TIP3   OH213954   6.488   0.935   4.631
 4666TIP3    H113955   6.543   1.006   4.665
 4666TIP3    H213956   6.503   0.937   4.537
 4667TIP3   OH213957   3.638   1.789   1.134
 4667TIP3    H113958   3.705   1.756   1.194
 4667TIP3    H213959   3.635   1.725   1.063
 4668TIP3   OH213960   8.084   1.182   2.242
 4668TIP3    H113961   7.997   1.144   2.226
 4668TIP3    H213962   8.080   1.269   2.204
 4669TIP3   OH213963   5.036   3.737   2.667
 4669TIP3    H113964   4.944   3.742   2.639
 4669TIP3    H213965   5.042   3.654   2.714
 4670TIP3   OH213966   1.230   3.984   5.406
 4670TIP3    H113967   1.148   4.004   5.451
 4670TIP3    H213968   1.273   3.919   5.461
 4671TIP3   OH213969   1.977   1.305   3.038
 4671TIP3    H113970   2.023   1.309   3.122
 4671TIP3    H213971   1.932   1.221   3.039
 4672TIP3   OH213972   5.486   5.812   0.438
 4672TIP3    H113973   5.412   5.758   0.465
 4672TIP3    H213974   5.504   5.785   0.348
 4673TIP3   OH213975   6.963   6.711   4.306
 4673TIP3    H113976   6.976   6.637   4.246
 4673TIP3    H213977   6.920   6.778   4.253
 4674TIP3   OH213978   1.254   4.768   3.006
 4674TIP3    H113979   1.265   4.729   2.919
 4674TIP3    H213980   1.162   4.751   3.028
 4675TIP3   OH213981   0.316   3.807   5.034
 4675TIP3    H113982   0.262   3.745   4.986
 4675TIP3    H213983   0.404   3.796   4.997
 4676TIP3   OH213984   3.050   6.127   6.499
 4676TIP3    H113985   3.093   6.130   6.584
 4676TIP3    H213986   3.119   6.152   6.437
 4677TIP3   OH213987   2.175   4.094   5.290
 4677TIP3    H113988   2.085   4.109   5.260
 4677TIP3    H213989   2.166   4.024   5.355
 4678TIP3   OH213990   2.107   2.804   4.568
 4678TIP3    H113991   2.099   2.878   4.507
 4678TIP3    H213992   2.072   2.729   4.519
 4679TIP3   OH213993   0.894   5.453   1.285
 4679TIP3    H113994   0.946   5.389   1.332
 4679TIP3    H213995   0.957   5.520   1.258
 4680TIP3   OH213996   6.334   4.378   6.339
 4680TIP3    H113997   6.303   4.388   6.429
 4680TIP3    H213998   6.381   4.459   6.321
 4681TIP3   OH213999   0.421   6.751   5.698
 4681TIP3    H114000   0.496   6.790   5.652
 4681TIP3    H214001   0.370   6.826   5.728
 4682TIP3   OH214002   1.667   1.650   5.919
 4682TIP3    H114003   1.652   1.714   5.988
 4682TIP3    H214004   1.735   1.592   5.954
 4683TIP3   OH214005  -0.004   1.973   1.785
 4683TIP3    H114006  -0.093   2.005   1.768
 4683TIP3    H214007  -0.012   1.877   1.784
 4684TIP3   OH214008   7.024   5.851   6.651
 4684TIP3    H114009   7.080   5.781   6.685
 4684TIP3    H214010   7.063   5.874   6.567
 4685TIP3   OH214011   5.766   2.484   6.243
 4685TIP3    H114012   5.825   2.548   6.283
 4685TIP3    H214013   5.815   2.402   6.242
 4686TIP3   OH214014   0.037   5.635   3.106
 4686TIP3    H114015  -0.034   5.699   3.096
 4686TIP3    H214016   0.017   5.592   3.190
 4687TIP3   OH214017   5.248   0.779   0.889
 4687TIP3    H114018   5.212   0.830   0.817
 4687TIP3    H214019   5.177   0.772   0.952
 4688TIP3   OH214020   3.100   3.402   6.079
 4688TIP3    H114021   3.127   3.405   5.988
 4688TIP3    H214022   3.108   3.310   6.104
 4689TIP3   OH214023   5.304   0.173   3.208
 4689TIP3    H114024   5.239   0.244   3.205
 4689TIP3    H214025   5.386   0.215   3.180
 4690TIP3   OH214026   1.972   5.977   5.391
 4690TIP3    H114027   1.995   5.922   5.315
 4690TIP3    H214028   2.013   6.061   5.372
 4691TIP3   OH214029   2.914   2.713   6.155
 4691TIP3    H114030   2.937   2.797   6.193
 4691TIP3    H214031   2.968   2.650   6.202
 4692TIP3   OH214032   2.024   2.444   3.791
 4692TIP3    H114033   2.102   2.389   3.781
 4692TIP3    H214034   1.975   2.404   3.863
 4693TIP3   OH214035   2.324   5.108   1.057
 4693TIP3    H114036   2.316   5.102   1.152
 4693TIP3    H214037   2.320   5.202   1.038
 4694TIP3   OH214038   7.845   2.702   1.107
 4694TIP3    H114039   7.787   2.649   1.052
 4694TIP3    H214040   7.802   2.705   1.193
 4695TIP3   OH214041   1.653   2.568   4.652
 4695TIP3    H114042   1.745   2.549   4.673
 4695TIP3    H214043   1.646   2.550   4.558
 4696TIP3   OH214044   5.046   7.254   2.931
 4696TIP3    H114045   5.048   7.199   3.009
 4696TIP3    H214046   4.991   7.206   2.869
 4697TIP3   OH214047   2.190   6.601   0.262
 4697TIP3    H114048   2.174   6.695   0.261
 4697TIP3    H214049   2.155   6.571   0.345
 4698TIP3   OH214050   3.085   6.620   5.458
 4698TIP3    H114051   3.109   6.699   5.409
 4698TIP3    H214052   3.012   6.647   5.513
 4699TIP3   OH214053   7.156   5.322   0.090
 4699TIP3    H114054   7.145   5.235   0.053
 4699TIP3    H214055   7.126   5.315   0.180
 4700TIP3   OH214056   2.330   6.334   0.088
 4700TIP3    H114057   2.417   6.334   0.048
 4700TIP3    H214058   2.309   6.427   0.100
 4701TIP3   OH214059   5.006   2.902   6.203
 4701TIP3    H114060   4.965   2.820   6.175
 4701TIP3    H214061   4.970   2.919   6.289
 4702TIP3   OH214062   3.859   4.350   4.702
 4702TIP3    H114063   3.905   4.428   4.732
 4702TIP3    H214064   3.777   4.349   4.752
 4703TIP3   OH214065   2.633   1.254   5.839
 4703TIP3    H114066   2.685   1.261   5.919
 4703TIP3    H214067   2.544   1.234   5.869
 4704TIP3   OH214068   7.696   7.025   0.043
 4704TIP3    H114069   7.704   6.964   0.116
 4704TIP3    H214070   7.785   7.059   0.031
 4705TIP3   OH214071   1.338   3.047   0.342
 4705TIP3    H114072   1.310   3.133   0.312
 4705TIP3    H214073   1.281   3.028   0.417
 4706TIP3   OH214074   1.104   2.979   1.994
 4706TIP3    H114075   1.197   2.989   2.011
 4706TIP3    H214076   1.099   2.931   1.911
 4707TIP3   OH214077   3.483   4.899   0.413
 4707TIP3    H114078   3.481   4.926   0.505
 4707TIP3    H214079   3.404   4.937   0.376
 4708TIP3   OH214080   5.219   0.043   6.168
 4708TIP3    H114081   5.240  -0.003   6.250
 4708TIP3    H214082   5.163   0.115   6.195
 4709TIP3   OH214083   3.281   0.990   5.089
 4709TIP3    H114084   3.298   1.005   5.182
 4709TIP3    H214085   3.216   0.919   5.088
 4710TIP3   OH214086   4.300   4.714   2.589
 4710TIP3    H114087   4.372   4.752   2.540
 4710TIP3    H214088   4.286   4.628   2.548
 4711TIP3   OH214089   1.636   0.283   2.592
 4711TIP3    H114090   1.616   0.355   2.533
 4711TIP3    H214091   1.578   0.212   2.565
 4712TIP3   OH214092   0.572   5.290   4.254
 4712TIP3    H114093   0.556   5.260   4.165
 4712TIP3    H214094   0.514   5.237   4.308
 4713TIP3   OH214095   7.591   6.164   3.266
 4713TIP3    H114096   7.592   6.172   3.170
 4713TIP3    H214097   7.635   6.243   3.296
 4714TIP3   OH214098   0.720   2.150   3.517
 4714TIP3    H114099   0.795   2.093   3.499
 4714TIP3    H214100   0.693   2.126   3.606
 4715TIP3   OH214101   7.801   4.225   3.690
 4715TIP3    H114102   7.715   4.205   3.726
 4715TIP3    H214103   7.858   4.156   3.724
 4716TIP3   OH214104   4.198   4.351   0.805
 4716TIP3    H114105   4.206   4.267   0.760
 4716TIP3    H214106   4.105   4.373   0.799
 4717TIP3   OH214107   5.348   1.915   0.855
 4717TIP3    H114108   5.385   1.960   0.779
 4717TIP3    H214109   5.420   1.912   0.919
 4718TIP3   OH214110   2.152   2.112   0.249
 4718TIP3    H114111   2.074   2.057   0.245
 4718TIP3    H214112   2.188   2.110   0.161
 4719TIP3   OH214113   6.793   6.851   0.853
 4719TIP3    H114114   6.811   6.907   0.929
 4719TIP3    H214115   6.878   6.815   0.829
 4720TIP3   OH214116   1.595   7.083   2.607
 4720TIP3    H114117   1.680   7.092   2.563
 4720TIP3    H214118   1.543   7.027   2.548
 4721TIP3   OH214119   7.473   1.947   3.172
 4721TIP3    H114120   7.516   2.028   3.143
 4721TIP3    H214121   7.518   1.925   3.254
 4722TIP3   OH214122   0.744   3.636   2.884
 4722TIP3    H114123   0.695   3.663   2.961
 4722TIP3    H214124   0.710   3.691   2.813
 4723TIP3   OH214125   6.978   4.874   3.095
 4723TIP3    H114126   7.036   4.851   3.168
 4723TIP3    H214127   7.011   4.958   3.064
 4724TIP3   OH214128   6.467   4.346   2.922
 4724TIP3    H114129   6.545   4.366   2.870
 4724TIP3    H214130   6.409   4.299   2.862
 4725TIP3   OH214131   3.870   6.115   0.973
 4725TIP3    H114132   3.930   6.078   1.038
 4725TIP3    H214133   3.924   6.131   0.896
 4726TIP3   OH214134   3.359   4.434   1.177
 4726TIP3    H114135   3.448   4.428   1.143
 4726TIP3    H214136   3.360   4.381   1.257
 4727TIP3   OH214137   5.015   3.970   1.155
 4727TIP3    H114138   4.999   3.890   1.105
 4727TIP3    H214139   5.042   4.034   1.090
 4728TIP3   OH214140   0.477   4.312   4.395
 4728TIP3    H114141   0.564   4.346   4.372
 4728TIP3    H214142   0.446   4.371   4.464
 4729TIP3   OH214143   7.714   0.928   4.206
 4729TIP3    H114144   7.649   0.987   4.167
 4729TIP3    H214145   7.756   0.885   4.132
 4730TIP3   OH214146   7.946   0.858   0.719
 4730TIP3    H114147   7.907   0.940   0.751
 4730TIP3    H214148   8.007   0.886   0.651
 4731TIP3   OH214149   1.350   6.924   6.277
 4731TIP3    H114150   1.371   7.012   6.308
 4731TIP3    H214151   1.429   6.873   6.297
 4732TIP3   OH214152   3.630   0.168   2.165
 4732TIP3    H114153   3.560   0.233   2.158
 4732TIP3    H214154   3.587   0.091   2.201
 4733TIP3   OH214155   6.964   3.988   6.372
 4733TIP3    H114156   6.934   4.076   6.391
 4733TIP3    H214157   6.908   3.931   6.425
 4734TIP3   OH214158   7.178   4.616   1.062
 4734TIP3    H114159   7.153   4.707   1.044
 4734TIP3    H214160   7.100   4.576   1.100
 4735TIP3   OH214161   2.857   4.850   5.739
 4735TIP3    H114162   2.821   4.938   5.752
 4735TIP3    H214163   2.808   4.795   5.799
 4736TIP3   OH214164   2.048   7.704   4.504
 4736TIP3    H114165   1.971   7.724   4.558
 4736TIP3    H214166   2.073   7.615   4.530
 4737TIP3   OH214167   4.190   6.478   1.074
 4737TIP3    H114168   4.118   6.518   1.123
 4737TIP3    H214169   4.249   6.551   1.054
 4738TIP3   OH214170   0.995   5.159   2.186
 4738TIP3    H114171   1.015   5.150   2.093
 4738TIP3    H214172   0.924   5.224   2.190
 4739TIP3   OH214173   0.151   7.736   3.500
 4739TIP3    H114174   0.063   7.763   3.474
 4739TIP3    H214175   0.163   7.651   3.458
 4740TIP3   OH214176   5.723   7.616   4.224
 4740TIP3    H114177   5.695   7.663   4.302
 4740TIP3    H214178   5.767   7.538   4.257
 4741TIP3   OH214179   2.288   6.610   0.976
 4741TIP3    H114180   2.251   6.590   0.890
 4741TIP3    H214181   2.364   6.551   0.983
 4742TIP3   OH214182   2.220   0.616   4.215
 4742TIP3    H114183   2.225   0.536   4.267
 4742TIP3    H214184   2.310   0.632   4.187
 4743TIP3   OH214185   3.026   1.047   4.222
 4743TIP3    H114186   2.951   1.104   4.206
 4743TIP3    H214187   3.005   1.002   4.304
 4744TIP3   OH214188   5.669   3.144   4.978
 4744TIP3    H114189   5.682   3.073   4.915
 4744TIP3    H214190   5.757   3.174   4.999
 4745TIP3   OH214191   2.755   3.716   3.110
 4745TIP3    H114192   2.824   3.704   3.045
 4745TIP3    H214193   2.753   3.633   3.159
 4746TIP3   OH214194   5.993   5.336   2.170
 4746TIP3    H114195   6.016   5.285   2.093
 4746TIP3    H214196   6.025   5.284   2.244
 4747TIP3   OH214197   3.921   1.247   5.346
 4747TIP3    H114198   3.926   1.341   5.325
 4747TIP3    H214199   3.983   1.206   5.285
 4748TIP3   OH214200   5.092   3.327   5.018
 4748TIP3    H114201   5.139   3.404   4.987
 4748TIP3    H214202   5.140   3.299   5.096
 4749TIP3   OH214203   3.254   0.039   5.985
 4749TIP3    H114204   3.212   0.031   6.071
 4749TIP3    H214205   3.183   0.060   5.925
 4750TIP3   OH214206   4.071   3.507   6.362
 4750TIP3    H114207   4.128   3.569   6.408
 4750TIP3    H214208   4.131   3.455   6.309
 4751TIP3   OH214209   6.517   3.227   5.193
 4751TIP3    H114210   6.431   3.267   5.205
 4751TIP3    H214211   6.511   3.178   5.111
 4752TIP3   OH214212   4.382   0.720   1.588
 4752TIP3    H114213   4.346   0.631   1.585
 4752TIP3    H214214   4.476   0.708   1.578
 4753TIP3   OH214215   1.987   7.466   2.634
 4753TIP3    H114216   2.024   7.378   2.635
 4753TIP3    H214217   2.031   7.512   2.705
 4754TIP3   OH214218   0.092   4.784   6.199
 4754TIP3    H114219   0.047   4.774   6.282
 4754TIP3    H214220   0.113   4.877   6.193
 4755TIP3   OH214221   4.210   1.238   3.226
 4755TIP3    H114222   4.234   1.326   3.254
 4755TIP3    H214223   4.127   1.220   3.270
 4756TIP3   OH214224   5.006   2.224   2.995
 4756TIP3    H114225   5.102   2.225   2.997
 4756TIP3    H214226   4.980   2.265   3.077
 4757TIP3   OH214227   8.133   4.661   2.089
 4757TIP3    H114228   8.090   4.678   2.173
 4757TIP3    H214229   8.114   4.739   2.036
 4758TIP3   OH214230   2.402   7.535   2.962
 4758TIP3    H114231   2.379   7.624   2.991
 4758TIP3    H214232   2.393   7.538   2.867
 4759TIP3   OH214233   4.693   3.193   6.240
 4759TIP3    H114234   4.788   3.206   6.230
 4759TIP3    H214235   4.668   3.253   6.310
 4760TIP3   OH214236   1.911   4.516   2.347
 4760TIP3    H114237   1.826   4.553   2.319
 4760TIP3    H214238   1.974   4.586   2.330
 4761TIP3   OH214239   3.773   1.094   6.530
 4761TIP3    H114240   3.810   1.043   6.602
 4761TIP3    H214241   3.763   1.182   6.567
 4762TIP3   OH214242   4.273   5.825   6.016
 4762TIP3    H114243   4.271   5.891   6.085
 4762TIP3    H214244   4.280   5.875   5.935
 4763TIP3   OH214245   6.435   1.162   1.230
 4763TIP3    H114246   6.523   1.135   1.257
 4763TIP3    H214247   6.391   1.183   1.312
 4764TIP3   OH214248   2.362   1.861   4.320
 4764TIP3    H114249   2.305   1.887   4.393
 4764TIP3    H214250   2.304   1.861   4.244
 4765TIP3   OH214251   1.687   3.941   3.327
 4765TIP3    H114252   1.716   3.912   3.241
 4765TIP3    H214253   1.768   3.954   3.377
 4766TIP3   OH214254   3.962   2.962   5.726
 4766TIP3    H114255   3.891   2.966   5.791
 4766TIP3    H214256   3.932   2.899   5.661
 4767TIP3   OH214257   5.596   6.387   6.599
 4767TIP3    H114258   5.632   6.309   6.557
 4767TIP3    H214259   5.667   6.420   6.653
 4768TIP3   OH214260   6.477   5.138   6.329
 4768TIP3    H114261   6.405   5.160   6.389
 4768TIP3    H214262   6.437   5.081   6.264
 4769TIP3   OH214263   7.552   0.477   2.489
 4769TIP3    H114264   7.631   0.459   2.438
 4769TIP3    H214265   7.485   0.493   2.424
 4770TIP3   OH214266   6.284   0.678   1.317
 4770TIP3    H114267   6.291   0.724   1.401
 4770TIP3    H214268   6.356   0.615   1.319
 4771TIP3   OH214269   4.564   4.165   1.651
 4771TIP3    H114270   4.597   4.242   1.604
 4771TIP3    H214271   4.481   4.145   1.607
 4772TIP3   OH214272   7.179   6.531   4.050
 4772TIP3    H114273   7.165   6.494   3.963
 4772TIP3    H214274   7.225   6.613   4.035
 4773TIP3   OH214275   3.219   5.241   0.512
 4773TIP3    H114276   3.267   5.244   0.429
 4773TIP3    H214277   3.264   5.173   0.563
 4774TIP3   OH214278   5.491   4.589   2.786
 4774TIP3    H114279   5.580   4.595   2.819
 4774TIP3    H214280   5.447   4.527   2.844
 4775TIP3   OH214281   3.753   5.815   4.722
 4775TIP3    H114282   3.836   5.776   4.697
 4775TIP3    H214283   3.691   5.783   4.657
 4776TIP3   OH214284   4.276   0.528   0.526
 4776TIP3    H114285   4.318   0.584   0.592
 4776TIP3    H214286   4.243   0.590   0.461
 4777TIP3   OH214287   3.658   6.266   2.209
 4777TIP3    H114288   3.596   6.200   2.176
 4777TIP3    H214289   3.604   6.340   2.235
 4778TIP3   OH214290   4.246   7.473   6.606
 4778TIP3    H114291   4.262   7.409   6.675
 4778TIP3    H214292   4.291   7.552   6.636
 4779TIP3   OH214293   1.316   3.755   5.916
 4779TIP3    H114294   1.281   3.666   5.910
 4779TIP3    H214295   1.252   3.802   5.969
 4780TIP3   OH214296   2.747   3.187   2.017
 4780TIP3    H114297   2.735   3.106   2.066
 4780TIP3    H214298   2.762   3.254   2.085
 4781TIP3   OH214299   3.331   2.905   5.686
 4781TIP3    H114300   3.344   2.998   5.669
 4781TIP3    H214301   3.291   2.871   5.606
 4782TIP3   OH214302   7.491   2.136   0.366
 4782TIP3    H114303   7.584   2.156   0.356
 4782TIP3    H214304   7.468   2.176   0.450
 4783TIP3   OH214305   0.558   1.260   3.385
 4783TIP3    H114306   0.610   1.256   3.305
 4783TIP3    H214307   0.593   1.336   3.432
 4784TIP3   OH214308   0.869   2.306   2.494
 4784TIP3    H114309   0.805   2.374   2.515
 4784TIP3    H214310   0.884   2.262   2.578
 4785TIP3   OH214311   1.511   6.790   2.677
 4785TIP3    H114312   1.462   6.873   2.679
 4785TIP3    H214313   1.541   6.778   2.767
 4786TIP3   OH214314   5.289   1.622   1.502
 4786TIP3    H114315   5.333   1.706   1.519
 4786TIP3    H214316   5.259   1.629   1.411
 4787TIP3   OH214317   4.617   5.916   5.119
 4787TIP3    H114318   4.664   5.897   5.200
 4787TIP3    H214319   4.678   5.967   5.067
 4788TIP3   OH214320   1.585   4.743   0.615
 4788TIP3    H114321   1.503   4.706   0.649
 4788TIP3    H214322   1.628   4.781   0.692
 4789TIP3   OH214323   7.170   6.236   2.541
 4789TIP3    H114324   7.159   6.168   2.475
 4789TIP3    H214325   7.081   6.256   2.571
 4790TIP3   OH214326   3.348   4.666   2.222
 4790TIP3    H114327   3.298   4.599   2.175
 4790TIP3    H214328   3.432   4.624   2.241
 4791TIP3   OH214329   2.891   5.895   2.807
 4791TIP3    H114330   2.845   5.930   2.730
 4791TIP3    H214331   2.979   5.875   2.775
 4792TIP3   OH214332   6.447   5.494   6.022
 4792TIP3    H114333   6.466   5.410   5.982
 4792TIP3    H214334   6.367   5.480   6.073
 4793TIP3   OH214335   5.016   1.039   0.774
 4793TIP3    H114336   5.106   1.031   0.744
 4793TIP3    H214337   5.011   1.126   0.813
 4794TIP3   OH214338   3.787   1.268   0.194
 4794TIP3    H114339   3.730   1.328   0.242
 4794TIP3    H214340   3.808   1.314   0.113
 4795TIP3   OH214341   3.040   5.223   0.845
 4795TIP3    H114342   3.091   5.144   0.859
 4795TIP3    H214343   3.006   5.215   0.756
 4796TIP3   OH214344   1.726   3.316   3.008
 4796TIP3    H114345   1.818   3.295   3.021
 4796TIP3    H214346   1.679   3.238   3.038
 4797TIP3   OH214347   5.629   6.452   3.818
 4797TIP3    H114348   5.717   6.437   3.782
 4797TIP3    H214349   5.578   6.376   3.789
 4798TIP3   OH214350   1.719   1.293   1.885
 4798TIP3    H114351   1.653   1.344   1.838
 4798TIP3    H214352   1.798   1.303   1.832
 4799TIP3   OH214353   6.387   0.974   0.723
 4799TIP3    H114354   6.421   1.037   0.660
 4799TIP3    H214355   6.457   0.909   0.731
 4800TIP3   OH214356   0.687   1.870   2.677
 4800TIP3    H114357   0.658   1.836   2.762
 4800TIP3    H214358   0.619   1.842   2.616
 4801TIP3   OH214359   1.671   2.139   6.697
 4801TIP3    H114360   1.647   2.216   6.748
 4801TIP3    H214361   1.630   2.066   6.743
 4802TIP3   OH214362   7.148   4.691   3.902
 4802TIP3    H114363   7.063   4.701   3.944
 4802TIP3    H214364   7.134   4.622   3.837
 4803TIP3   OH214365   5.336   5.958   5.265
 4803TIP3    H114366   5.252   6.003   5.266
 4803TIP3    H214367   5.364   5.959   5.174
 4804TIP3   OH214368   6.052   6.502   1.860
 4804TIP3    H114369   6.016   6.451   1.787
 4804TIP3    H214370   6.045   6.593   1.831
 4805TIP3   OH214371   6.143   5.321   6.750
 4805TIP3    H114372   6.118   5.276   6.670
 4805TIP3    H214373   6.118   5.262   6.821
 4806TIP3   OH214374   1.031   6.552   4.722
 4806TIP3    H114375   0.982   6.579   4.645
 4806TIP3    H214376   0.974   6.489   4.767
 4807TIP3   OH214377   4.257   2.679   5.245
 4807TIP3    H114378   4.201   2.739   5.196
 4807TIP3    H214379   4.344   2.694   5.211
 4808TIP3   OH214380   3.366   6.402   4.403
 4808TIP3    H114381   3.435   6.433   4.343
 4808TIP3    H214382   3.299   6.366   4.345
 4809TIP3   OH214383   2.779   1.517   4.969
 4809TIP3    H114384   2.691   1.482   4.987
 4809TIP3    H214385   2.838   1.450   5.003
 4810TIP3   OH214386   0.569   3.995   6.602
 4810TIP3    H114387   0.569   3.953   6.516
 4810TIP3    H214388   0.486   4.042   6.606
 4811TIP3   OH214389   2.050   5.960   4.717
 4811TIP3    H114390   2.030   5.990   4.628
 4811TIP3    H214391   2.099   6.031   4.756
 4812TIP3   OH214392   4.540   3.700   4.653
 4812TIP3    H114393   4.554   3.637   4.582
 4812TIP3    H214394   4.495   3.774   4.612
 4813TIP3   OH214395   0.235   0.183   0.727
 4813TIP3    H114396   0.316   0.229   0.706
 4813TIP3    H214397   0.174   0.208   0.658
 4814TIP3   OH214398   7.644   6.580   5.305
 4814TIP3    H114399   7.632   6.633   5.226
 4814TIP3    H214400   7.734   6.548   5.300
 4815TIP3   OH214401   5.257   3.187   4.468
 4815TIP3    H114402   5.218   3.170   4.382
 4815TIP3    H214403   5.346   3.151   4.462
 4816TIP3   OH214404   6.378   3.924   6.692
 4816TIP3    H114405   6.391   3.953   6.602
 4816TIP3    H214406   6.336   3.839   6.684
 4817TIP3   OH214407   0.375   1.913   1.607
 4817TIP3    H114408   0.411   1.840   1.658
 4817TIP3    H214409   0.293   1.880   1.572
 4818TIP3   OH214410   1.240   2.087   2.193
 4818TIP3    H114411   1.176   2.148   2.229
 4818TIP3    H214412   1.187   2.015   2.157
 4819TIP3   OH214413   4.124   0.685   0.382
 4819TIP3    H114414   4.078   0.617   0.333
 4819TIP3    H214415   4.054   0.737   0.423
 4820TIP3   OH214416   6.119   7.262   2.720
 4820TIP3    H114417   6.074   7.346   2.724
 4820TIP3    H214418   6.055   7.199   2.754
 4821TIP3   OH214419   7.226   6.795   4.300
 4821TIP3    H114420   7.161   6.732   4.331
 4821TIP3    H214421   7.287   6.804   4.374
 4822TIP3   OH214422   4.632   3.623   1.713
 4822TIP3    H114423   4.537   3.632   1.710
 4822TIP3    H214424   4.648   3.533   1.684
 4823TIP3   OH214425   5.924   1.087   4.892
 4823TIP3    H114426   5.873   1.064   4.814
 4823TIP3    H214427   5.867   1.065   4.965
 4824TIP3   OH214428   2.908   7.637   0.498
 4824TIP3    H114429   2.862   7.706   0.452
 4824TIP3    H214430   2.992   7.676   0.523
 4825TIP3   OH214431   3.614   4.503   2.629
 4825TIP3    H114432   3.585   4.558   2.702
 4825TIP3    H214433   3.698   4.540   2.604
 4826TIP3   OH214434   6.915   6.083   3.442
 4826TIP3    H114435   6.968   6.038   3.376
 4826TIP3    H214436   6.892   6.015   3.506
 4827TIP3   OH214437   3.539   7.046   0.699
 4827TIP3    H114438   3.586   7.123   0.665
 4827TIP3    H214439   3.536   7.060   0.794
 4828TIP3   OH214440   0.976   1.255   4.368
 4828TIP3    H114441   0.950   1.335   4.321
 4828TIP3    H214442   1.070   1.266   4.382
 4829TIP3   OH214443   6.659   3.282   3.938
 4829TIP3    H114444   6.730   3.262   3.877
 4829TIP3    H214445   6.582   3.239   3.901
 4830TIP3   OH214446   7.355   7.537   3.441
 4830TIP3    H114447   7.423   7.477   3.411
 4830TIP3    H214448   7.327   7.584   3.363
 4831TIP3   OH214449   3.576   0.601   5.303
 4831TIP3    H114450   3.600   0.691   5.281
 4831TIP3    H214451   3.612   0.588   5.391
 4832TIP3   OH214452   2.347   2.898   4.963
 4832TIP3    H114453   2.353   2.816   5.011
 4832TIP3    H214454   2.437   2.916   4.934
 4833TIP3   OH214455   3.288   1.413   1.677
 4833TIP3    H114456   3.314   1.488   1.730
 4833TIP3    H214457   3.240   1.451   1.603
 4834TIP3   OH214458   5.477   6.682   2.502
 4834TIP3    H114459   5.539   6.611   2.518
 4834TIP3    H214460   5.530   6.762   2.509
 4835TIP3   OH214461   4.926   0.627   5.107
 4835TIP3    H114462   4.904   0.592   5.193
 4835TIP3    H214463   4.903   0.555   5.047
 4836TIP3   OH214464   4.190   7.545   0.815
 4836TIP3    H114465   4.232   7.594   0.885
 4836TIP3    H214466   4.185   7.606   0.742
 4837TIP3   OH214467   3.646   1.811   0.329
 4837TIP3    H114468   3.602   1.746   0.275
 4837TIP3    H214469   3.723   1.766   0.364
 4838TIP3   OH214470   7.753   2.894   3.803
 4838TIP3    H114471   7.735   2.986   3.821
 4838TIP3    H214472   7.679   2.848   3.842
 4839TIP3   OH214473   5.655   7.774   4.443
 4839TIP3    H114474   5.666   7.858   4.398
 4839TIP3    H214475   5.735   7.763   4.494
 4840TIP3   OH214476   5.742   0.080   3.876
 4840TIP3    H114477   5.664   0.049   3.923
 4840TIP3    H214478   5.812   0.077   3.942
 4841TIP3   OH214479   3.803   5.106   2.965
 4841TIP3    H114480   3.896   5.101   2.944
 4841TIP3    H214481   3.777   5.016   2.983
 4842TIP3   OH214482   0.919   3.462   1.873
 4842TIP3    H114483   0.889   3.396   1.936
 4842TIP3    H214484   0.943   3.537   1.927
 4843TIP3   OH214485   5.841   6.140   5.514
 4843TIP3    H114486   5.865   6.220   5.560
 4843TIP3    H214487   5.752   6.155   5.484
 4844TIP3   OH214488   4.294   0.502   5.031
 4844TIP3    H114489   4.372   0.550   5.060
 4844TIP3    H214490   4.328   0.435   4.971
 4845TIP3   OH214491   3.227   3.110   0.620
 4845TIP3    H114492   3.196   3.141   0.705
 4845TIP3    H214493   3.192   3.173   0.557
 4846TIP3   OH214494   7.337   3.756   4.512
 4846TIP3    H114495   7.323   3.841   4.470
 4846TIP3    H214496   7.252   3.733   4.550
 4847TIP3   OH214497   5.052   6.850   3.003
 4847TIP3    H114498   4.972   6.839   2.951
 4847TIP3    H214499   5.031   6.922   3.064
 4848TIP3   OH214500   1.317   0.073   5.837
 4848TIP3    H114501   1.308   0.164   5.808
 4848TIP3    H214502   1.245   0.027   5.795
 4849TIP3   OH214503   5.975   4.584   2.104
 4849TIP3    H114504   6.005   4.673   2.088
 4849TIP3    H214505   6.039   4.548   2.166
 4850TIP3   OH214506   5.390   5.011   6.404
 4850TIP3    H114507   5.366   4.939   6.462
 4850TIP3    H214508   5.485   5.006   6.397
 4851TIP3   OH214509   1.845   0.480   4.532
 4851TIP3    H114510   1.927   0.525   4.514
 4851TIP3    H214511   1.793   0.542   4.582
 4852TIP3   OH214512   1.369   0.033   4.846
 4852TIP3    H114513   1.448   0.081   4.870
 4852TIP3    H214514   1.392  -0.010   4.763
 4853TIP3   OH214515   1.259   3.006   0.972
 4853TIP3    H114516   1.244   2.950   0.896
 4853TIP3    H214517   1.288   2.946   1.041
 4854TIP3   OH214518   5.607   7.156   2.303
 4854TIP3    H114519   5.699   7.129   2.300
 4854TIP3    H214520   5.607   7.242   2.260
 4855TIP3   OH214521   3.098   5.270   2.460
 4855TIP3    H114522   3.100   5.231   2.373
 4855TIP3    H214523   3.148   5.208   2.515
 4856TIP3   OH214524   3.979   0.852   2.582
 4856TIP3    H114525   3.995   0.827   2.491
 4856TIP3    H214526   3.907   0.915   2.577
 4857TIP3   OH214527   4.653   3.240   5.912
 4857TIP3    H114528   4.683   3.264   5.825
 4857TIP3    H214529   4.732   3.216   5.960
 4858TIP3   OH214530   4.523   1.790   0.729
 4858TIP3    H114531   4.522   1.861   0.793
 4858TIP3    H214532   4.527   1.834   0.644
 4859TIP3   OH214533   4.111   3.983   1.584
 4859TIP3    H114534   4.086   3.916   1.520
 4859TIP3    H214535   4.207   3.986   1.580
 4860TIP3   OH214536   5.876   4.373   1.585
 4860TIP3    H114537   5.898   4.441   1.649
 4860TIP3    H214538   5.852   4.297   1.639
 4861TIP3   OH214539   1.789   7.023   0.054
 4861TIP3    H114540   1.877   7.051   0.075
 4861TIP3    H214541   1.785   7.026  -0.042
 4862TIP3   OH214542   1.802   2.794   6.552
 4862TIP3    H114543   1.761   2.707   6.557
 4862TIP3    H214544   1.729   2.855   6.565
 4863TIP3   OH214545   6.710   0.597   3.598
 4863TIP3    H114546   6.797   0.596   3.638
 4863TIP3    H214547   6.650   0.619   3.669
 4864TIP3   OH214548   5.611   3.825   2.043
 4864TIP3    H114549   5.542   3.766   2.012
 4864TIP3    H214550   5.679   3.767   2.078
 4865TIP3   OH214551   8.230   3.383   4.796
 4865TIP3    H114552   8.301   3.444   4.818
 4865TIP3    H214553   8.163   3.438   4.755
 4866TIP3   OH214554   3.017   1.152   6.536
 4866TIP3    H114555   3.073   1.210   6.484
 4866TIP3    H214556   3.038   1.173   6.627
 4867TIP3   OH214557   5.950   4.730   0.575
 4867TIP3    H114558   6.033   4.711   0.617
 4867TIP3    H214559   5.896   4.768   0.644
 4868TIP3   OH214560   3.574   5.379   4.061
 4868TIP3    H114561   3.524   5.461   4.066
 4868TIP3    H214562   3.509   5.313   4.037
 4869TIP3   OH214563   2.545   0.836   5.357
 4869TIP3    H114564   2.529   0.922   5.395
 4869TIP3    H214565   2.576   0.854   5.268
 4870TIP3   OH214566   6.192   0.426   3.051
 4870TIP3    H114567   6.182   0.445   3.144
 4870TIP3    H214568   6.257   0.490   3.020
 4871TIP3   OH214569   5.096   4.476   1.358
 4871TIP3    H114570   5.024   4.465   1.296
 4871TIP3    H214571   5.065   4.544   1.419
 4872TIP3   OH214572   0.452   0.718   1.332
 4872TIP3    H114573   0.400   0.718   1.412
 4872TIP3    H214574   0.402   0.663   1.271
 4873TIP3   OH214575   4.601   0.318   2.297
 4873TIP3    H114576   4.598   0.412   2.313
 4873TIP3    H214577   4.515   0.297   2.262
 4874TIP3   OH214578   1.176   6.109   0.412
 4874TIP3    H114579   1.158   6.113   0.506
 4874TIP3    H214580   1.134   6.187   0.376
 4875TIP3   OH214581   0.327   5.632   3.751
 4875TIP3    H114582   0.247   5.580   3.758
 4875TIP3    H214583   0.361   5.611   3.664
 4876TIP3   OH214584   6.913   4.936   1.805
 4876TIP3    H114585   6.913   5.016   1.751
 4876TIP3    H214586   7.006   4.915   1.815
 4877TIP3   OH214587   6.336   2.910   1.925
 4877TIP3    H114588   6.357   2.998   1.955
 4877TIP3    H214589   6.411   2.885   1.870
 4878TIP3   OH214590   0.424   4.909   5.393
 4878TIP3    H114591   0.392   4.924   5.304
 4878TIP3    H214592   0.438   4.814   5.398
 4879TIP3   OH214593   6.235   6.446   0.908
 4879TIP3    H114594   6.286   6.377   0.864
 4879TIP3    H214595   6.301   6.496   0.956
 4880TIP3   OH214596   4.462   3.132   1.501
 4880TIP3    H114597   4.519   3.097   1.433
 4880TIP3    H214598   4.492   3.222   1.514
 4881TIP3   OH214599   4.604   0.066   5.531
 4881TIP3    H114600   4.690   0.104   5.518
 4881TIP3    H214601   4.614   0.008   5.606
 4882TIP3   OH214602   5.657   7.772   1.638
 4882TIP3    H114603   5.619   7.723   1.710
 4882TIP3    H214604   5.739   7.807   1.673
 4883TIP3   OH214605   0.169   7.093   6.669
 4883TIP3    H114606   0.123   7.023   6.714
 4883TIP3    H214607   0.152   7.077   6.576
 4884TIP3   OH214608   6.815   4.932   3.506
 4884TIP3    H114609   6.838   5.008   3.560
 4884TIP3    H214610   6.846   4.955   3.418
 4885TIP3   OH214611   4.466   7.016   5.203
 4885TIP3    H114612   4.433   6.942   5.254
 4885TIP3    H214613   4.389   7.071   5.188
 4886TIP3   OH214614   4.811   6.653   1.819
 4886TIP3    H114615   4.863   6.648   1.899
 4886TIP3    H214616   4.799   6.562   1.792
 4887TIP3   OH214617   4.527   1.643   1.468
 4887TIP3    H114618   4.483   1.671   1.388
 4887TIP3    H214619   4.555   1.725   1.509
 4888TIP3   OH214620   6.911   0.738   4.771
 4888TIP3    H114621   6.852   0.764   4.841
 4888TIP3    H214622   6.989   0.705   4.816
 4889TIP3   OH214623   7.079   1.286   3.977
 4889TIP3    H114624   7.162   1.310   4.018
 4889TIP3    H214625   7.028   1.367   3.978
 4890TIP3   OH214626   5.965   1.968   2.983
 4890TIP3    H114627   5.887   1.978   2.929
 4890TIP3    H214628   5.934   1.925   3.062
 4891TIP3   OH214629   7.303   2.639   6.378
 4891TIP3    H114630   7.390   2.621   6.415
 4891TIP3    H214631   7.256   2.556   6.386
 4892TIP3   OH214632   5.785   0.615   3.607
 4892TIP3    H114633   5.873   0.646   3.589
 4892TIP3    H214634   5.762   0.656   3.691
 4893TIP3   OH214635   8.170   6.000   1.909
 4893TIP3    H114636   8.180   6.065   1.840
 4893TIP3    H214637   8.104   5.939   1.875
 4894TIP3   OH214638   4.437   4.476   1.785
 4894TIP3    H114639   4.456   4.470   1.691
 4894TIP3    H214640   4.342   4.480   1.790
 4895TIP3   OH214641   5.234   7.848   4.851
 4895TIP3    H114642   5.293   7.802   4.911
 4895TIP3    H214643   5.217   7.785   4.781
 4896TIP3   OH214644   0.935   6.849   1.340
 4896TIP3    H114645   0.875   6.782   1.307
 4896TIP3    H214646   1.000   6.799   1.390
 4897TIP3   OH214647   7.544   4.367   0.504
 4897TIP3    H114648   7.630   4.331   0.484
 4897TIP3    H214649   7.482   4.300   0.474
 4898TIP3   OH214650   5.055   0.576   2.890
 4898TIP3    H114651   5.014   0.651   2.847
 4898TIP3    H214652   5.057   0.600   2.983
 4899TIP3   OH214653   5.027   1.178   4.250
 4899TIP3    H114654   5.099   1.220   4.204
 4899TIP3    H214655   5.013   1.232   4.328
 4900TIP3   OH214656   1.109   4.419   1.682
 4900TIP3    H114657   1.039   4.355   1.670
 4900TIP3    H214658   1.065   4.503   1.686
 4901TIP3   OH214659   3.336   3.312   1.766
 4901TIP3    H114660   3.334   3.321   1.861
 4901TIP3    H214661   3.272   3.377   1.735
 4902TIP3   OH214662   0.998   7.202   0.622
 4902TIP3    H114663   0.990   7.141   0.696
 4902TIP3    H214664   0.944   7.163   0.553
 4903TIP3   OH214665   6.372   4.044   1.731
 4903TIP3    H114666   6.294   3.989   1.739
 4903TIP3    H214667   6.390   4.074   1.821
 4904TIP3   OH214668   3.798   5.372   3.747
 4904TIP3    H114669   3.741   5.304   3.782
 4904TIP3    H214670   3.764   5.389   3.659
 4905TIP3   OH214671   7.561   5.296   3.173
 4905TIP3    H114672   7.606   5.379   3.155
 4905TIP3    H214673   7.487   5.319   3.229
 4906TIP3   OH214674   6.296   6.831   5.238
 4906TIP3    H114675   6.318   6.924   5.246
 4906TIP3    H214676   6.357   6.797   5.173
 4907TIP3   OH214677   4.909   3.041   3.115
 4907TIP3    H114678   4.992   3.042   3.163
 4907TIP3    H214679   4.874   3.129   3.128
 4908TIP3   OH214680   7.785   0.514   4.760
 4908TIP3    H114681   7.876   0.516   4.728
 4908TIP3    H214682   7.788   0.454   4.835
 4909TIP3   OH214683   2.756   1.545   6.613
 4909TIP3    H114684   2.774   1.584   6.528
 4909TIP3    H214685   2.842   1.532   6.653
 4910TIP3   OH214686   2.947   4.357   2.200
 4910TIP3    H114687   2.867   4.318   2.233
 4910TIP3    H214688   2.984   4.404   2.275
 4911TIP3   OH214689   1.539   4.049   5.159
 4911TIP3    H114690   1.495   4.134   5.151
 4911TIP3    H214691   1.559   4.041   5.252
 4912TIP3   OH214692   6.803   1.097   3.958
 4912TIP3    H114693   6.723   1.046   3.946
 4912TIP3    H214694   6.851   1.085   3.876
 4913TIP3   OH214695   2.240   5.833   6.139
 4913TIP3    H114696   2.186   5.799   6.068
 4913TIP3    H214697   2.281   5.755   6.178
 4914TIP3   OH214698   7.195   2.823   1.448
 4914TIP3    H114699   7.201   2.873   1.366
 4914TIP3    H214700   7.251   2.872   1.509
 4915TIP3   OH214701   4.595   7.436   3.091
 4915TIP3    H114702   4.529   7.373   3.122
 4915TIP3    H214703   4.579   7.514   3.143
 4916TIP3   OH214704   4.478   6.792   2.655
 4916TIP3    H114705   4.519   6.833   2.732
 4916TIP3    H214706   4.398   6.752   2.689
 4917TIP3   OH214707   5.798   5.513   3.842
 4917TIP3    H114708   5.884   5.471   3.841
 4917TIP3    H214709   5.736   5.441   3.855
 4918TIP3   OH214710   7.423   6.581   2.664
 4918TIP3    H114711   7.348   6.530   2.631
 4918TIP3    H214712   7.498   6.547   2.616
 4919TIP3   OH214713   2.845   6.270   4.938
 4919TIP3    H114714   2.798   6.348   4.968
 4919TIP3    H214715   2.930   6.303   4.909
 4920TIP3   OH214716   0.007   7.708   0.402
 4920TIP3    H114717   0.047   7.641   0.458
 4920TIP3    H214718   0.056   7.704   0.321
 4921TIP3   OH214719   3.946   2.352   5.007
 4921TIP3    H114720   3.939   2.303   4.926
 4921TIP3    H214721   4.039   2.348   5.030
 4922TIP3   OH214722   5.738   4.021   4.594
 4922TIP3    H114723   5.709   4.055   4.679
 4922TIP3    H214724   5.832   4.040   4.591
 4923TIP3   OH214725   1.656   7.416   5.976
 4923TIP3    H114726   1.671   7.338   5.923
 4923TIP3    H214727   1.639   7.382   6.064
 4924TIP3   OH214728   0.299   6.511   4.194
 4924TIP3    H114729   0.268   6.572   4.261
 4924TIP3    H214730   0.232   6.515   4.126
 4925TIP3   OH214731   4.737   4.764   3.643
 4925TIP3    H114732   4.713   4.784   3.553
 4925TIP3    H214733   4.723   4.669   3.652
 4926TIP3   OH214734   1.230   3.890   6.637
 4926TIP3    H114735   1.269   3.977   6.630
 4926TIP3    H214736   1.196   3.872   6.549
 4927TIP3   OH214737   3.544   5.031  -0.022
 4927TIP3    H114738   3.581   5.047   0.064
 4927TIP3    H214739   3.484   4.957  -0.010
 4928TIP3   OH214740   7.302   4.052   3.187
 4928TIP3    H114741   7.286   4.146   3.182
 4928TIP3    H214742   7.391   4.041   3.155
 4929TIP3   OH214743   1.519   2.174   0.408
 4929TIP3    H114744   1.493   2.258   0.445
 4929TIP3    H214745   1.607   2.188   0.375
 4930TIP3   OH214746   4.389   6.529   6.715
 4930TIP3    H114747   4.456   6.468   6.747
 4930TIP3    H214748   4.317   6.474   6.687
 4931TIP3   OH214749   8.207   1.561   4.956
 4931TIP3    H114750   8.244   1.594   4.874
 4931TIP3    H214751   8.122   1.524   4.931
 4932TIP3   OH214752   1.793   6.538   3.318
 4932TIP3    H114753   1.718   6.499   3.273
 4932TIP3    H214754   1.761   6.555   3.407
 4933TIP3   OH214755   4.909   5.340   3.273
 4933TIP3    H114756   4.854   5.292   3.335
 4933TIP3    H214757   4.863   5.423   3.259
 4934TIP3   OH214758   0.868   5.192   5.542
 4934TIP3    H114759   0.805   5.169   5.611
 4934TIP3    H214760   0.832   5.154   5.463
 4935TIP3   OH214761   4.547   6.649   1.472
 4935TIP3    H114762   4.617   6.619   1.413
 4935TIP3    H214763   4.547   6.744   1.462
 4936TIP3   OH214764   5.534   4.588   2.128
 4936TIP3    H114765   5.582   4.647   2.185
 4936TIP3    H214766   5.521   4.638   2.047
 4937TIP3   OH214767   4.042   1.085   4.078
 4937TIP3    H114768   4.089   1.111   4.000
 4937TIP3    H214769   4.106   1.091   4.149
 4938TIP3   OH214770   7.028   0.869   1.177
 4938TIP3    H114771   6.941   0.841   1.205
 4938TIP3    H214772   7.051   0.808   1.107
 4939TIP3   OH214773   2.036   2.466   0.923
 4939TIP3    H114774   2.053   2.558   0.946
 4939TIP3    H214775   2.122   2.424   0.929
 4940TIP3   OH214776   3.161   5.821   2.735
 4940TIP3    H114777   3.257   5.821   2.731
 4940TIP3    H214778   3.138   5.731   2.755
 4941TIP3   OH214779   4.679   3.262   0.022
 4941TIP3    H114780   4.669   3.174  -0.015
 4941TIP3    H214781   4.590   3.288   0.044
 4942TIP3   OH214782   2.003   1.823   4.962
 4942TIP3    H114783   2.016   1.729   4.959
 4942TIP3    H214784   1.926   1.839   4.909
 4943TIP3   OH214785   4.023   2.067   3.196
 4943TIP3    H114786   4.036   2.047   3.289
 4943TIP3    H214787   3.943   2.022   3.172
 4944TIP3   OH214788   1.939   2.522   6.297
 4944TIP3    H114789   1.872   2.462   6.331
 4944TIP3    H214790   1.931   2.516   6.202
 4945TIP3   OH214791   0.774   6.635   4.603
 4945TIP3    H114792   0.750   6.604   4.690
 4945TIP3    H214793   0.697   6.617   4.549
 4946TIP3   OH214794   8.236   7.013   3.346
 4946TIP3    H114795   8.255   6.923   3.374
 4946TIP3    H214796   8.309   7.036   3.289
 4947TIP3   OH214797   5.000   3.929   1.430
 4947TIP3    H114798   5.031   3.917   1.340
 4947TIP3    H214799   5.009   4.023   1.446
 4948TIP3   OH214800   3.112   7.776   0.630
 4948TIP3    H114801   3.087   7.807   0.717
 4948TIP3    H214802   3.189   7.721   0.646
 4949TIP3   OH214803   0.613   1.771   5.304
 4949TIP3    H114804   0.608   1.691   5.252
 4949TIP3    H214805   0.527   1.779   5.344
 4950TIP3   OH214806   7.414   4.915   3.649
 4950TIP3    H114807   7.446   4.878   3.731
 4950TIP3    H214808   7.471   4.877   3.582
 4951TIP3   OH214809   5.528   2.597   5.892
 4951TIP3    H114810   5.451   2.606   5.948
 4951TIP3    H214811   5.562   2.509   5.912
 4952TIP3   OH214812   7.866   3.646   6.001
 4952TIP3    H114813   7.772   3.626   6.010
 4952TIP3    H214814   7.868   3.739   5.978
 4953TIP3   OH214815   4.829   1.070   4.450
 4953TIP3    H114816   4.907   1.029   4.485
 4953TIP3    H214817   4.805   1.016   4.374
 4954TIP3   OH214818   6.974   3.430   4.169
 4954TIP3    H114819   7.007   3.368   4.234
 4954TIP3    H214820   6.879   3.418   4.171
 4955TIP3   OH214821   4.820   1.228   2.940
 4955TIP3    H114822   4.738   1.182   2.926
 4955TIP3    H214823   4.797   1.321   2.932
 4956TIP3   OH214824   5.610   7.515   2.389
 4956TIP3    H114825   5.524   7.475   2.403
 4956TIP3    H214826   5.635   7.486   2.301
 4957TIP3   OH214827   3.603   6.570   3.425
 4957TIP3    H114828   3.640   6.650   3.463
 4957TIP3    H214829   3.562   6.525   3.499
 4958TIP3   OH214830   4.905   1.576   6.357
 4958TIP3    H114831   4.980   1.575   6.298
 4958TIP3    H214832   4.935   1.528   6.435
 4959TIP3   OH214833   5.267   3.309   5.928
 4959TIP3    H114834   5.304   3.388   5.889
 4959TIP3    H214835   5.181   3.300   5.887
 4960TIP3   OH214836   2.346   7.184   6.002
 4960TIP3    H114837   2.394   7.264   6.021
 4960TIP3    H214838   2.414   7.118   5.988
 4961TIP3   OH214839   4.975   5.981   6.390
 4961TIP3    H114840   4.928   5.973   6.307
 4961TIP3    H214841   4.979   5.892   6.425
 4962TIP3   OH214842   4.386   4.067   6.586
 4962TIP3    H114843   4.302   4.051   6.543
 4962TIP3    H214844   4.390   4.001   6.655
 4963TIP3   OH214845   7.523   5.213   0.581
 4963TIP3    H114846   7.535   5.118   0.590
 4963TIP3    H214847   7.610   5.245   0.557
 4964TIP3   OH214848   4.356   5.867   0.100
 4964TIP3    H114849   4.262   5.884   0.106
 4964TIP3    H214850   4.366   5.776   0.129
 4965TIP3   OH214851   5.396   0.131   0.123
 4965TIP3    H114852   5.427   0.204   0.177
 4965TIP3    H214853   5.318   0.165   0.078
 4966TIP3   OH214854   6.359   0.399   2.254
 4966TIP3    H114855   6.332   0.310   2.230
 4966TIP3    H214856   6.439   0.387   2.304
 4967TIP3   OH214857   8.075   0.414   3.255
 4967TIP3    H114858   8.109   0.485   3.310
 4967TIP3    H214859   8.028   0.357   3.316
 4968TIP3   OH214860   5.453   0.755   0.632
 4968TIP3    H114861   5.358   0.749   0.628
 4968TIP3    H214862   5.482   0.736   0.543
 4969TIP3   OH214863   5.435   7.247   4.154
 4969TIP3    H114864   5.365   7.185   4.177
 4969TIP3    H214865   5.508   7.191   4.126
 4970TIP3   OH214866   5.209   0.227   4.049
 4970TIP3    H114867   5.265   0.157   4.014
 4970TIP3    H214868   5.209   0.213   4.143
 4971TIP3   OH214869   5.002   4.610   4.711
 4971TIP3    H114870   4.917   4.652   4.701
 4971TIP3    H214871   4.984   4.529   4.758
 4972TIP3   OH214872   0.552   4.480   2.433
 4972TIP3    H114873   0.569   4.483   2.339
 4972TIP3    H214874   0.525   4.569   2.455
 4973TIP3   OH214875   4.638   1.589   0.872
 4973TIP3    H114876   4.660   1.666   0.925
 4973TIP3    H214877   4.574   1.622   0.809
 4974TIP3   OH214878   5.846   4.411   0.153
 4974TIP3    H114879   5.828   4.319   0.132
 4974TIP3    H214880   5.870   4.451   0.069
 4975TIP3   OH214881   3.985   3.924   3.510
 4975TIP3    H114882   3.982   3.829   3.502
 4975TIP3    H214883   4.067   3.941   3.557
 4976TIP3   OH214884   2.307   0.284   3.857
 4976TIP3    H114885   2.382   0.343   3.846
 4976TIP3    H214886   2.339   0.216   3.916
 4977TIP3   OH214887   1.954   3.533   4.945
 4977TIP3    H114888   1.969   3.622   4.912
 4977TIP3    H214889   2.026   3.518   5.006
 4978TIP3   OH214890   7.192   7.207   5.652
 4978TIP3    H114891   7.146   7.267   5.593
 4978TIP3    H214892   7.233   7.264   5.717
 4979TIP3   OH214893   7.954   5.115   4.974
 4979TIP3    H114894   7.884   5.086   4.915
 4979TIP3    H214895   8.020   5.046   4.968
 4980TIP3   OH214896   7.931   6.410   6.606
 4980TIP3    H114897   7.946   6.318   6.627
 4980TIP3    H214898   7.999   6.431   6.542
 4981TIP3   OH214899   5.417   0.338   5.528
 4981TIP3    H114900   5.336   0.344   5.478
 4981TIP3    H214901   5.447   0.248   5.514
 4982TIP3   OH214902   1.826   2.085   5.992
 4982TIP3    H114903   1.875   2.157   6.030
 4982TIP3    H214904   1.837   2.013   6.054
 4983TIP3   OH214905   6.293   4.741   2.056
 4983TIP3    H114906   6.230   4.713   1.990
 4983TIP3    H214907   6.239   4.769   2.130
 4984TIP3   OH214908   7.785   4.870   2.885
 4984TIP3    H114909   7.708   4.843   2.836
 4984TIP3    H214910   7.814   4.950   2.842
 4985TIP3   OH214911   4.394   7.366   3.828
 4985TIP3    H114912   4.307   7.326   3.824
 4985TIP3    H214913   4.452   7.301   3.787
 4986TIP3   OH214914   1.672   3.216   2.521
 4986TIP3    H114915   1.615   3.202   2.596
 4986TIP3    H214916   1.710   3.130   2.503
 4987TIP3   OH214917   1.026   3.261   6.711
 4987TIP3    H114918   1.068   3.224   6.789
 4987TIP3    H214919   0.986   3.185   6.668
 4988TIP3   OH214920   1.124   2.667   2.660
 4988TIP3    H114921   1.175   2.677   2.740
 4988TIP3    H214922   1.067   2.591   2.677
 4989TIP3   OH214923   2.276   7.237   5.428
 4989TIP3    H114924   2.347   7.255   5.490
 4989TIP3    H214925   2.211   7.305   5.446
 4990TIP3   OH214926   0.715   5.342   2.493
 4990TIP3    H114927   0.701   5.272   2.557
 4990TIP3    H214928   0.765   5.301   2.423
 4991TIP3   OH214929   6.301   4.404   6.024
 4991TIP3    H114930   6.292   4.388   6.118
 4991TIP3    H214931   6.243   4.339   5.984
 4992TIP3   OH214932   3.318   2.290   2.002
 4992TIP3    H114933   3.228   2.268   2.029
 4992TIP3    H214934   3.360   2.320   2.083
 4993TIP3   OH214935   1.762   1.223   1.581
 4993TIP3    H114936   1.810   1.284   1.637
 4993TIP3    H214937   1.681   1.268   1.559
 4994TIP3   OH214938   4.164   6.460   5.871
 4994TIP3    H114939   4.115   6.451   5.789
 4994TIP3    H214940   4.118   6.530   5.919
 4995TIP3   OH214941   3.851   2.769   2.249
 4995TIP3    H114942   3.869   2.826   2.175
 4995TIP3    H214943   3.893   2.686   2.228
 4996TIP3   OH214944   3.222   0.597   3.150
 4996TIP3    H114945   3.168   0.675   3.133
 4996TIP3    H214946   3.311   0.625   3.129
 4997TIP3   OH214947   2.865   5.759   2.338
 4997TIP3    H114948   2.800   5.782   2.405
 4997TIP3    H214949   2.926   5.701   2.383
 4998TIP3   OH214950   0.193   3.038   4.041
 4998TIP3    H114951   0.234   3.070   3.960
 4998TIP3    H214952   0.118   2.987   4.011
 4999TIP3   OH214953   6.672   6.898   1.244
 4999TIP3    H114954   6.688   6.894   1.338
 4999TIP3    H214955   6.582   6.928   1.236
 5000TIP3   OH214956   5.970   5.066   5.622
 5000TIP3    H114957   5.942   5.058   5.531
 5000TIP3    H214958   5.900   5.114   5.665
 5001TIP3   OH214959   2.574   7.728   4.485
 5001TIP3    H114960   2.521   7.668   4.537
 5001TIP3    H214961   2.663   7.693   4.491
 5002TIP3   OH214962   4.279   4.884   1.831
 5002TIP3    H114963   4.277   4.978   1.813
 5002TIP3    H214964   4.243   4.844   1.752
 5003TIP3   OH214965   2.250   2.405   2.496
 5003TIP3    H114966   2.301   2.483   2.472
 5003TIP3    H214967   2.280   2.383   2.584
 5004TIP3   OH214968   8.184   6.452   5.964
 5004TIP3    H114969   8.140   6.487   5.887
 5004TIP3    H214970   8.239   6.524   5.996
 5005TIP3   OH214971   0.704   2.642   5.461
 5005TIP3    H114972   0.775   2.615   5.403
 5005TIP3    H214973   0.629   2.656   5.403
 5006TIP3   OH214974   3.417   2.382   5.388
 5006TIP3    H114975   3.488   2.321   5.409
 5006TIP3    H214976   3.354   2.329   5.339
 5007TIP3   OH214977   0.823   4.857   0.348
 5007TIP3    H114978   0.789   4.806   0.422
 5007TIP3    H214979   0.870   4.793   0.294
 5008TIP3   OH214980   4.805   0.247   0.564
 5008TIP3    H114981   4.720   0.291   0.559
 5008TIP3    H214982   4.787   0.162   0.604
 5009TIP3   OH214983   7.176   5.637   6.680
 5009TIP3    H114984   7.228   5.606   6.606
 5009TIP3    H214985   7.235   5.632   6.755
 5010TIP3   OH214986   7.949   0.124   4.232
 5010TIP3    H114987   8.025   0.065   4.231
 5010TIP3    H214988   7.972   0.190   4.297
 5011TIP3   OH214989   4.066   4.226   4.997
 5011TIP3    H114990   4.152   4.213   4.957
 5011TIP3    H214991   4.081   4.289   5.068
 5012TIP3   OH214992   0.304   3.181   1.667
 5012TIP3    H114993   0.261   3.164   1.583
 5012TIP3    H214994   0.394   3.206   1.644
 5013TIP3   OH214995   1.479   1.564   4.525
 5013TIP3    H114996   1.431   1.646   4.515
 5013TIP3    H214997   1.447   1.528   4.608
 5014TIP3   OH214998   1.606   1.434   3.129
 5014TIP3    H114999   1.625   1.349   3.089
 5014TIP3    H215000   1.513   1.430   3.149
 5015TIP3   OH215001   4.599   7.595   1.545
 5015TIP3    H115002   4.668   7.598   1.478
 5015TIP3    H215003   4.537   7.663   1.518
 5016TIP3   OH215004   4.929   6.875   6.089
 5016TIP3    H115005   4.966   6.952   6.047
 5016TIP3    H215006   4.855   6.909   6.140
 5017TIP3   OH215007   2.540   4.246   1.942
 5017TIP3    H115008   2.495   4.314   1.991
 5017TIP3    H215009   2.547   4.281   1.853
 5018TIP3   OH215010   3.477   4.053   6.623
 5018TIP3    H115011   3.547   3.988   6.620
 5018TIP3    H215012   3.514   4.127   6.670
 5019TIP3   OH215013   1.103   1.006   5.189
 5019TIP3    H115014   1.167   0.940   5.162
 5019TIP3    H215015   1.109   1.008   5.284
 5020TIP3   OH215016   5.800   0.314   5.620
 5020TIP3    H115017   5.768   0.225   5.608
 5020TIP3    H215018   5.875   0.305   5.678
 5021TIP3   OH215019   5.454   4.635   4.657
 5021TIP3    H115020   5.520   4.573   4.628
 5021TIP3    H215021   5.439   4.613   4.749
 5022TIP3   OH215022   1.376   0.222   5.146
 5022TIP3    H115023   1.465   0.210   5.177
 5022TIP3    H215024   1.335   0.279   5.211
 5023TIP3   OH215025   3.364   4.026   5.581
 5023TIP3    H115026   3.334   3.944   5.542
 5023TIP3    H215027   3.437   4.054   5.526
 5024TIP3   OH215028   4.022   2.018   3.471
 5024TIP3    H115029   3.976   2.016   3.555
 5024TIP3    H215030   4.109   2.052   3.492
 5025TIP3   OH215031   1.494   3.359   4.501
 5025TIP3    H115032   1.438   3.376   4.577
 5025TIP3    H215033   1.446   3.396   4.427
 5026TIP3   OH215034   6.725   5.620   5.596
 5026TIP3    H115035   6.807   5.584   5.563
 5026TIP3    H215036   6.749   5.665   5.677
 5027TIP3   OH215037   1.010   6.161   2.851
 5027TIP3    H115038   0.934   6.122   2.896
 5027TIP3    H215039   0.995   6.255   2.857
 5028TIP3   OH215040   0.014   0.862   3.050
 5028TIP3    H115041   0.031   0.930   3.115
 5028TIP3    H215042   0.097   0.815   3.043
 5029TIP3   OH215043   6.338   4.873   0.423
 5029TIP3    H115044   6.267   4.923   0.382
 5029TIP3    H215045   6.316   4.874   0.517
 5030TIP3   OH215046   5.995   4.514   4.241
 5030TIP3    H115047   6.030   4.490   4.327
 5030TIP3    H215048   5.933   4.444   4.219
 5031TIP3   OH215049   1.925   1.644   2.520
 5031TIP3    H115050   1.867   1.634   2.444
 5031TIP3    H215051   2.013   1.650   2.483
 5032TIP3   OH215052   4.962   1.669   5.730
 5032TIP3    H115053   4.909   1.665   5.810
 5032TIP3    H215054   4.901   1.697   5.662
 5033TIP3   OH215055   1.696   2.438   6.780
 5033TIP3    H115056   1.763   2.370   6.767
 5033TIP3    H215057   1.677   2.471   6.693
 5034TIP3   OH215058   7.358   3.632   3.132
 5034TIP3    H115059   7.363   3.562   3.197
 5034TIP3    H215060   7.448   3.644   3.103
 5035TIP3   OH215061   6.097   6.520   2.716
 5035TIP3    H115062   6.006   6.507   2.742
 5035TIP3    H215063   6.108   6.463   2.639
 5036TIP3   OH215064   1.393   3.582   3.953
 5036TIP3    H115065   1.360   3.634   4.027
 5036TIP3    H215066   1.488   3.591   3.958
 5037TIP3   OH215067   6.536   7.035   5.107
 5037TIP3    H115068   6.516   7.085   5.185
 5037TIP3    H215069   6.624   7.064   5.081
 5038TIP3   OH215070   2.544   0.470   3.801
 5038TIP3    H115071   2.553   0.560   3.832
 5038TIP3    H215072   2.502   0.478   3.715
 5039TIP3   OH215073   2.463   5.686   4.412
 5039TIP3    H115074   2.409   5.634   4.353
 5039TIP3    H215075   2.532   5.721   4.357
 5040TIP3   OH215076   2.217   4.994   6.246
 5040TIP3    H115077   2.138   4.949   6.216
 5040TIP3    H215078   2.188   5.081   6.271
 5041TIP3   OH215079   0.683   1.420   3.943
 5041TIP3    H115080   0.716   1.509   3.934
 5041TIP3    H215081   0.610   1.415   3.880
 5042TIP3   OH215082   5.473   5.530   2.482
 5042TIP3    H115083   5.473   5.604   2.543
 5042TIP3    H215084   5.395   5.480   2.506
 5043TIP3   OH215085   4.501   7.392   4.887
 5043TIP3    H115086   4.474   7.372   4.976
 5043TIP3    H215087   4.475   7.316   4.836
 5044TIP3   OH215088   5.753   1.225   1.720
 5044TIP3    H115089   5.739   1.286   1.647
 5044TIP3    H215090   5.664   1.203   1.749
 5045TIP3   OH215091   6.433   5.401   3.514
 5045TIP3    H115092   6.405   5.492   3.516
 5045TIP3    H215093   6.529   5.405   3.524
 5046TIP3   OH215094   4.043   5.423   0.089
 5046TIP3    H115095   3.957   5.382   0.096
 5046TIP3    H215096   4.080   5.418   0.177
 5047TIP3   OH215097   7.513   1.180   1.381
 5047TIP3    H115098   7.431   1.228   1.390
 5047TIP3    H215099   7.511   1.115   1.452
 5048TIP3   OH215100   5.116   2.246   3.452
 5048TIP3    H115101   5.109   2.184   3.379
 5048TIP3    H215102   5.137   2.330   3.410
 5049TIP3   OH215103   0.211   5.900   6.668
 5049TIP3    H115104   0.210   5.948   6.750
 5049TIP3    H215105   0.133   5.844   6.673
 5050TIP3   OH215106   6.181   1.712   2.577
 5050TIP3    H115107   6.241   1.673   2.513
 5050TIP3    H215108   6.096   1.712   2.533
 5051TIP3   OH215109   3.724   5.196   4.675
 5051TIP3    H115110   3.782   5.246   4.618
 5051TIP3    H215111   3.709   5.114   4.629
 5052TIP3   OH215112   7.414   7.419   1.508
 5052TIP3    H115113   7.493   7.464   1.478
 5052TIP3    H215114   7.403   7.449   1.599
 5053TIP3   OH215115   5.255   6.765   5.564
 5053TIP3    H115116   5.233   6.836   5.625
 5053TIP3    H215117   5.191   6.697   5.582
 5054TIP3   OH215118   3.021   5.025   1.213
 5054TIP3    H115119   3.053   5.086   1.280
 5054TIP3    H215120   3.056   4.940   1.239
 5055TIP3   OH215121   8.209   5.298   4.490
 5055TIP3    H115122   8.155   5.323   4.565
 5055TIP3    H215123   8.298   5.319   4.517
 5056TIP3   OH215124   8.059   1.195   1.834
 5056TIP3    H115125   8.035   1.276   1.790
 5056TIP3    H215126   8.135   1.218   1.888
 5057TIP3   OH215127   0.803   5.346   2.116
 5057TIP3    H115128   0.734   5.322   2.054
 5057TIP3    H215129   0.770   5.425   2.159
 5058TIP3   OH215130   2.252   5.569   6.521
 5058TIP3    H115131   2.309   5.514   6.468
 5058TIP3    H215132   2.278   5.659   6.498
 5059TIP3   OH215133   0.852   2.952   4.048
 5059TIP3    H115134   0.794   3.000   3.989
 5059TIP3    H215135   0.794   2.899   4.102
 5060TIP3   OH215136   1.628   1.785   1.758
 5060TIP3    H115137   1.656   1.868   1.718
 5060TIP3    H215138   1.658   1.791   1.848
 5061TIP3   OH215139   5.192   6.297   3.395
 5061TIP3    H115140   5.224   6.295   3.305
 5061TIP3    H215141   5.127   6.227   3.399
 5062TIP3   OH215142   7.557   0.961   3.898
 5062TIP3    H115143   7.526   0.914   3.821
 5062TIP3    H215144   7.638   1.004   3.870
 5063TIP3   OH215145   3.727   3.684   4.779
 5063TIP3    H115146   3.740   3.738   4.701
 5063TIP3    H215147   3.678   3.740   4.839
 5064TIP3   OH215148   4.708   3.513   2.893
 5064TIP3    H115149   4.797   3.484   2.872
 5064TIP3    H215150   4.713   3.542   2.984
 5065TIP3   OH215151   5.147   5.174   1.178
 5065TIP3    H115152   5.076   5.237   1.176
 5065TIP3    H215153   5.202   5.202   1.251
 5066TIP3   OH215154   6.289   7.535   0.303
 5066TIP3    H115155   6.228   7.471   0.266
 5066TIP3    H215156   6.373   7.514   0.264
 5067TIP3   OH215157   1.777   4.719   6.251
 5067TIP3    H115158   1.838   4.678   6.313
 5067TIP3    H215159   1.690   4.695   6.283
 5068TIP3   OH215160   0.295   4.890   3.991
 5068TIP3    H115161   0.240   4.946   3.937
 5068TIP3    H215162   0.266   4.906   4.081
 5069TIP3   OH215163   0.509   5.558   0.628
 5069TIP3    H115164   0.562   5.558   0.548
 5069TIP3    H215165   0.489   5.650   0.643
 5070TIP3   OH215166   7.120   3.571   5.201
 5070TIP3    H115167   7.070   3.646   5.168
 5070TIP3    H215168   7.191   3.560   5.138
 5071TIP3   OH215169   1.159   1.857   2.058
 5071TIP3    H115170   1.148   1.880   1.966
 5071TIP3    H215171   1.246   1.819   2.063
 5072TIP3   OH215172   0.022   0.348   5.108
 5072TIP3    H115173   0.107   0.330   5.070
 5072TIP3    H215174  -0.013   0.262   5.132
 5073TIP3   OH215175   7.392   6.881   4.488
 5073TIP3    H115176   7.482   6.879   4.455
 5073TIP3    H215177   7.400   6.853   4.579
 5074TIP3   OH215178   6.874   4.777   0.874
 5074TIP3    H115179   6.933   4.816   0.938
 5074TIP3    H215180   6.788   4.779   0.915
 5075TIP3   OH215181   8.021   3.343   6.313
 5075TIP3    H115182   8.058   3.270   6.263
 5075TIP3    H215183   8.040   3.420   6.259
 5076TIP3   OH215184   6.333   2.340   0.215
 5076TIP3    H115185   6.278   2.412   0.186
 5076TIP3    H215186   6.348   2.357   0.308
 5077TIP3   OH215187   0.458   0.987   1.246
 5077TIP3    H115188   0.507   0.920   1.199
 5077TIP3    H215189   0.395   0.938   1.299
 5078TIP3   OH215190   3.420   5.526   4.334
 5078TIP3    H115191   3.408   5.528   4.429
 5078TIP3    H215192   3.359   5.591   4.301
 5079TIP3   OH215193   1.865   2.620   3.963
 5079TIP3    H115194   1.789   2.638   4.019
 5079TIP3    H215195   1.884   2.527   3.978
 5080TIP3   OH215196   1.113   5.121   0.346
 5080TIP3    H115197   1.089   5.165   0.428
 5080TIP3    H215198   1.206   5.138   0.336
 5081TIP3   OH215199   7.327   4.412   5.434
 5081TIP3    H115200   7.324   4.508   5.433
 5081TIP3    H215201   7.314   4.389   5.526
 5082TIP3   OH215202   2.972   6.671   2.637
 5082TIP3    H115203   3.036   6.606   2.608
 5082TIP3    H215204   3.022   6.753   2.642
 5083TIP3   OH215205   1.931   7.467   0.823
 5083TIP3    H115206   2.025   7.481   0.808
 5083TIP3    H215207   1.892   7.478   0.736
 5084TIP3   OH215208   6.643   6.156   6.742
 5084TIP3    H115209   6.576   6.199   6.794
 5084TIP3    H215210   6.717   6.216   6.742
 5085TIP3   OH215211   4.463   2.350   0.267
 5085TIP3    H115212   4.383   2.328   0.314
 5085TIP3    H215213   4.461   2.296   0.188
 5086TIP3   OH215214   1.143   2.169   1.485
 5086TIP3    H115215   1.225   2.122   1.469
 5086TIP3    H215216   1.165   2.236   1.549
 5087TIP3   OH215217   5.733   7.175   1.931
 5087TIP3    H115218   5.775   7.108   1.877
 5087TIP3    H215219   5.645   7.184   1.894
 5088TIP3   OH215220   5.468   2.845   1.389
 5088TIP3    H115221   5.542   2.902   1.370
 5088TIP3    H215222   5.446   2.805   1.305
 5089TIP3   OH215223   3.941   0.630   3.832
 5089TIP3    H115224   3.862   0.655   3.783
 5089TIP3    H215225   4.013   0.660   3.778
 5090TIP3   OH215226   5.646   5.139   6.181
 5090TIP3    H115227   5.649   5.045   6.197
 5090TIP3    H215228   5.615   5.147   6.091
 5091TIP3   OH215229   1.217   2.917   3.544
 5091TIP3    H115230   1.229   2.914   3.639
 5091TIP3    H215231   1.261   2.838   3.512
 5092TIP3   OH215232   5.890   1.668   5.471
 5092TIP3    H115233   5.968   1.722   5.478
 5092TIP3    H215234   5.877   1.656   5.376
 5093TIP3   OH215235   4.873   1.089   6.619
 5093TIP3    H115236   4.960   1.053   6.598
 5093TIP3    H215237   4.860   1.159   6.555
 5094TIP3   OH215238   2.443   6.192   3.359
 5094TIP3    H115239   2.476   6.278   3.334
 5094TIP3    H215240   2.348   6.198   3.351
 5095TIP3   OH215241   8.116   2.795   3.584
 5095TIP3    H115242   8.074   2.832   3.661
 5095TIP3    H215243   8.176   2.729   3.619
 5096TIP3   OH215244   7.092   3.656   0.702
 5096TIP3    H115245   7.140   3.713   0.761
 5096TIP3    H215246   7.157   3.625   0.639
 5097TIP3   OH215247   2.830   4.294   3.419
 5097TIP3    H115248   2.914   4.295   3.465
 5097TIP3    H215249   2.821   4.382   3.383
 5098TIP3   OH215250   3.086   0.004   3.328
 5098TIP3    H115251   3.012  -0.019   3.385
 5098TIP3    H215252   3.062   0.089   3.292
 5099TIP3   OH215253   2.956   1.155   2.246
 5099TIP3    H115254   2.941   1.250   2.249
 5099TIP3    H215255   3.034   1.145   2.191
 5100TIP3   OH215256   7.152   4.325   6.632
 5100TIP3    H115257   7.103   4.366   6.703
 5100TIP3    H215258   7.208   4.395   6.598
 5101TIP3   OH215259   0.296   7.113   1.601
 5101TIP3    H115260   0.246   7.159   1.669
 5101TIP3    H215261   0.316   7.180   1.536
 5102TIP3   OH215262   4.197   1.060   2.311
 5102TIP3    H115263   4.240   1.039   2.394
 5102TIP3    H215264   4.106   1.031   2.322
 5103TIP3   OH215265   2.205   3.099   5.657
 5103TIP3    H115266   2.261   3.024   5.638
 5103TIP3    H215267   2.134   3.063   5.709
 5104TIP3   OH215268   0.400   1.424   6.658
 5104TIP3    H115269   0.430   1.508   6.626
 5104TIP3    H215270   0.463   1.361   6.624
 5105TIP3   OH215271   5.637   1.745   5.514
 5105TIP3    H115272   5.725   1.723   5.484
 5105TIP3    H215273   5.604   1.664   5.553
 5106TIP3   OH215274   5.682   2.368   5.905
 5106TIP3    H115275   5.773   2.394   5.893
 5106TIP3    H215276   5.687   2.277   5.934
 5107TIP3   OH215277   2.492   4.404   0.405
 5107TIP3    H115278   2.540   4.487   0.397
 5107TIP3    H215279   2.404   4.424   0.376
 5108TIP3   OH215280   0.473   1.867   2.497
 5108TIP3    H115281   0.396   1.921   2.479
 5108TIP3    H215282   0.533   1.887   2.425
 5109TIP3   OH215283   2.513   1.687   4.495
 5109TIP3    H115284   2.560   1.624   4.440
 5109TIP3    H215285   2.446   1.724   4.438
 5110TIP3   OH215286   4.526   0.084   1.028
 5110TIP3    H115287   4.569   0.017   1.081
 5110TIP3    H215288   4.505   0.154   1.091
 5111TIP3   OH215289   7.616   2.086   1.078
 5111TIP3    H115290   7.580   2.016   1.132
 5111TIP3    H215291   7.657   2.146   1.141
 5112TIP3   OH215292   4.703   0.215   5.851
 5112TIP3    H115293   4.751   0.284   5.804
 5112TIP3    H215294   4.768   0.147   5.868
 5113TIP3   OH215295   7.609   2.518   1.759
 5113TIP3    H115296   7.584   2.460   1.687
 5113TIP3    H215297   7.534   2.516   1.818
 5114TIP3   OH215298   4.592   2.844   4.459
 5114TIP3    H115299   4.647   2.914   4.492
 5114TIP3    H215300   4.557   2.877   4.376
 5115TIP3   OH215301   2.353   1.052   0.713
 5115TIP3    H115302   2.304   1.134   0.720
 5115TIP3    H215303   2.357   1.018   0.802
 5116TIP3   OH215304   3.217   5.552   1.543
 5116TIP3    H115305   3.171   5.635   1.556
 5116TIP3    H215306   3.300   5.564   1.590
 5117TIP3   OH215307   4.553   5.379   3.657
 5117TIP3    H115308   4.461   5.353   3.651
 5117TIP3    H215309   4.556   5.466   3.619
 5118TIP3   OH215310   5.239   5.993   3.302
 5118TIP3    H115311   5.283   6.026   3.380
 5118TIP3    H215312   5.148   6.021   3.311
 5119TIP3   OH215313   6.336   4.784   0.929
 5119TIP3    H115314   6.372   4.872   0.934
 5119TIP3    H215315   6.367   4.741   1.009
 5120TIP3   OH215316   2.777   6.444   1.388
 5120TIP3    H115317   2.765   6.358   1.349
 5120TIP3    H215318   2.710   6.450   1.455
 5121TIP3   OH215319   4.055   2.959   2.367
 5121TIP3    H115320   4.045   2.882   2.311
 5121TIP3    H215321   4.142   2.949   2.406
 5122TIP3   OH215322   7.764   1.583   3.388
 5122TIP3    H115323   7.754   1.495   3.353
 5122TIP3    H215324   7.779   1.570   3.482
 5123TIP3   OH215325   1.472   1.166   5.227
 5123TIP3    H115326   1.455   1.084   5.273
 5123TIP3    H215327   1.539   1.210   5.280
 5124TIP3   OH215328   7.218   0.893   3.636
 5124TIP3    H115329   7.314   0.887   3.640
 5124TIP3    H215330   7.197   0.881   3.543
 5125TIP3   OH215331   2.306   3.902   0.494
 5125TIP3    H115332   2.249   3.976   0.471
 5125TIP3    H215333   2.375   3.941   0.548
 5126TIP3   OH215334   4.804   6.506   3.911
 5126TIP3    H115335   4.863   6.561   3.963
 5126TIP3    H215336   4.822   6.531   3.821
 5127TIP3   OH215337   4.894   7.641   1.742
 5127TIP3    H115338   4.922   7.612   1.655
 5127TIP3    H215339   4.965   7.696   1.773
 5128TIP3   OH215340   5.294   6.815   0.809
 5128TIP3    H115341   5.380   6.773   0.801
 5128TIP3    H215342   5.237   6.764   0.753
 5129TIP3   OH215343   1.424   2.244  -0.005
 5129TIP3    H115344   1.427   2.270   0.087
 5129TIP3    H215345   1.438   2.150  -0.005
 5130TIP3   OH215346   2.963   5.169   4.903
 5130TIP3    H115347   2.984   5.185   4.811
 5130TIP3    H215348   2.903   5.239   4.926
 5131TIP3   OH215349   5.937   3.241   2.407
 5131TIP3    H115350   6.013   3.183   2.402
 5131TIP3    H215351   5.957   3.313   2.348
 5132TIP3   OH215352   4.515   1.236   6.238
 5132TIP3    H115353   4.425   1.241   6.206
 5132TIP3    H215354   4.563   1.300   6.185
 5133TIP3   OH215355   5.252   5.209   6.052
 5133TIP3    H115356   5.218   5.203   6.141
 5133TIP3    H215357   5.182   5.250   6.002
 5134TIP3   OH215358   5.136   2.573   0.811
 5134TIP3    H115359   5.155   2.545   0.901
 5134TIP3    H215360   5.221   2.576   0.768
 5135TIP3   OH215361   5.085   5.124   5.749
 5135TIP3    H115362   5.054   5.197   5.801
 5135TIP3    H215363   5.054   5.046   5.795
 5136TIP3   OH215364   0.556   1.111   3.822
 5136TIP3    H115365   0.581   1.077   3.907
 5136TIP3    H215366   0.543   1.205   3.837
 5137TIP3   OH215367   0.902   5.588   5.378
 5137TIP3    H115368   0.931   5.499   5.357
 5137TIP3    H215369   0.827   5.604   5.321
 5138TIP3   OH215370   5.491   4.539   4.911
 5138TIP3    H115371   5.441   4.474   4.860
 5138TIP3    H215372   5.513   4.493   4.992
 5139TIP3   OH215373   6.727   4.384   4.878
 5139TIP3    H115374   6.746   4.317   4.813
 5139TIP3    H215375   6.635   4.372   4.899
 5140TIP3   OH215376   6.927   2.253   3.369
 5140TIP3    H115377   6.930   2.335   3.418
 5140TIP3    H215378   6.997   2.200   3.408
 5141TIP3   OH215379   6.227   4.197   6.576
 5141TIP3    H115380   6.226   4.118   6.521
 5141TIP3    H215381   6.312   4.194   6.620
 5142TIP3   OH215382   6.914   7.429   2.643
 5142TIP3    H115383   6.908   7.383   2.727
 5142TIP3    H215384   6.993   7.396   2.602
 5143TIP3   OH215385   3.556   1.083   1.165
 5143TIP3    H115386   3.584   1.128   1.085
 5143TIP3    H215387   3.604   1.126   1.235
 5144TIP3   OH215388   2.425   1.371   0.909
 5144TIP3    H115389   2.498   1.324   0.869
 5144TIP3    H215390   2.353   1.359   0.848
 5145TIP3   OH215391   5.212   1.704   5.456
 5145TIP3    H115392   5.160   1.766   5.405
 5145TIP3    H215393   5.303   1.725   5.436
 5146TIP3   OH215394   2.459   2.823   1.100
 5146TIP3    H115395   2.519   2.819   1.026
 5146TIP3    H215396   2.503   2.775   1.170
 5147TIP3   OH215397   2.918   0.457   1.666
 5147TIP3    H115398   2.879   0.370   1.663
 5147TIP3    H215399   2.989   0.449   1.730
 5148TIP3   OH215400   0.367   2.808   2.518
 5148TIP3    H115401   0.429   2.837   2.585
 5148TIP3    H215402   0.369   2.876   2.451
 5149TIP3   OH215403   5.174   5.366   1.459
 5149TIP3    H115404   5.229   5.350   1.535
 5149TIP3    H215405   5.208   5.447   1.422
 5150TIP3   OH215406   7.175   0.103   5.795
 5150TIP3    H115407   7.213   0.123   5.880
 5150TIP3    H215408   7.140   0.186   5.764
 5151TIP3   OH215409   7.487   0.702   1.462
 5151TIP3    H115410   7.477   0.610   1.437
 5151TIP3    H215411   7.502   0.747   1.378
 5152TIP3   OH215412   7.815   6.506   2.351
 5152TIP3    H115413   7.818   6.411   2.365
 5152TIP3    H215414   7.744   6.519   2.288
 5153TIP3   OH215415   2.484   6.972   5.711
 5153TIP3    H115416   2.508   6.925   5.632
 5153TIP3    H215417   2.388   6.973   5.711
 5154TIP3   OH215418   2.118   1.597   2.115
 5154TIP3    H115419   2.154   1.601   2.204
 5154TIP3    H215420   2.104   1.503   2.099
 5155TIP3   OH215421   0.551   5.452   5.465
 5155TIP3    H115422   0.572   5.359   5.474
 5155TIP3    H215423   0.476   5.454   5.406
 5156TIP3   OH215424   8.234   6.722   3.012
 5156TIP3    H115425   8.281   6.766   2.941
 5156TIP3    H215426   8.260   6.630   3.006
 5157TIP3   OH215427   7.720   5.718   2.584
 5157TIP3    H115428   7.780   5.649   2.555
 5157TIP3    H215429   7.705   5.699   2.677
 5158TIP3   OH215430   7.752   1.606   5.873
 5158TIP3    H115431   7.684   1.661   5.834
 5158TIP3    H215432   7.705   1.552   5.937
 5159TIP3   OH215433   6.567   0.426   4.567
 5159TIP3    H115434   6.650   0.473   4.578
 5159TIP3    H215435   6.535   0.412   4.656
 5160TIP3   OH215436   1.385   5.732   6.223
 5160TIP3    H115437   1.446   5.737   6.297
 5160TIP3    H215438   1.373   5.638   6.208
 5161TIP3   OH215439   0.593   5.424   1.946
 5161TIP3    H115440   0.530   5.437   2.016
 5161TIP3    H215441   0.634   5.510   1.934
 5162TIP3   OH215442   2.554   5.060   0.752
 5162TIP3    H115443   2.576   5.146   0.787
 5162TIP3    H215444   2.486   5.078   0.687
 5163TIP3   OH215445   2.620   6.335   2.329
 5163TIP3    H115446   2.709   6.343   2.293
 5163TIP3    H215447   2.580   6.420   2.313
 5164TIP3   OH215448   4.316   7.011   1.709
 5164TIP3    H115449   4.266   6.958   1.770
 5164TIP3    H215450   4.286   7.101   1.725
 5165TIP3   OH215451   2.110   1.775   6.694
 5165TIP3    H115452   2.020   1.805   6.709
 5165TIP3    H215453   2.135   1.814   6.610
 5166TIP3   OH215454   3.755   0.044   2.374
 5166TIP3    H115455   3.820   0.068   2.308
 5166TIP3    H215456   3.786  -0.040   2.409
 5167TIP3   OH215457   1.238   7.224   0.735
 5167TIP3    H115458   1.286   7.149   0.770
 5167TIP3    H215459   1.164   7.184   0.688
 5168TIP3   OH215460   8.207   6.390   5.212
 5168TIP3    H115461   8.200   6.377   5.118
 5168TIP3    H215462   8.259   6.317   5.243
 5169TIP3   OH215463   2.320   0.086   0.164
 5169TIP3    H115464   2.260   0.028   0.118
 5169TIP3    H215465   2.309   0.171   0.122
 5170TIP3   OH215466   3.947   5.373   5.198
 5170TIP3    H115467   3.922   5.359   5.289
 5170TIP3    H215468   4.004   5.450   5.200
 5171TIP3   OH215469   6.222   3.551   4.901
 5171TIP3    H115470   6.260   3.608   4.968
 5171TIP3    H215471   6.128   3.551   4.920
 5172TIP3   OH215472   2.813   0.311   3.505
 5172TIP3    H115473   2.864   0.341   3.429
 5172TIP3    H215474   2.797   0.219   3.488
 5173TIP3   OH215475   2.518   7.708   5.589
 5173TIP3    H115476   2.425   7.687   5.591
 5173TIP3    H215477   2.554   7.654   5.518
 5174TIP3   OH215478   5.076   6.728   3.770
 5174TIP3    H115479   5.103   6.698   3.857
 5174TIP3    H215480   4.986   6.758   3.782
 5175TIP3   OH215481   3.477   5.654   4.068
 5175TIP3    H115482   3.423   5.587   4.025
 5175TIP3    H215483   3.532   5.689   3.997
 5176TIP3   OH215484   0.409   0.787   5.245
 5176TIP3    H115485   0.363   0.737   5.312
 5176TIP3    H215486   0.346   0.855   5.219
 5177TIP3   OH215487   5.088   6.446   1.830
 5177TIP3    H115488   5.027   6.378   1.803
 5177TIP3    H215489   5.042   6.493   1.900
 5178TIP3   OH215490   2.763   6.646   2.822
 5178TIP3    H115491   2.776   6.710   2.892
 5178TIP3    H215492   2.834   6.664   2.759
 5179TIP3   OH215493   3.481   0.660   6.704
 5179TIP3    H115494   3.535   0.684   6.779
 5179TIP3    H215495   3.520   0.706   6.630
 5180TIP3   OH215496   8.013   1.661   3.066
 5180TIP3    H115497   8.014   1.583   3.121
 5180TIP3    H215498   7.977   1.729   3.122
 5181TIP3   OH215499   2.148   4.691   5.726
 5181TIP3    H115500   2.135   4.599   5.705
 5181TIP3    H215501   2.227   4.692   5.780
 5182TIP3   OH215502   6.440   3.154   2.825
 5182TIP3    H115503   6.508   3.144   2.892
 5182TIP3    H215504   6.477   3.111   2.747
 5183TIP3   OH215505   5.135   3.845   1.653
 5183TIP3    H115506   5.095   3.822   1.570
 5183TIP3    H215507   5.061   3.868   1.710
 5184TIP3   OH215508   2.746   5.553   1.300
 5184TIP3    H115509   2.819   5.612   1.318
 5184TIP3    H215510   2.787   5.471   1.273
 5185TIP3   OH215511   7.545   0.147   5.830
 5185TIP3    H115512   7.553   0.152   5.734
 5185TIP3    H215513   7.635   0.140   5.861
 5186TIP3   OH215514   5.356   2.928   4.189
 5186TIP3    H115515   5.293   2.859   4.210
 5186TIP3    H215516   5.441   2.890   4.209
 5187TIP3   OH215517   1.024   1.901   1.270
 5187TIP3    H115518   0.965   1.968   1.236
 5187TIP3    H215519   1.007   1.824   1.215
 5188TIP3   OH215520   5.411   5.138   5.271
 5188TIP3    H115521   5.347   5.073   5.298
 5188TIP3    H215522   5.451   5.167   5.353
 5189TIP3   OH215523   6.146   4.029   3.950
 5189TIP3    H115524   6.129   4.031   3.856
 5189TIP3    H215525   6.179   4.117   3.970
 5190TIP3   OH215526   7.220   4.015   5.545
 5190TIP3    H115527   7.197   4.095   5.498
 5190TIP3    H215528   7.172   3.945   5.500
 5191TIP3   OH215529   0.773   2.879   4.335
 5191TIP3    H115530   0.815   2.869   4.420
 5191TIP3    H215531   0.733   2.966   4.338
 5192TIP3   OH215532   3.278   0.262   2.418
 5192TIP3    H115533   3.224   0.188   2.447
 5192TIP3    H215534   3.363   0.247   2.459
 5193TIP3   OH215535   5.152   3.046   3.223
 5193TIP3    H115536   5.228   3.058   3.166
 5193TIP3    H215537   5.147   3.126   3.275
 5194TIP3   OH215538   2.268   3.365   3.841
 5194TIP3    H115539   2.184   3.353   3.885
 5194TIP3    H215540   2.286   3.458   3.850
 5195TIP3   OH215541   2.322   3.247   1.999
 5195TIP3    H115542   2.342   3.333   1.962
 5195TIP3    H215543   2.333   3.258   2.093
 5196TIP3   OH215544   3.523   6.727   4.097
 5196TIP3    H115545   3.488   6.816   4.090
 5196TIP3    H215546   3.452   6.670   4.068
 5197TIP3   OH215547   1.422   6.503   1.820
 5197TIP3    H115548   1.326   6.510   1.816
 5197TIP3    H215549   1.442   6.423   1.771
 5198TIP3   OH215550   3.066   4.639   1.598
 5198TIP3    H115551   3.038   4.550   1.576
 5198TIP3    H215552   3.154   4.646   1.561
 5199TIP3   OH215553   1.154   7.644   2.827
 5199TIP3    H115554   1.107   7.656   2.745
 5199TIP3    H215555   1.148   7.550   2.845
 5200TIP3   OH215556   3.571   1.696   2.236
 5200TIP3    H115557   3.517   1.626   2.200
 5200TIP3    H215558   3.653   1.691   2.187
 5201TIP3   OH215559   8.096   7.710   6.749
 5201TIP3    H115560   8.045   7.629   6.743
 5201TIP3    H215561   8.170   7.688   6.805
 5202TIP3   OH215562   7.322   7.787   2.697
 5202TIP3    H115563   7.285   7.860   2.746
 5202TIP3    H215564   7.269   7.783   2.617
 5203TIP3   OH215565   5.573   4.647   0.027
 5203TIP3    H115566   5.571   4.558   0.061
 5203TIP3    H215567   5.509   4.646  -0.044
 5204TIP3   OH215568   5.014   4.208   2.657
 5204TIP3    H115569   4.955   4.267   2.704
 5204TIP3    H215570   5.057   4.157   2.725
 5205TIP3   OH215571   0.375   1.617   3.278
 5205TIP3    H115572   0.427   1.560   3.221
 5205TIP3    H215573   0.354   1.563   3.354
 5206TIP3   OH215574   0.496   2.340   3.872
 5206TIP3    H115575   0.413   2.365   3.911
 5206TIP3    H215576   0.556   2.330   3.946
 5207TIP3   OH215577   6.921   5.409   3.765
 5207TIP3    H115578   6.999   5.462   3.778
 5207TIP3    H215579   6.943   5.324   3.804
 5208TIP3   OH215580   2.329   4.750   5.196
 5208TIP3    H115581   2.256   4.762   5.258
 5208TIP3    H215582   2.404   4.788   5.241
 5209TIP3   OH215583   5.009   5.009   0.133
 5209TIP3    H115584   5.027   4.920   0.164
 5209TIP3    H215585   4.922   5.003   0.092
 5210TIP3   OH215586   1.040   5.438   1.639
 5210TIP3    H115587   0.960   5.385   1.647
 5210TIP3    H215588   1.084   5.428   1.724
 5211TIP3   OH215589   0.271   0.088   1.835
 5211TIP3    H115590   0.293   0.141   1.913
 5211TIP3    H215591   0.344   0.026   1.827
 5212TIP3   OH215592   1.304   5.197   2.151
 5212TIP3    H115593   1.279   5.122   2.096
 5212TIP3    H215594   1.235   5.203   2.217
 5213TIP3   OH215595   2.539   0.798   4.105
 5213TIP3    H115596   2.547   0.787   4.199
 5213TIP3    H215597   2.506   0.714   4.073
 5214TIP3   OH215598   1.362   1.242   1.200
 5214TIP3    H115599   1.320   1.259   1.284
 5214TIP3    H215600   1.322   1.306   1.140
 5215TIP3   OH215601   4.104   6.669   4.592
 5215TIP3    H115602   4.140   6.757   4.600
 5215TIP3    H215603   4.012   6.678   4.615
 5216TIP3   OH215604   0.384   3.778   3.436
 5216TIP3    H115605   0.330   3.700   3.453
 5216TIP3    H215606   0.423   3.799   3.521
 5217TIP3   OH215607   0.525   3.953   0.490
 5217TIP3    H115608   0.501   3.864   0.514
 5217TIP3    H215609   0.557   3.946   0.400
 5218TIP3   OH215610   1.030   5.401   5.750
 5218TIP3    H115611   1.108   5.391   5.804
 5218TIP3    H215612   0.987   5.315   5.754
 5219TIP3   OH215613   6.504   6.472   0.984
 5219TIP3    H115614   6.531   6.522   1.061
 5219TIP3    H215615   6.566   6.496   0.916
 5220TIP3   OH215616   5.706   0.749   3.112
 5220TIP3    H115617   5.670   0.776   3.197
 5220TIP3    H215618   5.676   0.816   3.051
 5221TIP3   OH215619   4.439   0.764   5.481
 5221TIP3    H115620   4.375   0.695   5.464
 5221TIP3    H215621   4.400   0.844   5.446
 5222TIP3   OH215622   5.877   2.671   2.417
 5222TIP3    H115623   5.914   2.715   2.341
 5222TIP3    H215624   5.886   2.578   2.397
 5223TIP3   OH215625   3.404   2.770   3.037
 5223TIP3    H115626   3.311   2.750   3.045
 5223TIP3    H215627   3.443   2.692   2.998
 5224TIP3   OH215628   6.664   7.222   5.367
 5224TIP3    H115629   6.706   7.136   5.361
 5224TIP3    H215630   6.727   7.282   5.327
 5225TIP3   OH215631   0.214   3.213   2.229
 5225TIP3    H115632   0.157   3.225   2.305
 5225TIP3    H215633   0.153   3.194   2.157
 5226TIP3   OH215634   1.031   2.063   2.834
 5226TIP3    H115635   0.941   2.072   2.803
 5226TIP3    H215636   1.085   2.091   2.760
 5227TIP3   OH215637   2.378   1.078   2.653
 5227TIP3    H115638   2.370   1.114   2.741
 5227TIP3    H215639   2.351   0.987   2.662
 5228TIP3   OH215640   4.656   3.784   4.234
 5228TIP3    H115641   4.749   3.767   4.248
 5228TIP3    H215642   4.625   3.709   4.183
 5229TIP3   OH215643   7.515   3.410   5.012
 5229TIP3    H115644   7.558   3.345   5.066
 5229TIP3    H215645   7.550   3.395   4.924
 5230TIP3   OH215646   7.383   2.556   0.706
 5230TIP3    H115647   7.414   2.646   0.709
 5230TIP3    H215648   7.375   2.529   0.797
 5231TIP3   OH215649   5.389   0.818   4.404
 5231TIP3    H115650   5.446   0.742   4.420
 5231TIP3    H215651   5.301   0.781   4.397
 5232TIP3   OH215652   2.142   1.493   4.223
 5232TIP3    H115653   2.217   1.449   4.182
 5232TIP3    H215654   2.083   1.422   4.246
 5233TIP3   OH215655   3.379   3.924   1.352
 5233TIP3    H115656   3.456   3.875   1.323
 5233TIP3    H215657   3.399   3.946   1.443
 5234TIP3   OH215658   3.251   2.574   3.827
 5234TIP3    H115659   3.167   2.547   3.790
 5234TIP3    H215660   3.240   2.668   3.846
 5235TIP3   OH215661   5.558   4.300   4.516
 5235TIP3    H115662   5.604   4.229   4.471
 5235TIP3    H215663   5.625   4.367   4.531
 5236TIP3   OH215664   6.110   5.977   2.880
 5236TIP3    H115665   6.161   5.934   2.812
 5236TIP3    H215666   6.071   5.906   2.931
 5237TIP3   OH215667   3.137   2.327   6.495
 5237TIP3    H115668   3.091   2.334   6.578
 5237TIP3    H215669   3.195   2.403   6.494
 5238TIP3   OH215670   5.040   6.541   5.366
 5238TIP3    H115671   5.010   6.558   5.455
 5238TIP3    H215672   5.133   6.518   5.375
 5239TIP3   OH215673   7.773   7.428   4.164
 5239TIP3    H115674   7.820   7.478   4.098
 5239TIP3    H215675   7.834   7.420   4.237
 5240TIP3   OH215676   1.173   3.336   5.661
 5240TIP3    H115677   1.081   3.360   5.647
 5240TIP3    H215678   1.187   3.262   5.602
 5241TIP3   OH215679   5.166   0.349   2.145
 5241TIP3    H115680   5.233   0.348   2.077
 5241TIP3    H215681   5.104   0.416   2.117
 5242TIP3   OH215682   3.120   6.184   1.986
 5242TIP3    H115683   3.123   6.151   2.076
 5242TIP3    H215684   3.195   6.141   1.943
 5243TIP3   OH215685   4.172   7.042   3.779
 5243TIP3    H115686   4.134   7.110   3.834
 5243TIP3    H215687   4.199   6.974   3.841
 5244TIP3   OH215688   2.762   5.314   5.382
 5244TIP3    H115689   2.852   5.303   5.354
 5244TIP3    H215690   2.710   5.266   5.317
 5245TIP3   OH215691   3.525   4.099   2.445
 5245TIP3    H115692   3.436   4.122   2.472
 5245TIP3    H215693   3.525   4.111   2.350
 5246TIP3   OH215694   5.389   0.947   4.125
 5246TIP3    H115695   5.448   1.022   4.126
 5246TIP3    H215696   5.434   0.880   4.175
 5247TIP3   OH215697   4.894   1.197   5.888
 5247TIP3    H115698   4.893   1.101   5.891
 5247TIP3    H215699   4.838   1.219   5.814
 5248TIP3   OH215700   5.418   6.901   1.459
 5248TIP3    H115701   5.447   6.810   1.447
 5248TIP3    H215702   5.446   6.923   1.548
 5249TIP3   OH215703   1.852   3.164   4.026
 5249TIP3    H115704   1.898   3.128   3.950
 5249TIP3    H215705   1.773   3.204   3.990
 5250TIP3   OH215706   4.711   7.690   0.056
 5250TIP3    H115707   4.712   7.783   0.078
 5250TIP3    H215708   4.625   7.675   0.018
 5251TIP3   OH215709   5.609   7.786   0.994
 5251TIP3    H115710   5.641   7.714   1.048
 5251TIP3    H215711   5.688   7.828   0.961
 5252TIP3   OH215712   5.938   0.924   1.053
 5252TIP3    H115713   5.889   0.998   1.018
 5252TIP3    H215714   5.874   0.853   1.060
 5253TIP3   OH215715   5.830   4.671   6.242
 5253TIP3    H115716   5.874   4.711   6.166
 5253TIP3    H215717   5.753   4.725   6.257
 5254TIP3   OH215718   6.421   5.222   5.718
 5254TIP3    H115719   6.492   5.162   5.694
 5254TIP3    H215720   6.459   5.310   5.709
 5255TIP3   OH215721   5.608   2.610   1.683
 5255TIP3    H115722   5.614   2.544   1.613
 5255TIP3    H215723   5.696   2.614   1.719
 5256TIP3   OH215724   0.727   7.760   3.919
 5256TIP3    H115725   0.738   7.840   3.868
 5256TIP3    H215726   0.689   7.697   3.858
 5257TIP3   OH215727   0.166   7.106   4.746
 5257TIP3    H115728   0.128   7.096   4.659
 5257TIP3    H215729   0.107   7.057   4.804
 5258TIP3   OH215730   6.032   6.724   3.382
 5258TIP3    H115731   5.973   6.796   3.403
 5258TIP3    H215732   6.056   6.687   3.466
 5259TIP3   OH215733   1.573   6.291   1.980
 5259TIP3    H115734   1.509   6.359   1.958
 5259TIP3    H215735   1.553   6.267   2.070
 5260TIP3   OH215736   5.469   5.235   4.468
 5260TIP3    H115737   5.520   5.154   4.476
 5260TIP3    H215738   5.474   5.275   4.555
 5261TIP3   OH215739   2.954   5.102   3.225
 5261TIP3    H115740   2.860   5.095   3.205
 5261TIP3    H215741   2.988   5.014   3.210
 5262TIP3   OH215742   5.608   3.086   6.767
 5262TIP3    H115743   5.619   3.050   6.679
 5262TIP3    H215744   5.695   3.119   6.791
 5263TIP3   OH215745   7.496   2.082   1.648
 5263TIP3    H115746   7.470   2.045   1.732
 5263TIP3    H215747   7.449   2.030   1.582
 5264TIP3   OH215748   3.521   2.519   4.194
 5264TIP3    H115749   3.523   2.586   4.125
 5264TIP3    H215750   3.486   2.441   4.152
 5265TIP3   OH215751   7.802   2.262   6.334
 5265TIP3    H115752   7.722   2.274   6.385
 5265TIP3    H215753   7.851   2.344   6.346
 5266TIP3   OH215754   4.681   6.911   0.300
 5266TIP3    H115755   4.657   6.936   0.389
 5266TIP3    H215756   4.720   6.990   0.262
 5267TIP3   OH215757   7.399   1.492   4.995
 5267TIP3    H115758   7.309   1.523   5.010
 5267TIP3    H215759   7.388   1.402   4.965
 5268TIP3   OH215760   5.792   1.580   5.225
 5268TIP3    H115761   5.704   1.543   5.230
 5268TIP3    H215762   5.803   1.605   5.133
 5269TIP3   OH215763   4.638   5.413   3.948
 5269TIP3    H115764   4.585   5.415   3.868
 5269TIP3    H215765   4.574   5.420   4.019
 5270TIP3   OH215766   7.536   5.569   6.333
 5270TIP3    H115767   7.607   5.627   6.361
 5270TIP3    H215768   7.581   5.490   6.302
 5271TIP3   OH215769   8.077   2.967   3.363
 5271TIP3    H115770   8.016   3.036   3.388
 5271TIP3    H215771   8.099   2.924   3.445
 5272TIP3   OH215772   6.406   2.414   0.514
 5272TIP3    H115773   6.398   2.332   0.563
 5272TIP3    H215774   6.332   2.467   0.544
 5273TIP3   OH215775   1.639   7.730   5.110
 5273TIP3    H115776   1.559   7.689   5.077
 5273TIP3    H215777   1.698   7.657   5.126
 5274TIP3   OH215778   2.273   1.307   5.409
 5274TIP3    H115779   2.257   1.366   5.335
 5274TIP3    H215780   2.254   1.360   5.486
 5275TIP3   OH215781   6.690   5.496   3.601
 5275TIP3    H115782   6.723   5.556   3.534
 5275TIP3    H215783   6.768   5.467   3.648
 5276TIP3   OH215784   8.312   0.393   4.827
 5276TIP3    H115785   8.301   0.394   4.923
 5276TIP3    H215786   8.230   0.427   4.793
 5277TIP3   OH215787   1.742   7.080   1.300
 5277TIP3    H115788   1.784   7.001   1.334
 5277TIP3    H215789   1.811   7.146   1.301
 5278TIP3   OH215790   1.588   3.100   3.476
 5278TIP3    H115791   1.677   3.066   3.489
 5278TIP3    H215792   1.548   3.096   3.563
 5279TIP3   OH215793   3.578   1.753   2.914
 5279TIP3    H115794   3.621   1.668   2.903
 5279TIP3    H215795   3.626   1.795   2.985
 5280TIP3   OH215796   4.713   4.418   6.530
 5280TIP3    H115797   4.624   4.385   6.525
 5280TIP3    H215798   4.768   4.343   6.503
 5281TIP3   OH215799   0.198   5.207   0.399
 5281TIP3    H115800   0.272   5.201   0.340
 5281TIP3    H215801   0.122   5.189   0.344
 5282TIP3   OH215802   1.940   6.373   6.216
 5282TIP3    H115803   1.864   6.324   6.247
 5282TIP3    H215804   1.938   6.361   6.121
 5283TIP3   OH215805   4.887   4.926   4.080
 5283TIP3    H115806   4.821   4.968   4.024
 5283TIP3    H215807   4.881   4.974   4.163
 5284TIP3   OH215808   5.227   7.818   2.309
 5284TIP3    H115809   5.238   7.904   2.351
 5284TIP3    H215810   5.316   7.783   2.304
 5285TIP3   OH215811   5.702   1.184   2.773
 5285TIP3    H115812   5.757   1.246   2.723
 5285TIP3    H215813   5.714   1.210   2.864
 5286TIP3   OH215814   5.727   3.656   2.260
 5286TIP3    H115815   5.720   3.605   2.180
 5286TIP3    H215816   5.814   3.694   2.258
 5287TIP3   OH215817   2.245   3.968   2.358
 5287TIP3    H115818   2.277   4.058   2.350
 5287TIP3    H215819   2.321   3.919   2.391
 5288TIP3   OH215820   3.459   7.276   5.475
 5288TIP3    H115821   3.400   7.311   5.542
 5288TIP3    H215822   3.401   7.232   5.412
 5289TIP3   OH215823   1.862   6.255   2.430
 5289TIP3    H115824   1.915   6.298   2.362
 5289TIP3    H215825   1.920   6.189   2.467
 5290TIP3   OH215826   5.529   4.743   3.616
 5290TIP3    H115827   5.491   4.762   3.530
 5290TIP3    H215828   5.474   4.673   3.652
 5291TIP3   OH215829   5.464   5.565   4.744
 5291TIP3    H115830   5.512   5.492   4.705
 5291TIP3    H215831   5.525   5.605   4.805
 5292TIP3   OH215832   0.794   3.333   1.027
 5292TIP3    H115833   0.780   3.426   1.045
 5292TIP3    H215834   0.878   3.313   1.069
 5293TIP3   OH215835   5.221   6.808   6.093
 5293TIP3    H115836   5.306   6.852   6.091
 5293TIP3    H215837   5.168   6.861   6.152
 5294TIP3   OH215838   7.640   6.784   2.810
 5294TIP3    H115839   7.571   6.834   2.855
 5294TIP3    H215840   7.617   6.788   2.717
 5295TIP3   OH215841   6.763   7.415   5.179
 5295TIP3    H115842   6.793   7.352   5.115
 5295TIP3    H215843   6.692   7.462   5.136
 5296TIP3   OH215844   6.238   6.435   1.562
 5296TIP3    H115845   6.151   6.429   1.600
 5296TIP3    H215846   6.223   6.438   1.467
 5297TIP3   OH215847   2.055   7.665   3.392
 5297TIP3    H115848   2.090   7.641   3.478
 5297TIP3    H215849   2.114   7.624   3.330
 5298TIP3   OH215850   4.902   0.250   0.923
 5298TIP3    H115851   4.818   0.266   0.881
 5298TIP3    H215852   4.908   0.154   0.927
 5299TIP3   OH215853   7.947   5.882   2.433
 5299TIP3    H115854   7.919   5.800   2.393
 5299TIP3    H215855   7.874   5.942   2.416
 5300TIP3   OH215856   3.793   2.980   5.235
 5300TIP3    H115857   3.862   2.927   5.195
 5300TIP3    H215858   3.782   3.054   5.176
 5301TIP3   OH215859   2.676   4.174   0.588
 5301TIP3    H115860   2.759   4.223   0.587
 5301TIP3    H215861   2.619   4.223   0.529
 5302TIP3   OH215862   1.848   2.524   5.542
 5302TIP3    H115863   1.917   2.558   5.485
 5302TIP3    H215864   1.769   2.526   5.488
 5303TIP3   OH215865   6.308   3.701   4.557
 5303TIP3    H115866   6.317   3.645   4.480
 5303TIP3    H215867   6.352   3.652   4.627
 5304TIP3   OH215868   7.720   1.785   0.275
 5304TIP3    H115869   7.772   1.810   0.199
 5304TIP3    H215870   7.731   1.857   0.337
 5305TIP3   OH215871   7.954   3.907   5.946
 5305TIP3    H115872   7.958   3.971   6.017
 5305TIP3    H215873   8.045   3.894   5.919
 5306TIP3   OH215874   7.972   2.076   6.676
 5306TIP3    H115875   8.061   2.083   6.711
 5306TIP3    H215876   7.984   2.060   6.582
 5307TIP3   OH215877   1.737   6.903   4.769
 5307TIP3    H115878   1.762   6.874   4.857
 5307TIP3    H215879   1.641   6.901   4.770
 5308TIP3   OH215880   3.861   2.554   2.725
 5308TIP3    H115881   3.872   2.642   2.688
 5308TIP3    H215882   3.938   2.506   2.696
 5309TIP3   OH215883   2.876   4.842   1.568
 5309TIP3    H115884   2.931   4.768   1.542
 5309TIP3    H215885   2.934   4.918   1.559
 5310TIP3   OH215886   7.144   4.950   6.684
 5310TIP3    H115887   7.070   5.005   6.656
 5310TIP3    H215888   7.124   4.929   6.775
 5311TIP3   OH215889   0.140   5.355   2.361
 5311TIP3    H115890   0.218   5.408   2.373
 5311TIP3    H215891   0.113   5.373   2.270
 5312TIP3   OH215892   3.648   6.875   6.500
 5312TIP3    H115893   3.685   6.787   6.492
 5312TIP3    H215894   3.724   6.933   6.503
 5313TIP3   OH215895   8.031   0.053   5.447
 5313TIP3    H115896   8.035   0.042   5.542
 5313TIP3    H215897   7.985   0.136   5.434
 5314TIP3   OH215898   0.438   1.393   4.921
 5314TIP3    H115899   0.364   1.437   4.963
 5314TIP3    H215900   0.488   1.355   4.993
 5315TIP3   OH215901   0.642   2.188   3.033
 5315TIP3    H115902   0.730   2.223   3.049
 5315TIP3    H215903   0.628   2.125   3.104
 5316TIP3   OH215904   6.858   0.749   1.398
 5316TIP3    H115905   6.810   0.827   1.368
 5316TIP3    H215906   6.810   0.722   1.477
 5317TIP3   OH215907   6.707   7.036   4.815
 5317TIP3    H115908   6.636   6.978   4.843
 5317TIP3    H215909   6.706   7.030   4.719
 5318TIP3   OH215910   5.600   7.723   5.777
 5318TIP3    H115911   5.578   7.729   5.683
 5318TIP3    H215912   5.619   7.630   5.791
 5319TIP3   OH215913   0.995   4.367   3.159
 5319TIP3    H115914   1.046   4.409   3.228
 5319TIP3    H215915   0.985   4.435   3.092
 5320TIP3   OH215916   1.952   3.271   0.181
 5320TIP3    H115917   1.975   3.235   0.096
 5320TIP3    H215918   1.938   3.365   0.165
 5321TIP3   OH215919   6.473   6.857   4.900
 5321TIP3    H115920   6.503   6.883   4.988
 5321TIP3    H215921   6.403   6.918   4.879
 5322TIP3   OH215922   7.759   0.457   1.423
 5322TIP3    H115923   7.814   0.505   1.360
 5322TIP3    H215924   7.807   0.375   1.439
 5323TIP3   OH215925   6.584   4.914   0.572
 5323TIP3    H115926   6.523   4.907   0.498
 5323TIP3    H215927   6.539   4.971   0.634
 5324TIP3   OH215928   3.238   2.312   5.916
 5324TIP3    H115929   3.153   2.276   5.891
 5324TIP3    H215930   3.291   2.236   5.937
 5325TIP3   OH215931   6.059   3.645   0.941
 5325TIP3    H115932   6.048   3.566   0.993
 5325TIP3    H215933   6.013   3.626   0.859
 5326TIP3   OH215934   2.859   3.268   6.341
 5326TIP3    H115935   2.884   3.361   6.339
 5326TIP3    H215936   2.869   3.238   6.251
 5327TIP3   OH215937   1.185   1.326   2.565
 5327TIP3    H115938   1.261   1.351   2.513
 5327TIP3    H215939   1.218   1.261   2.627
 5328TIP3   OH215940   8.140   3.872   0.361
 5328TIP3    H115941   8.197   3.852   0.435
 5328TIP3    H215942   8.159   3.803   0.297
 5329TIP3   OH215943   0.340   1.091   0.839
 5329TIP3    H115944   0.405   1.022   0.858
 5329TIP3    H215945   0.295   1.105   0.922
 5330TIP3   OH215946   4.661   5.283   5.616
 5330TIP3    H115947   4.570   5.256   5.630
 5330TIP3    H215948   4.701   5.208   5.573
 5331TIP3   OH215949   4.185   1.313   1.465
 5331TIP3    H115950   4.162   1.295   1.556
 5331TIP3    H215951   4.270   1.355   1.469
 5332TIP3   OH215952   2.845   5.351   4.069
 5332TIP3    H115953   2.764   5.383   4.110
 5332TIP3    H215954   2.882   5.429   4.028
 5333TIP3   OH215955   4.357   5.837   0.503
 5333TIP3    H115956   4.365   5.914   0.559
 5333TIP3    H215957   4.442   5.829   0.460
 5334TIP3   OH215958   0.171   4.433   2.368
 5334TIP3    H115959   0.208   4.345   2.376
 5334TIP3    H215960   0.150   4.443   2.275
 5335TIP3   OH215961   0.061   1.208   4.732
 5335TIP3    H115962   0.017   1.287   4.702
 5335TIP3    H215963   0.084   1.160   4.653
 5336TIP3   OH215964   6.689   3.718   1.734
 5336TIP3    H115965   6.726   3.662   1.802
 5336TIP3    H215966   6.600   3.683   1.720
 5337TIP3   OH215967   0.464   6.652   3.398
 5337TIP3    H115968   0.396   6.595   3.362
 5337TIP3    H215969   0.453   6.735   3.352
 5338TIP3   OH215970   5.655   5.651   5.925
 5338TIP3    H115971   5.674   5.557   5.923
 5338TIP3    H215972   5.739   5.693   5.911
 5339TIP3   OH215973   4.032   0.667   1.788
 5339TIP3    H115974   3.953   0.666   1.733
 5339TIP3    H215975   4.105   0.671   1.726
 5340TIP3   OH215976   3.534   4.161   1.122
 5340TIP3    H115977   3.574   4.075   1.110
 5340TIP3    H215978   3.440   4.143   1.129
 5341TIP3   OH215979   4.403   0.279   2.019
 5341TIP3    H115980   4.364   0.362   1.991
 5341TIP3    H215981   4.399   0.222   1.942
 5342TIP3   OH215982   4.020   7.500   1.056
 5342TIP3    H115983   4.027   7.542   0.971
 5342TIP3    H215984   4.074   7.421   1.049
 5343TIP3   OH215985   4.148   1.708   5.476
 5343TIP3    H115986   4.189   1.624   5.458
 5343TIP3    H215987   4.075   1.688   5.534
 5344TIP3   OH215988   2.294   5.252   1.515
 5344TIP3    H115989   2.238   5.283   1.444
 5344TIP3    H215990   2.324   5.331   1.559
 5345TIP3   OH215991   3.251   2.852   6.179
 5345TIP3    H115992   3.234   2.935   6.223
 5345TIP3    H215993   3.188   2.849   6.107
 5346TIP3   OH215994   4.181   1.823   4.703
 5346TIP3    H115995   4.184   1.918   4.702
 5346TIP3    H215996   4.226   1.798   4.784
 5347TIP3   OH215997   7.310   7.373   3.747
 5347TIP3    H115998   7.360   7.370   3.828
 5347TIP3    H215999   7.368   7.334   3.681
 5348TIP3   OH216000   2.619   5.839   4.944
 5348TIP3    H116001   2.609   5.829   5.039
 5348TIP3    H216002   2.700   5.888   4.933
 5349TIP3   OH216003   7.093   6.487   5.900
 5349TIP3    H116004   7.108   6.579   5.881
 5349TIP3    H216005   7.001   6.482   5.927
 5350TIP3   OH216006   6.903   0.206   4.375
 5350TIP3    H116007   6.972   0.140   4.376
 5350TIP3    H216008   6.831   0.165   4.326
 5351TIP3   OH216009   2.647   5.008   3.193
 5351TIP3    H116010   2.640   5.004   3.098
 5351TIP3    H216011   2.612   4.924   3.223
 5352TIP3   OH216012   6.126   7.624   4.712
 5352TIP3    H116013   6.086   7.566   4.776
 5352TIP3    H216014   6.135   7.708   4.757
 5353TIP3   OH216015   6.375   6.537   3.996
 5353TIP3    H116016   6.315   6.489   4.054
 5353TIP3    H216017   6.458   6.491   4.004
 5354TIP3   OH216018   5.624   7.573   5.096
 5354TIP3    H116019   5.682   7.633   5.049
 5354TIP3    H216020   5.677   7.539   5.168
 5355TIP3   OH216021   5.172   2.914   1.621
 5355TIP3    H116022   5.243   2.969   1.654
 5355TIP3    H216023   5.097   2.974   1.615
 5356TIP3   OH216024   7.858   6.122   0.932
 5356TIP3    H116025   7.870   6.143   0.839
 5356TIP3    H216026   7.768   6.149   0.951
 5357TIP3   OH216027   3.624   3.472   1.376
 5357TIP3    H116028   3.576   3.516   1.446
 5357TIP3    H216029   3.566   3.477   1.301
 5358TIP3   OH216030   6.194   5.164   6.252
 5358TIP3    H116031   6.215   5.074   6.230
 5358TIP3    H216032   6.102   5.162   6.279
 5359TIP3   OH216033   5.738   2.312   0.765
 5359TIP3    H116034   5.751   2.253   0.690
 5359TIP3    H216035   5.689   2.259   0.828
 5360TIP3   OH216036   2.934   1.431   3.767
 5360TIP3    H116037   2.910   1.470   3.851
 5360TIP3    H216038   3.016   1.474   3.744
 5361TIP3   OH216039   0.726   0.361   6.118
 5361TIP3    H116040   0.818   0.336   6.114
 5361TIP3    H216041   0.679   0.289   6.076
 5362TIP3   OH216042   5.234   1.015   1.795
 5362TIP3    H116043   5.148   0.995   1.757
 5362TIP3    H216044   5.293   1.018   1.720
 5363TIP3   OH216045   3.822   1.058   3.928
 5363TIP3    H116046   3.827   1.152   3.910
 5363TIP3    H216047   3.898   1.041   3.984
 5364TIP3   OH216048   0.765   5.516   6.399
 5364TIP3    H116049   0.755   5.539   6.307
 5364TIP3    H216050   0.839   5.570   6.429
 5365TIP3   OH216051   5.105   4.838   5.022
 5365TIP3    H116052   5.145   4.829   4.935
 5365TIP3    H216053   5.013   4.820   5.008
 5366TIP3   OH216054   1.175   3.175   4.883
 5366TIP3    H116055   1.098   3.229   4.898
 5366TIP3    H216056   1.221   3.175   4.968
 5367TIP3   OH216057   5.905   4.460   5.580
 5367TIP3    H116058   5.873   4.371   5.591
 5367TIP3    H216059   5.844   4.500   5.518
 5368TIP3   OH216060   0.940   7.582   5.104
 5368TIP3    H116061   0.921   7.499   5.060
 5368TIP3    H216062   1.021   7.566   5.153
 5369TIP3   OH216063   3.091   0.898   5.777
 5369TIP3    H116064   3.112   0.859   5.862
 5369TIP3    H216065   3.171   0.888   5.725
 5370TIP3   OH216066   4.595   6.740   3.456
 5370TIP3    H116067   4.590   6.661   3.403
 5370TIP3    H216068   4.517   6.737   3.511
 5371TIP3   OH216069   0.668   5.816   3.219
 5371TIP3    H116070   0.724   5.832   3.295
 5371TIP3    H216071   0.594   5.876   3.232
 5372TIP3   OH216072   1.036   3.719   0.226
 5372TIP3    H116073   1.112   3.778   0.233
 5372TIP3    H216074   0.995   3.723   0.313
 5373TIP3   OH216075   0.158   4.598   4.238
 5373TIP3    H116076   0.125   4.623   4.152
 5373TIP3    H216077   0.080   4.590   4.293
 5374TIP3   OH216078   4.799   2.759   4.183
 5374TIP3    H116079   4.744   2.787   4.110
 5374TIP3    H216080   4.741   2.763   4.259
 5375TIP3   OH216081   3.992   1.555   3.103
 5375TIP3    H116082   3.916   1.503   3.129
 5375TIP3    H216083   3.954   1.638   3.073
 5376TIP3   OH216084   7.866   1.806   4.025
 5376TIP3    H116085   7.848   1.731   4.082
 5376TIP3    H216086   7.916   1.769   3.952
 5377TIP3   OH216087   4.072   2.339   1.037
 5377TIP3    H116088   4.063   2.252   0.996
 5377TIP3    H216089   4.137   2.327   1.106
 5378TIP3   OH216090   5.411   1.011  -0.020
 5378TIP3    H116091   5.321   0.994   0.008
 5378TIP3    H216092   5.414   1.105  -0.036
 5379TIP3   OH216093   5.508   1.321   5.869
 5379TIP3    H116094   5.443   1.258   5.837
 5379TIP3    H216095   5.504   1.394   5.807
 5380TIP3   OH216096   0.678   5.075   3.076
 5380TIP3    H116097   0.760   5.114   3.048
 5380TIP3    H216098   0.616   5.148   3.079
 5381TIP3   OH216099   8.247   4.055   6.281
 5381TIP3    H116100   8.215   4.097   6.201
 5381TIP3    H216101   8.171   4.055   6.339
 5382TIP3   OH216102   2.067   6.588   2.273
 5382TIP3    H116103   2.030   6.627   2.352
 5382TIP3    H216104   2.094   6.662   2.219
 5383TIP3   OH216105   1.542   4.494   6.757
 5383TIP3    H116106   1.602   4.510   6.684
 5383TIP3    H216107   1.464   4.457   6.716
 5384TIP3   OH216108   6.475   7.273   5.878
 5384TIP3    H116109   6.486   7.341   5.944
 5384TIP3    H216110   6.562   7.234   5.868
 5385TIP3   OH216111   3.234   6.207   0.694
 5385TIP3    H116112   3.306   6.162   0.650
 5385TIP3    H216113   3.155   6.166   0.660
 5386TIP3   OH216114   4.051   3.706   6.673
 5386TIP3    H116115   4.137   3.675   6.647
 5386TIP3    H216116   4.042   3.792   6.631
 5387TIP3   OH216117   7.964   2.949   0.993
 5387TIP3    H116118   7.890   3.005   1.017
 5387TIP3    H216119   7.933   2.860   1.006
 5388TIP3   OH216120   8.068   5.339   1.150
 5388TIP3    H116121   8.115   5.407   1.198
 5388TIP3    H216122   7.982   5.377   1.133
 5389TIP3   OH216123   1.617   3.040   4.813
 5389TIP3    H116124   1.529   3.052   4.777
 5389TIP3    H216125   1.654   2.966   4.764
 5390TIP3   OH216126   5.917   4.934   5.353
 5390TIP3    H116127   5.981   4.887   5.406
 5390TIP3    H216128   5.939   4.911   5.263
 5391TIP3   OH216129   7.982   7.577   2.275
 5391TIP3    H116130   8.031   7.633   2.336
 5391TIP3    H216131   7.898   7.623   2.264
 5392TIP3   OH216132   1.843   0.126   0.507
 5392TIP3    H116133   1.790   0.092   0.579
 5392TIP3    H216134   1.892   0.199   0.546
 5393TIP3   OH216135   6.521   6.832   0.945
 5393TIP3    H116136   6.586   6.807   0.880
 5393TIP3    H216137   6.512   6.927   0.934
 5394TIP3   OH216138   3.673   2.463   6.144
 5394TIP3    H116139   3.672   2.559   6.136
 5394TIP3    H216140   3.766   2.440   6.147
 5395TIP3   OH216141   2.735   2.870   5.815
 5395TIP3    H116142   2.774   2.801   5.869
 5395TIP3    H216143   2.650   2.836   5.790
 5396TIP3   OH216144   5.044   0.372   0.637
 5396TIP3    H116145   5.039   0.447   0.696
 5396TIP3    H216146   4.953   0.353   0.614
 5397TIP3   OH216147   2.902   3.532   0.023
 5397TIP3    H116148   2.842   3.544   0.096
 5397TIP3    H216149   2.987   3.560   0.057
 5398TIP3   OH216150   5.069   6.687   0.054
 5398TIP3    H116151   4.978   6.709   0.032
 5398TIP3    H216152   5.099   6.761   0.106
 5399TIP3   OH216153   3.383   5.092   6.740
 5399TIP3    H116154   3.430   5.134   6.668
 5399TIP3    H216155   3.303   5.059   6.700
 5400TIP3   OH216156   7.472   2.559   1.307
 5400TIP3    H116157   7.530   2.490   1.274
 5400TIP3    H216158   7.530   2.634   1.319
 5401TIP3   OH216159   2.319   3.596   5.676
 5401TIP3    H116160   2.282   3.512   5.701
 5401TIP3    H216161   2.394   3.574   5.620
 5402TIP3   OH216162   3.095   0.679   0.113
 5402TIP3    H116163   3.039   0.756   0.099
 5402TIP3    H216164   3.184   0.714   0.117
 5403TIP3   OH216165   0.069   7.190   6.419
 5403TIP3    H116166  -0.016   7.227   6.393
 5403TIP3    H216167   0.133   7.249   6.380
 5404TIP3   OH216168   5.733   5.935   0.290
 5404TIP3    H116169   5.729   5.904   0.381
 5404TIP3    H216170   5.664   5.886   0.246
 5405TIP3   OH216171   4.548   4.156   1.328
 5405TIP3    H116172   4.634   4.193   1.347
 5405TIP3    H216173   4.564   4.064   1.308
 5406TIP3   OH216174   2.247   4.139   5.615
 5406TIP3    H116175   2.208   4.060   5.577
 5406TIP3    H216176   2.340   4.119   5.620
 5407TIP3   OH216177   1.923   2.848   5.618
 5407TIP3    H116178   1.858   2.829   5.685
 5407TIP3    H216179   1.935   2.943   5.622
 5408TIP3   OH216180   3.351   5.160   6.308
 5408TIP3    H116181   3.367   5.254   6.322
 5408TIP3    H216182   3.424   5.131   6.254
 5409TIP3   OH216183   7.188   2.242   3.049
 5409TIP3    H116184   7.208   2.213   2.960
 5409TIP3    H216185   7.099   2.210   3.064
 5410TIP3   OH216186   2.552   6.683   5.026
 5410TIP3    H116187   2.614   6.755   5.017
 5410TIP3    H216188   2.603   6.612   5.064
 5411TIP3   OH216189   4.891   6.873   5.548
 5411TIP3    H116190   4.797   6.875   5.530
 5411TIP3    H216191   4.901   6.922   5.630
 5412TIP3   OH216192   1.624   7.732   2.824
 5412TIP3    H116193   1.542   7.769   2.858
 5412TIP3    H216194   1.611   7.637   2.828
 5413TIP3   OH216195   0.925   6.524   5.205
 5413TIP3    H116196   0.865   6.598   5.206
 5413TIP3    H216197   0.994   6.550   5.144
 5414TIP3   OH216198   2.652   2.808   0.888
 5414TIP3    H116199   2.570   2.819   0.840
 5414TIP3    H216200   2.719   2.799   0.820
 5415TIP3   OH216201   7.115   2.044   1.143
 5415TIP3    H116202   7.115   2.079   1.232
 5415TIP3    H216203   7.088   2.118   1.089
 5416TIP3   OH216204   3.577   3.541   3.482
 5416TIP3    H116205   3.618   3.575   3.403
 5416TIP3    H216206   3.561   3.449   3.463
 5417TIP3   OH216207   1.593   6.727   1.903
 5417TIP3    H116208   1.674   6.683   1.877
 5417TIP3    H216209   1.534   6.655   1.925
 5418TIP3   OH216210   2.697   7.238   4.769
 5418TIP3    H116211   2.654   7.319   4.797
 5418TIP3    H216212   2.630   7.171   4.782
 5419TIP3   OH216213   6.770   4.270   6.179
 5419TIP3    H116214   6.790   4.206   6.111
 5419TIP3    H216215   6.790   4.225   6.261
 5420TIP3   OH216216   4.898   6.173   6.543
 5420TIP3    H116217   4.943   6.109   6.487
 5420TIP3    H216218   4.806   6.164   6.519
 5421TIP3   OH216219   7.498   5.465   3.693
 5421TIP3    H116220   7.472   5.375   3.712
 5421TIP3    H216221   7.562   5.486   3.762
 5422TIP3   OH216222   4.018   5.339   2.705
 5422TIP3    H116223   4.093   5.371   2.755
 5422TIP3    H216224   4.058   5.287   2.634
 5423TIP3   OH216225   7.811   4.512   3.566
 5423TIP3    H116226   7.818   4.418   3.549
 5423TIP3    H216227   7.779   4.518   3.656
 5424TIP3   OH216228   0.984   2.039   0.797
 5424TIP3    H116229   1.042   2.084   0.858
 5424TIP3    H216230   0.904   2.020   0.847
 5425TIP3   OH216231   6.889   0.585   2.122
 5425TIP3    H116232   6.793   0.590   2.113
 5425TIP3    H216233   6.922   0.652   2.063
 5426TIP3   OH216234   7.631   1.026   4.571
 5426TIP3    H116235   7.678   0.958   4.621
 5426TIP3    H216236   7.693   1.099   4.566
 5427TIP3   OH216237   6.493   1.189   0.550
 5427TIP3    H116238   6.518   1.251   0.482
 5427TIP3    H216239   6.566   1.189   0.612
 5428TIP3   OH216240   1.844   4.031   6.313
 5428TIP3    H116241   1.876   3.984   6.236
 5428TIP3    H216242   1.915   4.024   6.376
 5429TIP3   OH216243   2.594   7.314   3.053
 5429TIP3    H116244   2.570   7.406   3.055
 5429TIP3    H216245   2.688   7.313   3.070
 5430TIP3   OH216246   7.119   0.831   3.369
 5430TIP3    H116247   7.031   0.868   3.362
 5430TIP3    H216248   7.150   0.825   3.278
 5431TIP3   OH216249   3.604   0.503   4.631
 5431TIP3    H116250   3.633   0.510   4.540
 5431TIP3    H216251   3.664   0.440   4.671
 5432TIP3   OH216252   5.850   2.926   4.515
 5432TIP3    H116253   5.939   2.890   4.518
 5432TIP3    H216254   5.842   2.962   4.427
 5433TIP3   OH216255   5.744   5.678   3.334
 5433TIP3    H116256   5.740   5.731   3.414
 5433TIP3    H216257   5.669   5.706   3.283
 5434TIP3   OH216258   7.364   6.254   1.280
 5434TIP3    H116259   7.393   6.338   1.314
 5434TIP3    H216260   7.294   6.226   1.339
 5435TIP3   OH216261   4.341   3.942   5.449
 5435TIP3    H116262   4.263   3.904   5.409
 5435TIP3    H216263   4.399   3.960   5.375
 5436TIP3   OH216264   5.406   5.904   1.750
 5436TIP3    H116265   5.362   5.869   1.828
 5436TIP3    H216266   5.408   5.831   1.688
 5437TIP3   OH216267   0.188   5.939   3.120
 5437TIP3    H116268   0.250   5.901   3.058
 5437TIP3    H216269   0.102   5.919   3.083
 5438TIP3   OH216270   6.225   5.335   4.247
 5438TIP3    H116271   6.281   5.259   4.267
 5438TIP3    H216272   6.142   5.316   4.291
 5439TIP3   OH216273   2.643   0.453   0.127
 5439TIP3    H116274   2.571   0.466   0.065
 5439TIP3    H216275   2.666   0.542   0.155
 5440TIP3   OH216276   3.801   2.679   2.972
 5440TIP3    H116277   3.802   2.596   2.924
 5440TIP3    H216278   3.890   2.713   2.963
 5441TIP3   OH216279   4.737   0.588   0.333
 5441TIP3    H116280   4.711   0.528   0.402
 5441TIP3    H216281   4.655   0.621   0.297
 5442TIP3   OH216282   5.594   0.087   2.291
 5442TIP3    H116283   5.658   0.095   2.220
 5442TIP3    H216284   5.607  -0.002   2.325
 5443TIP3   OH216285   0.309   6.260   3.631
 5443TIP3    H116286   0.374   6.213   3.579
 5443TIP3    H216287   0.356   6.335   3.665
 5444TIP3   OH216288   1.963   6.860   3.545
 5444TIP3    H116289   1.973   6.932   3.607
 5444TIP3    H216290   2.039   6.867   3.487
 5445TIP3   OH216291   8.236   5.009   3.435
 5445TIP3    H116292   8.261   4.917   3.440
 5445TIP3    H216293   8.308   5.056   3.476
 5446TIP3   OH216294   8.230   2.406   6.489
 5446TIP3    H116295   8.255   2.431   6.400
 5446TIP3    H216296   8.135   2.417   6.490
 5447TIP3   OH216297   6.899   1.912   6.164
 5447TIP3    H116298   6.830   1.872   6.111
 5447TIP3    H216299   6.945   1.970   6.103
 5448TIP3   OH216300   0.115   5.615   5.076
 5448TIP3    H116301   0.122   5.585   4.986
 5448TIP3    H216302   0.158   5.701   5.076
 5449TIP3   OH216303  -0.029   0.403   1.260
 5449TIP3    H116304  -0.116   0.421   1.224
 5449TIP3    H216305  -0.029   0.309   1.279
 5450TIP3   OH216306   7.284   4.491   4.336
 5450TIP3    H116307   7.226   4.426   4.296
 5450TIP3    H216308   7.270   4.481   4.430
 5451TIP3   OH216309   7.069   2.829   4.902
 5451TIP3    H116310   7.030   2.778   4.973
 5451TIP3    H216311   7.113   2.765   4.847
 5452TIP3   OH216312   2.008   2.174   4.385
 5452TIP3    H116313   2.058   2.256   4.381
 5452TIP3    H216314   2.073   2.106   4.370
 5453TIP3   OH216315   0.118   2.036   1.540
 5453TIP3    H116316   0.094   2.004   1.627
 5453TIP3    H216317   0.054   2.105   1.522
 5454TIP3   OH216318   3.713   7.837   5.356
 5454TIP3    H116319   3.635   7.808   5.401
 5454TIP3    H216320   3.681   7.894   5.286
 5455TIP3   OH216321   3.897   6.525   2.672
 5455TIP3    H116322   3.838   6.500   2.601
 5455TIP3    H216323   3.839   6.536   2.748
 5456TIP3   OH216324   6.973   2.662   3.000
 5456TIP3    H116325   6.999   2.647   2.909
 5456TIP3    H216326   7.031   2.606   3.051
 5457TIP3   OH216327   4.242   6.253   4.532
 5457TIP3    H116328   4.185   6.179   4.555
 5457TIP3    H216329   4.330   6.221   4.548
 5458TIP3   OH216330   4.315   7.573   3.044
 5458TIP3    H116331   4.387   7.624   3.081
 5458TIP3    H216332   4.274   7.631   2.980
 5459TIP3   OH216333   3.984   1.696   1.494
 5459TIP3    H116334   3.940   1.722   1.575
 5459TIP3    H216335   3.918   1.648   1.445
 5460TIP3   OH216336   3.642   6.558   6.537
 5460TIP3    H116337   3.584   6.511   6.478
 5460TIP3    H216338   3.716   6.585   6.482
 5461TIP3   OH216339   0.987   4.640   2.272
 5461TIP3    H116340   0.938   4.570   2.230
 5461TIP3    H216341   1.054   4.664   2.207
 5462TIP3   OH216342   1.560   5.277   2.068
 5462TIP3    H116343   1.480   5.265   2.119
 5462TIP3    H216344   1.530   5.301   1.981
 5463TIP3   OH216345   6.464   4.579   2.544
 5463TIP3    H116346   6.416   4.659   2.567
 5463TIP3    H216347   6.531   4.608   2.482
 5464TIP3   OH216348   8.181   0.614   3.473
 5464TIP3    H116349   8.243   0.554   3.515
 5464TIP3    H216350   8.230   0.696   3.462
 5465TIP3   OH216351   0.901   1.217   4.624
 5465TIP3    H116352   0.929   1.242   4.536
 5465TIP3    H216353   0.884   1.124   4.618
 5466TIP3   OH216354   0.148   2.147   3.126
 5466TIP3    H116355   0.154   2.201   3.205
 5466TIP3    H216356   0.095   2.072   3.153
 5467TIP3   OH216357   5.615   7.743   0.492
 5467TIP3    H116358   5.696   7.794   0.493
 5467TIP3    H216359   5.545   7.808   0.500
 5468TIP3   OH216360   7.648   0.099   5.249
 5468TIP3    H116361   7.649   0.051   5.166
 5468TIP3    H216362   7.612   0.185   5.225
 5469TIP3   OH216363   5.572   0.573   6.660
 5469TIP3    H116364   5.492   0.531   6.691
 5469TIP3    H216365   5.605   0.514   6.592
 5470TIP3   OH216366   6.741   5.402   1.779
 5470TIP3    H116367   6.716   5.346   1.852
 5470TIP3    H216368   6.821   5.361   1.743
 5471TIP3   OH216369   2.908   3.398   0.924
 5471TIP3    H116370   2.906   3.477   0.871
 5471TIP3    H216371   2.855   3.419   1.001
 5472TIP3   OH216372   5.004   5.441   1.176
 5472TIP3    H116373   5.069   5.492   1.127
 5472TIP3    H216374   4.951   5.507   1.221
 5473TIP3   OH216375   8.253   5.256   1.750
 5473TIP3    H116376   8.297   5.184   1.796
 5473TIP3    H216377   8.172   5.217   1.717
 5474TIP3   OH216378   3.636   7.583   4.229
 5474TIP3    H116379   3.689   7.647   4.182
 5474TIP3    H216380   3.687   7.561   4.307
 5475TIP3   OH216381   4.626   6.664   4.852
 5475TIP3    H116382   4.604   6.704   4.769
 5475TIP3    H216383   4.591   6.724   4.918
 5476TIP3   OH216384   1.565   7.309   4.212
 5476TIP3    H116385   1.526   7.318   4.299
 5476TIP3    H216386   1.615   7.389   4.199
 5477TIP3   OH216387   5.068   0.104   2.226
 5477TIP3    H116388   5.144   0.045   2.225
 5477TIP3    H216389   5.105   0.189   2.202
 5478TIP3   OH216390   8.261   4.422   4.005
 5478TIP3    H116391   8.167   4.419   3.984
 5478TIP3    H216392   8.274   4.509   4.043
 5479TIP3   OH216393   5.090   2.418   1.350
 5479TIP3    H116394   5.034   2.346   1.380
 5479TIP3    H216395   5.058   2.495   1.398
 5480TIP3   OH216396   1.615   1.085   6.372
 5480TIP3    H116397   1.707   1.088   6.400
 5480TIP3    H216398   1.595   1.176   6.348
 5481TIP3   OH216399   2.911   4.363   6.471
 5481TIP3    H116400   2.996   4.328   6.444
 5481TIP3    H216401   2.883   4.416   6.397
 5482TIP3   OH216402   2.433   5.415   5.651
 5482TIP3    H116403   2.498   5.345   5.647
 5482TIP3    H216404   2.443   5.461   5.568
 5483TIP3   OH216405   3.379   7.535   3.752
 5483TIP3    H116406   3.338   7.619   3.732
 5483TIP3    H216407   3.416   7.506   3.669
 5484TIP3   OH216408   2.483   1.826   4.917
 5484TIP3    H116409   2.479   1.907   4.867
 5484TIP3    H216410   2.471   1.757   4.852
 5485TIP3   OH216411   3.832   1.368   3.913
 5485TIP3    H116412   3.902   1.385   3.851
 5485TIP3    H216413   3.751   1.386   3.865
 5486TIP3   OH216414   3.890   5.900   2.070
 5486TIP3    H116415   3.914   5.991   2.086
 5486TIP3    H216416   3.871   5.865   2.157
 5487TIP3   OH216417   5.211   7.389   4.925
 5487TIP3    H116418   5.196   7.300   4.893
 5487TIP3    H216419   5.222   7.379   5.020
 5488TIP3   OH216420   2.177   5.346   5.650
 5488TIP3    H116421   2.271   5.361   5.652
 5488TIP3    H216422   2.153   5.329   5.741
 5489TIP3   OH216423   7.566   6.759   5.673
 5489TIP3    H116424   7.509   6.762   5.750
 5489TIP3    H216425   7.615   6.677   5.683
 5490TIP3   OH216426   2.589   7.090   6.240
 5490TIP3    H116427   2.557   7.077   6.151
 5490TIP3    H216428   2.649   7.016   6.254
 5491TIP3   OH216429   6.413   2.134   6.448
 5491TIP3    H116430   6.367   2.185   6.515
 5491TIP3    H216431   6.352   2.131   6.374
 5492TIP3   OH216432   2.395   0.325   4.440
 5492TIP3    H116433   2.467   0.376   4.476
 5492TIP3    H216434   2.436   0.246   4.405
 5493TIP3   OH216435   6.951   2.768   3.392
 5493TIP3    H116436   6.907   2.685   3.378
 5493TIP3    H216437   6.883   2.827   3.424
 5494TIP3   OH216438   6.893   7.275   2.214
 5494TIP3    H116439   6.841   7.242   2.141
 5494TIP3    H216440   6.976   7.303   2.174
 5495TIP3   OH216441   2.715   4.261   2.290
 5495TIP3    H116442   2.645   4.323   2.310
 5495TIP3    H216443   2.673   4.192   2.240
 5496TIP3   OH216444   2.376   7.499   2.250
 5496TIP3    H116445   2.435   7.560   2.204
 5496TIP3    H216446   2.305   7.555   2.281
 5497TIP3   OH216447   1.624   4.665   6.462
 5497TIP3    H116448   1.638   4.743   6.517
 5497TIP3    H216449   1.533   4.673   6.433
 5498TIP3   OH216450   2.948   4.619   2.352
 5498TIP3    H116451   2.921   4.566   2.427
 5498TIP3    H216452   2.886   4.693   2.351
 5499TIP3   OH216453   2.185   0.206   0.623
 5499TIP3    H116454   2.249   0.268   0.588
 5499TIP3    H216455   2.135   0.257   0.686
 5500TIP3   OH216456   0.247   5.009   3.631
 5500TIP3    H116457   0.339   4.986   3.617
 5500TIP3    H216458   0.225   4.969   3.715
 5501TIP3   OH216459   3.780   2.054   5.912
 5501TIP3    H116460   3.840   2.123   5.883
 5501TIP3    H216461   3.694   2.095   5.909
 5502TIP3   OH216462   3.687   0.249   1.283
 5502TIP3    H116463   3.653   0.174   1.234
 5502TIP3    H216464   3.610   0.289   1.324
 5503TIP3   OH216465   4.639   1.097   5.549
 5503TIP3    H116466   4.663   1.185   5.576
 5503TIP3    H216467   4.720   1.059   5.515
 5504TIP3   OH216468   3.404   4.116   2.921
 5504TIP3    H116469   3.440   4.118   2.832
 5504TIP3    H216470   3.411   4.025   2.948
 5505TIP3   OH216471   0.704   0.313   2.782
 5505TIP3    H116472   0.654   0.239   2.747
 5505TIP3    H216473   0.638   0.382   2.795
 5506TIP3   OH216474   5.097   0.076   0.076
 5506TIP3    H116475   5.130   0.006   0.132
 5506TIP3    H216476   5.062   0.142   0.137
 5507TIP3   OH216477   1.746   1.660   3.742
 5507TIP3    H116478   1.688   1.584   3.743
 5507TIP3    H216479   1.722   1.708   3.822
 5508TIP3   OH216480   7.962   3.747   4.975
 5508TIP3    H116481   7.945   3.838   4.952
 5508TIP3    H216482   8.031   3.752   5.041
 5509TIP3   OH216483   8.042   3.545   2.225
 5509TIP3    H116484   8.019   3.636   2.246
 5509TIP3    H216485   8.003   3.494   2.296
 5510TIP3   OH216486   2.724   2.893   6.461
 5510TIP3    H116487   2.770   2.836   6.523
 5510TIP3    H216488   2.794   2.935   6.411
 5511TIP3   OH216489   1.197   6.911   3.672
 5511TIP3    H116490   1.161   6.873   3.592
 5511TIP3    H216491   1.273   6.960   3.643
 5512TIP3   OH216492   3.417   0.536   2.475
 5512TIP3    H116493   3.408   0.444   2.448
 5512TIP3    H216494   3.479   0.573   2.413
 5513TIP3   OH216495   7.133   0.349   3.490
 5513TIP3    H116496   7.163   0.319   3.575
 5513TIP3    H216497   7.122   0.269   3.439
 5514TIP3   OH216498   2.750   6.670   3.961
 5514TIP3    H116499   2.808   6.701   3.891
 5514TIP3    H216500   2.697   6.602   3.919
 5515TIP3   OH216501   4.430   5.609   2.761
 5515TIP3    H116502   4.419   5.633   2.669
 5515TIP3    H216503   4.515   5.643   2.786
 5516TIP3   OH216504   7.993   4.034   6.427
 5516TIP3    H116505   8.025   4.119   6.457
 5516TIP3    H216506   7.904   4.028   6.462
 5517TIP3   OH216507   7.912   3.074   5.119
 5517TIP3    H116508   7.856   3.129   5.174
 5517TIP3    H216509   7.995   3.121   5.115
 5518TIP3   OH216510   4.449   4.639   3.802
 5518TIP3    H116511   4.463   4.731   3.826
 5518TIP3    H216512   4.385   4.643   3.731
 5519TIP3   OH216513   4.969   6.441   6.550
 5519TIP3    H116514   4.940   6.350   6.559
 5519TIP3    H216515   5.045   6.448   6.608
 5520TIP3   OH216516   5.071   3.576   6.681
 5520TIP3    H116517   5.024   3.513   6.736
 5520TIP3    H216518   5.092   3.528   6.601
 5521TIP3   OH216519   4.522   7.463   5.656
 5521TIP3    H116520   4.505   7.554   5.679
 5521TIP3    H216521   4.599   7.467   5.598
 5522TIP3   OH216522   7.554   2.258   0.864
 5522TIP3    H116523   7.505   2.316   0.921
 5522TIP3    H216524   7.580   2.185   0.920
 5523TIP3   OH216525   1.028   5.731   6.741
 5523TIP3    H116526   1.062   5.782   6.815
 5523TIP3    H216527   1.106   5.696   6.698
 5524TIP3   OH216528   5.224   4.654   0.333
 5524TIP3    H116529   5.142   4.637   0.287
 5524TIP3    H216530   5.272   4.571   0.328
 5525TIP3   OH216531   3.716   3.660   3.273
 5525TIP3    H116532   3.760   3.618   3.199
 5525TIP3    H216533   3.706   3.751   3.246
 5526TIP3   OH216534   2.331   1.828   3.621
 5526TIP3    H116535   2.247   1.838   3.577
 5526TIP3    H216536   2.396   1.830   3.550
 5527TIP3   OH216537   6.764   6.057   4.552
 5527TIP3    H116538   6.724   6.033   4.635
 5527TIP3    H216539   6.759   5.978   4.499
 5528TIP3   OH216540   5.867   4.042   0.878
 5528TIP3    H116541   5.944   4.001   0.917
 5528TIP3    H216542   5.902   4.111   0.822
 5529TIP3   OH216543   2.160   2.164   2.859
 5529TIP3    H116544   2.146   2.091   2.799
 5529TIP3    H216545   2.073   2.202   2.871
 5530TIP3   OH216546   3.197   2.590   6.251
 5530TIP3    H116547   3.235   2.673   6.222
 5530TIP3    H216548   3.160   2.552   6.171
 5531TIP3   OH216549   0.041   3.989   2.112
 5531TIP3    H116550  -0.035   3.974   2.056
 5531TIP3    H216551   0.072   4.077   2.088
 5532TIP3   OH216552   4.609   3.370   1.565
 5532TIP3    H116553   4.630   3.325   1.647
 5532TIP3    H216554   4.688   3.363   1.512
 5533TIP3   OH216555   1.141   4.224   0.700
 5533TIP3    H116556   1.144   4.293   0.634
 5533TIP3    H216557   1.048   4.208   0.714
 5534TIP3   OH216558   2.777   6.291   5.488
 5534TIP3    H116559   2.811   6.296   5.399
 5534TIP3    H216560   2.828   6.356   5.537
 5535TIP3   OH216561   6.352   0.908   2.164
 5535TIP3    H116562   6.260   0.911   2.134
 5535TIP3    H216563   6.369   0.816   2.181
 5536TIP3   OH216564   6.917   4.373   3.614
 5536TIP3    H116565   6.931   4.288   3.572
 5536TIP3    H216566   6.939   4.437   3.547
 5537TIP3   OH216567   1.458   0.868   4.949
 5537TIP3    H116568   1.490   0.958   4.945
 5537TIP3    H216569   1.453   0.839   4.858
 5538TIP3   OH216570   5.607   2.957   6.493
 5538TIP3    H116571   5.646   3.025   6.438
 5538TIP3    H216572   5.612   2.878   6.439
 5539TIP3   OH216573   5.495   4.263   4.139
 5539TIP3    H116574   5.466   4.243   4.228
 5539TIP3    H216575   5.481   4.358   4.130
 5540TIP3   OH216576   7.531   3.203   4.553
 5540TIP3    H116577   7.578   3.225   4.473
 5540TIP3    H216578   7.536   3.282   4.607
 5541TIP3   OH216579   1.017   4.188   5.557
 5541TIP3    H116580   1.030   4.253   5.626
 5541TIP3    H216581   1.033   4.104   5.599
 5542TIP3   OH216582   1.108   2.627   5.981
 5542TIP3    H116583   1.190   2.580   5.997
 5542TIP3    H216584   1.090   2.612   5.888
 5543TIP3   OH216585   5.801   1.987   5.610
 5543TIP3    H116586   5.748   2.037   5.671
 5543TIP3    H216587   5.746   1.980   5.531
 5544TIP3   OH216588   6.610   0.593   2.076
 5544TIP3    H116589   6.542   0.639   2.027
 5544TIP3    H216590   6.583   0.502   2.074
 5545TIP3   OH216591   1.560   3.212   5.220
 5545TIP3    H116592   1.591   3.287   5.170
 5545TIP3    H216593   1.596   3.225   5.308
 5546TIP3   OH216594   8.147   7.200   1.727
 5546TIP3    H116595   8.241   7.200   1.742
 5546TIP3    H216596   8.128   7.111   1.695
 5547TIP3   OH216597   5.363   6.183   1.509
 5547TIP3    H116598   5.426   6.242   1.550
 5547TIP3    H216599   5.412   6.104   1.490
 5548TIP3   OH216600   6.678   1.123   5.041
 5548TIP3    H116601   6.614   1.194   5.040
 5548TIP3    H216602   6.748   1.152   4.983
 5549TIP3   OH216603   3.898   1.545   4.365
 5549TIP3    H116604   3.935   1.475   4.419
 5549TIP3    H216605   3.918   1.520   4.275
 5550TIP3   OH216606   3.143   1.168   3.065
 5550TIP3    H116607   3.108   1.212   2.987
 5550TIP3    H216608   3.230   1.140   3.039
 5551TIP3   OH216609   7.786   4.207   2.970
 5551TIP3    H116610   7.856   4.150   2.941
 5551TIP3    H216611   7.830   4.281   3.011
 5552TIP3   OH216612   5.004   3.536   0.395
 5552TIP3    H116613   5.004   3.586   0.476
 5552TIP3    H216614   4.973   3.449   0.419
 5553TIP3   OH216615   0.175   6.817   4.375
 5553TIP3    H116616   0.254   6.866   4.398
 5553TIP3    H216617   0.113   6.885   4.349
 5554TIP3   OH216618   2.903   2.582   4.592
 5554TIP3    H116619   2.881   2.675   4.590
 5554TIP3    H216620   2.845   2.544   4.657
 5555TIP3   OH216621   0.697   6.381   3.676
 5555TIP3    H116622   0.720   6.410   3.588
 5555TIP3    H216623   0.756   6.308   3.694
 5556TIP3   OH216624   7.766   7.524   5.567
 5556TIP3    H116625   7.674   7.536   5.592
 5556TIP3    H216626   7.807   7.608   5.585
 5557TIP3   OH216627   4.791   0.736   6.123
 5557TIP3    H116628   4.783   0.763   6.215
 5557TIP3    H216629   4.742   0.653   6.119
 5558TIP3   OH216630   6.666   0.425   5.676
 5558TIP3    H116631   6.658   0.487   5.603
 5558TIP3    H216632   6.629   0.472   5.751
 5559TIP3   OH216633   7.029   3.944   6.706
 5559TIP3    H116634   7.004   3.859   6.741
 5559TIP3    H216635   6.956   3.970   6.651
 5560TIP3   OH216636   6.513   3.986   3.557
 5560TIP3    H116637   6.585   3.939   3.514
 5560TIP3    H216638   6.547   4.075   3.569
 5561TIP3   OH216639   6.723   2.781   0.956
 5561TIP3    H116640   6.667   2.768   0.880
 5561TIP3    H216641   6.770   2.699   0.966
 5562TIP3   OH216642   0.210   3.351   2.655
 5562TIP3    H116643   0.285   3.361   2.595
 5562TIP3    H216644   0.145   3.412   2.621
 5563TIP3   OH216645   4.924   7.639   5.041
 5563TIP3    H116646   4.886   7.594   5.116
 5563TIP3    H216647   4.929   7.572   4.973
 5564TIP3   OH216648   0.042   3.280   6.479
 5564TIP3    H116649   0.095   3.312   6.552
 5564TIP3    H216650   0.008   3.196   6.509
 5565TIP3   OH216651   7.452   6.781   4.732
 5565TIP3    H116652   7.456   6.689   4.703
 5565TIP3    H216653   7.464   6.777   4.826
 5566TIP3   OH216654   1.436   6.296   4.183
 5566TIP3    H116655   1.364   6.355   4.162
 5566TIP3    H216656   1.494   6.347   4.240
 5567TIP3   OH216657   6.958   5.570   0.206
 5567TIP3    H116658   6.865   5.576   0.228
 5567TIP3    H216659   6.959   5.526   0.121
 5568TIP3   OH216660   0.140   2.458   2.117
 5568TIP3    H116661   0.196   2.498   2.183
 5568TIP3    H216662   0.076   2.408   2.167
 5569TIP3   OH216663   0.122   7.085   3.139
 5569TIP3    H116664   0.217   7.097   3.149
 5569TIP3    H216665   0.113   7.041   3.055
 5570TIP3   OH216666   0.077   6.180   5.293
 5570TIP3    H116667   0.039   6.094   5.279
 5570TIP3    H216668   0.113   6.177   5.382
 5571TIP3   OH216669   6.187   5.549   6.603
 5571TIP3    H116670   6.113   5.565   6.545
 5571TIP3    H216671   6.177   5.457   6.630
 5572TIP3   OH216672   0.268   3.735   5.560
 5572TIP3    H116673   0.221   3.755   5.479
 5572TIP3    H216674   0.199   3.720   5.625
 5573TIP3   OH216675   3.068   1.274   6.176
 5573TIP3    H116676   3.094   1.295   6.086
 5573TIP3    H216677   2.986   1.226   6.167
 5574TIP3   OH216678   3.663   3.439   4.180
 5574TIP3    H116679   3.608   3.360   4.176
 5574TIP3    H216680   3.650   3.473   4.268
 5575TIP3   OH216681   1.957   6.732   4.705
 5575TIP3    H116682   1.920   6.670   4.768
 5575TIP3    H216683   1.916   6.816   4.728
 5576TIP3   OH216684   4.115   7.070   6.516
 5576TIP3    H116685   4.173   7.049   6.443
 5576TIP3    H216686   4.173   7.107   6.582
 5577TIP3   OH216687   2.219   7.468   0.770
 5577TIP3    H116688   2.260   7.485   0.855
 5577TIP3    H216689   2.269   7.396   0.733
 5578TIP3   OH216690   7.162   3.822   3.092
 5578TIP3    H116691   7.221   3.897   3.097
 5578TIP3    H216692   7.212   3.749   3.129
 5579TIP3   OH216693   3.137   1.827   4.262
 5579TIP3    H116694   3.134   1.735   4.284
 5579TIP3    H216695   3.107   1.831   4.171
 5580TIP3   OH216696   2.619   4.714   5.594
 5580TIP3    H116697   2.704   4.673   5.577
 5580TIP3    H216698   2.567   4.646   5.636
 5581TIP3   OH216699   8.224   7.178   1.256
 5581TIP3    H116700   8.200   7.202   1.167
 5581TIP3    H216701   8.289   7.108   1.245
 5582TIP3   OH216702   6.677   1.957   0.171
 5582TIP3    H116703   6.760   1.923   0.204
 5582TIP3    H216704   6.692   2.051   0.161
 5583TIP3   OH216705   5.344   2.027   6.059
 5583TIP3    H116706   5.270   2.020   5.999
 5583TIP3    H216707   5.403   1.956   6.032
 5584TIP3   OH216708   3.764   1.216   3.653
 5584TIP3    H116709   3.681   1.187   3.691
 5584TIP3    H216710   3.809   1.134   3.629
 5585TIP3   OH216711   4.593   1.102   1.326
 5585TIP3    H116712   4.586   1.137   1.238
 5585TIP3    H216713   4.513   1.051   1.338
 5586TIP3   OH216714   2.153   7.395   1.665
 5586TIP3    H116715   2.117   7.473   1.622
 5586TIP3    H216716   2.088   7.372   1.731
 5587TIP3   OH216717   3.681   3.430   4.674
 5587TIP3    H116718   3.691   3.516   4.715
 5587TIP3    H216719   3.590   3.406   4.690
 5588TIP3   OH216720   0.841   0.134   2.362
 5588TIP3    H116721   0.754   0.173   2.351
 5588TIP3    H216722   0.901   0.204   2.338
 5589TIP3   OH216723   4.407   1.324   3.937
 5589TIP3    H116724   4.338   1.376   3.978
 5589TIP3    H216725   4.478   1.387   3.920
 5590TIP3   OH216726   5.025   4.148   0.474
 5590TIP3    H116727   5.088   4.138   0.546
 5590TIP3    H216728   4.981   4.063   0.469
 5591TIP3   OH216729   6.543   4.132   0.241
 5591TIP3    H116730   6.494   4.214   0.236
 5591TIP3    H216731   6.620   4.147   0.185
 5592TIP3   OH216732   1.383   6.832   1.350
 5592TIP3    H116733   1.439   6.802   1.421
 5592TIP3    H216734   1.358   6.921   1.376
 5593TIP3   OH216735   1.709   5.004   6.065
 5593TIP3    H116736   1.650   5.009   6.140
 5593TIP3    H216737   1.699   4.914   6.033
 5594TIP3   OH216738   6.831   2.105   4.105
 5594TIP3    H116739   6.798   2.015   4.117
 5594TIP3    H216740   6.853   2.111   4.012
 5595TIP3   OH216741   1.101   2.262   0.182
 5595TIP3    H116742   1.177   2.319   0.173
 5595TIP3    H216743   1.127   2.197   0.247
 5596TIP3   OH216744   0.297   7.347   5.656
 5596TIP3    H116745   0.227   7.282   5.650
 5596TIP3    H216746   0.321   7.364   5.565
 5597TIP3   OH216747   1.280   6.657   3.798
 5597TIP3    H116748   1.338   6.626   3.729
 5597TIP3    H216749   1.245   6.740   3.766
 5598TIP3   OH216750   1.409   6.673   4.060
 5598TIP3    H116751   1.386   6.623   3.982
 5598TIP3    H216752   1.357   6.753   4.054
 5599TIP3   OH216753   2.333   5.030   3.518
 5599TIP3    H116754   2.384   5.045   3.439
 5599TIP3    H216755   2.252   5.079   3.505
 5600TIP3   OH216756   0.115   5.706   0.810
 5600TIP3    H116757   0.209   5.724   0.805
 5600TIP3    H216758   0.109   5.623   0.856
 5601TIP3   OH216759   7.008   7.300   0.227
 5601TIP3    H116760   6.963   7.322   0.309
 5601TIP3    H216761   6.937   7.294   0.163
 5602TIP3   OH216762   3.361   0.682   0.989
 5602TIP3    H116763   3.371   0.606   1.046
 5602TIP3    H216764   3.268   0.706   0.997
 5603TIP3   OH216765   5.264   1.077   0.603
 5603TIP3    H116766   5.278   1.167   0.575
 5603TIP3    H216767   5.233   1.031   0.525
 5604TIP3   OH216768   7.992   4.198   1.611
 5604TIP3    H116769   7.949   4.216   1.528
 5604TIP3    H216770   7.994   4.282   1.656
 5605TIP3   OH216771   0.434   7.504   0.929
 5605TIP3    H116772   0.504   7.520   0.993
 5605TIP3    H216773   0.479   7.491   0.846
 5606TIP3   OH216774   6.058   1.133   3.915
 5606TIP3    H116775   5.984   1.115   3.973
 5606TIP3    H216776   6.026   1.110   3.827
 5607TIP3   OH216777   3.879   5.558   5.549
 5607TIP3    H116778   3.824   5.587   5.476
 5607TIP3    H216779   3.846   5.606   5.625
 5608TIP3   OH216780   7.340   4.235   0.373
 5608TIP3    H116781   7.325   4.142   0.353
 5608TIP3    H216782   7.259   4.263   0.415
 5609TIP3   OH216783  -0.018   4.136   5.869
 5609TIP3    H116784  -0.002   4.191   5.945
 5609TIP3    H216785  -0.069   4.191   5.810
 5610TIP3   OH216786   3.913   5.506   2.975
 5610TIP3    H116787   3.996   5.514   2.928
 5610TIP3    H216788   3.935   5.524   3.066
 5611TIP3   OH216789   2.871   5.974   3.522
 5611TIP3    H116790   2.949   5.921   3.539
 5611TIP3    H216791   2.879   6.049   3.581
 5612TIP3   OH216792   3.198   6.324   4.196
 5612TIP3    H116793   3.156   6.238   4.192
 5612TIP3    H216794   3.181   6.362   4.109
 5613TIP3   OH216795   6.921   2.155   6.298
 5613TIP3    H116796   6.928   2.060   6.299
 5613TIP3    H216797   6.977   2.182   6.225
 5614TIP3   OH216798   6.691   0.125   2.564
 5614TIP3    H116799   6.669   0.117   2.657
 5614TIP3    H216800   6.680   0.218   2.545
 5615TIP3   OH216801   8.164   2.201   4.368
 5615TIP3    H116802   8.237   2.155   4.409
 5615TIP3    H216803   8.131   2.259   4.436
 5616TIP3   OH216804   7.944   6.702   4.347
 5616TIP3    H116805   7.919   6.695   4.254
 5616TIP3    H216806   7.891   6.774   4.381
 5617TIP3   OH216807   4.198   4.738   3.691
 5617TIP3    H116808   4.160   4.677   3.755
 5617TIP3    H216809   4.170   4.704   3.606
 5618TIP3   OH216810   7.232   1.798   3.634
 5618TIP3    H116811   7.235   1.802   3.539
 5618TIP3    H216812   7.139   1.808   3.655
 5619TIP3   OH216813   2.422   7.172   1.915
 5619TIP3    H116814   2.379   7.236   1.972
 5619TIP3    H216815   2.499   7.143   1.966
 5620TIP3   OH216816   4.891   1.356   5.224
 5620TIP3    H116817   4.969   1.335   5.276
 5620TIP3    H216818   4.916   1.335   5.134
 5621TIP3   OH216819   2.094   5.632   3.470
 5621TIP3    H116820   2.126   5.554   3.424
 5621TIP3    H216821   2.053   5.684   3.401
 5622TIP3   OH216822   1.001   6.376   4.458
 5622TIP3    H116823   0.940   6.373   4.384
 5622TIP3    H216824   1.065   6.443   4.433
 5623TIP3   OH216825   0.947   6.091   5.040
 5623TIP3    H116826   0.878   6.148   5.074
 5623TIP3    H216827   0.988   6.141   4.970
 5624TIP3   OH216828   4.540   3.595   5.428
 5624TIP3    H116829   4.500   3.605   5.342
 5624TIP3    H216830   4.540   3.683   5.465
 5625TIP3   OH216831   6.963   6.119   5.830
 5625TIP3    H116832   6.976   6.076   5.745
 5625TIP3    H216833   7.048   6.160   5.849
 5626TIP3   OH216834   6.758   3.965   4.711
 5626TIP3    H116835   6.712   4.045   4.685
 5626TIP3    H216836   6.832   3.996   4.764
 5627TIP3   OH216837   0.424   3.786   2.571
 5627TIP3    H116838   0.338   3.782   2.612
 5627TIP3    H216839   0.412   3.744   2.486
 5628TIP3   OH216840   3.714   2.691   0.708
 5628TIP3    H116841   3.758   2.691   0.623
 5628TIP3    H216842   3.729   2.603   0.742
 5629TIP3   OH216843   6.435   0.568   3.073
 5629TIP3    H116844   6.429   0.658   3.040
 5629TIP3    H216845   6.484   0.575   3.154
 5630TIP3   OH216846   3.597   4.137   5.910
 5630TIP3    H116847   3.622   4.215   5.861
 5630TIP3    H216848   3.676   4.082   5.908
 5631TIP3   OH216849   3.597   2.719   5.741
 5631TIP3    H116850   3.566   2.663   5.813
 5631TIP3    H216851   3.517   2.759   5.706
 5632TIP3   OH216852   3.234   3.748   5.978
 5632TIP3    H116853   3.148   3.737   5.937
 5632TIP3    H216854   3.274   3.821   5.930
 5633TIP3   OH216855   1.038   7.446   3.434
 5633TIP3    H116856   1.087   7.367   3.457
 5633TIP3    H216857   0.950   7.415   3.415
 5634TIP3   OH216858   1.012   4.687   3.368
 5634TIP3    H116859   1.066   4.622   3.323
 5634TIP3    H216860   0.939   4.703   3.308
 5635TIP3   OH216861   5.856   3.210   6.476
 5635TIP3    H116862   5.773   3.227   6.521
 5635TIP3    H216863   5.858   3.273   6.404
 5636TIP3   OH216864   4.513   0.717   4.761
 5636TIP3    H116865   4.424   0.719   4.795
 5636TIP3    H216866   4.521   0.795   4.706
 5637TIP3   OH216867   5.208   5.202   4.357
 5637TIP3    H116868   5.161   5.268   4.408
 5637TIP3    H216869   5.299   5.207   4.389
 5638TIP3   OH216870   0.411   3.453   5.386
 5638TIP3    H116871   0.377   3.397   5.456
 5638TIP3    H216872   0.474   3.511   5.430
 5639TIP3   OH216873   0.769   1.528   0.298
 5639TIP3    H116874   0.774   1.439   0.333
 5639TIP3    H216875   0.676   1.541   0.277
 5640TIP3   OH216876   1.239   1.667   4.271
 5640TIP3    H116877   1.160   1.629   4.233
 5640TIP3    H216878   1.215   1.689   4.361
 5641TIP3   OH216879   0.640   3.477   3.714
 5641TIP3    H116880   0.595   3.561   3.703
 5641TIP3    H216881   0.725   3.489   3.671
 5642TIP3   OH216882   2.709   2.067   3.128
 5642TIP3    H116883   2.637   2.127   3.107
 5642TIP3    H216884   2.677   1.982   3.099
 5643TIP3   OH216885   3.974   3.396   3.611
 5643TIP3    H116886   4.009   3.402   3.700
 5643TIP3    H216887   3.964   3.303   3.595
 5644TIP3   OH216888   5.245   1.182   4.454
 5644TIP3    H116889   5.177   1.248   4.466
 5644TIP3    H216890   5.313   1.207   4.516
 5645TIP3   OH216891   4.980   5.244   0.549
 5645TIP3    H116892   4.903   5.279   0.505
 5645TIP3    H216893   4.956   5.154   0.571
 5646TIP3   OH216894   7.138   7.604   4.299
 5646TIP3    H116895   7.131   7.590   4.394
 5646TIP3    H216896   7.150   7.516   4.263
 5647TIP3   OH216897   0.749   4.349   4.963
 5647TIP3    H116898   0.654   4.354   4.976
 5647TIP3    H216899   0.761   4.273   4.905
 5648TIP3   OH216900   3.906   5.896   4.400
 5648TIP3    H116901   3.914   5.824   4.337
 5648TIP3    H216902   3.813   5.917   4.401
 5649TIP3   OH216903   1.658   4.300   1.077
 5649TIP3    H116904   1.577   4.291   1.026
 5649TIP3    H216905   1.674   4.394   1.079
 5650TIP3   OH216906   2.117   7.565   1.048
 5650TIP3    H116907   2.050   7.529   0.989
 5650TIP3    H216908   2.182   7.494   1.055
 5651TIP3   OH216909   5.641   6.498   6.309
 5651TIP3    H116910   5.627   6.407   6.282
 5651TIP3    H216911   5.660   6.492   6.403
 5652TIP3   OH216912   0.309   2.172   6.227
 5652TIP3    H116913   0.390   2.122   6.239
 5652TIP3    H216914   0.277   2.144   6.141
 5653TIP3   OH216915   0.433   1.586   3.616
 5653TIP3    H116916   0.365   1.554   3.557
 5653TIP3    H216917   0.387   1.642   3.678
 5654TIP3   OH216918   4.726   3.570   3.196
 5654TIP3    H116919   4.793   3.549   3.260
 5654TIP3    H216920   4.682   3.647   3.231
 5655TIP3   OH216921   4.540   6.847   1.180
 5655TIP3    H116922   4.574   6.883   1.262
 5655TIP3    H216923   4.614   6.801   1.140
 5656TIP3   OH216924   4.464   1.144   5.304
 5656TIP3    H116925   4.512   1.065   5.275
 5656TIP3    H216926   4.456   1.133   5.399
 5657TIP3   OH216927   8.164   2.849   5.184
 5657TIP3    H116928   8.212   2.918   5.231
 5657TIP3    H216929   8.171   2.873   5.092
 5658TIP3   OH216930   2.742   5.940   1.326
 5658TIP3    H116931   2.769   6.031   1.341
 5658TIP3    H216932   2.655   5.947   1.287
 5659TIP3   OH216933   8.131   3.794   1.821
 5659TIP3    H116934   8.115   3.847   1.899
 5659TIP3    H216935   8.094   3.708   1.841
 5660TIP3   OH216936   1.545   5.350   2.421
 5660TIP3    H116937   1.477   5.387   2.476
 5660TIP3    H216938   1.615   5.415   2.421
 5661TIP3   OH216939   7.959   3.269   2.289
 5661TIP3    H116940   7.902   3.341   2.262
 5661TIP3    H216941   7.904   3.191   2.282
 5662TIP3   OH216942   3.213   0.449   4.148
 5662TIP3    H116943   3.204   0.353   4.147
 5662TIP3    H216944   3.244   0.471   4.061
 5663TIP3   OH216945   4.801   0.321   1.898
 5663TIP3    H116946   4.799   0.253   1.965
 5663TIP3    H216947   4.709   0.342   1.881
 5664TIP3   OH216948   2.149   0.053   5.192
 5664TIP3    H116949   2.092  -0.018   5.222
 5664TIP3    H216950   2.222   0.009   5.149
 5665TIP3   OH216951   3.408   3.047   0.966
 5665TIP3    H116952   3.315   3.026   0.952
 5665TIP3    H216953   3.455   2.970   0.934
 5666TIP3   OH216954   6.663   1.009   2.098
 5666TIP3    H116955   6.719   0.994   2.174
 5666TIP3    H216956   6.573   1.004   2.132
 5667TIP3   OH216957   0.380   3.163   3.823
 5667TIP3    H116958   0.389   3.176   3.728
 5667TIP3    H216959   0.453   3.212   3.860
 5668TIP3   OH216960   5.519   3.015   0.018
 5668TIP3    H116961   5.592   2.979   0.068
 5668TIP3    H216962   5.484   2.939  -0.029
 5669TIP3   OH216963   6.150   1.933   3.588
 5669TIP3    H116964   6.093   2.010   3.599
 5669TIP3    H216965   6.097   1.873   3.535
 5670TIP3   OH216966   6.528   6.255   4.400
 5670TIP3    H116967   6.561   6.321   4.460
 5670TIP3    H216968   6.543   6.172   4.444
 5671TIP3   OH216969   0.606   5.861   4.210
 5671TIP3    H116970   0.573   5.872   4.121
 5671TIP3    H216971   0.543   5.908   4.265
 5672TIP3   OH216972   4.345   4.555   4.968
 5672TIP3    H116973   4.430   4.598   4.980
 5672TIP3    H216974   4.346   4.482   5.030
 5673TIP3   OH216975   8.183   3.300   3.465
 5673TIP3    H116976   8.196   3.323   3.373
 5673TIP3    H216977   8.108   3.241   3.465
 5674TIP3   OH216978   5.511   0.776   4.681
 5674TIP3    H116979   5.547   0.722   4.611
 5674TIP3    H216980   5.489   0.715   4.751
 5675TIP3   OH216981   3.787   0.665   6.379
 5675TIP3    H116982   3.820   0.592   6.327
 5675TIP3    H216983   3.744   0.723   6.316
 5676TIP3   OH216984   2.426   6.925   4.433
 5676TIP3    H116985   2.348   6.948   4.382
 5676TIP3    H216986   2.450   6.838   4.402
 5677TIP3   OH216987   6.919   0.482   4.364
 5677TIP3    H116988   6.864   0.407   4.339
 5677TIP3    H216989   6.876   0.518   4.441
 5678TIP3   OH216990   1.179   2.632   3.629
 5678TIP3    H116991   1.148   2.632   3.719
 5678TIP3    H216992   1.099   2.634   3.576
 5679TIP3   OH216993   8.017   3.572   1.962
 5679TIP3    H116994   7.984   3.484   1.946
 5679TIP3    H216995   8.018   3.581   2.057
 5680TIP3   OH216996   3.929   2.283   5.823
 5680TIP3    H116997   3.964   2.361   5.866
 5680TIP3    H216998   3.897   2.314   5.738
 5681TIP3   OH216999   7.903   7.722   0.632
 5681TIP3    H117000   7.816   7.758   0.616
 5681TIP3    H217001   7.962   7.798   0.625
 5682TIP3   OH217002   0.277   1.270   1.396
 5682TIP3    H117003   0.216   1.202   1.370
 5682TIP3    H217004   0.225   1.330   1.450
 5683TIP3   OH217005   7.761   4.975   4.833
 5683TIP3    H117006   7.680   5.014   4.799
 5683TIP3    H217007   7.732   4.897   4.881
 5684TIP3   OH217008   2.416   7.697   3.554
 5684TIP3    H117009   2.496   7.723   3.508
 5684TIP3    H217010   2.439   7.702   3.647
 5685TIP3   OH217011   3.202   5.302   2.018
 5685TIP3    H117012   3.292   5.274   2.035
 5685TIP3    H217013   3.147   5.235   2.060
 5686TIP3   OH217014   0.322   1.636   0.472
 5686TIP3    H117015   0.245   1.647   0.528
 5686TIP3    H217016   0.294   1.573   0.405
 5687TIP3   OH217017   0.281   7.464   1.885
 5687TIP3    H117018   0.238   7.525   1.944
 5687TIP3    H217019   0.360   7.437   1.932
 5688TIP3   OH217020   1.160   7.212   1.655
 5688TIP3    H117021   1.067   7.235   1.652
 5688TIP3    H217022   1.201   7.270   1.590
 5689TIP3   OH217023   6.223   6.098   0.860
 5689TIP3    H117024   6.290   6.161   0.833
 5689TIP3    H217025   6.271   6.015   0.869
 5690TIP3   OH217026   5.057   7.478   6.344
 5690TIP3    H117027   5.013   7.484   6.260
 5690TIP3    H217028   5.084   7.386   6.350
 5691TIP3   OH217029   2.074   4.375   4.449
 5691TIP3    H117030   2.041   4.364   4.360
 5691TIP3    H217031   2.001   4.350   4.505
 5692TIP3   OH217032   7.589   1.882   1.836
 5692TIP3    H117033   7.602   1.802   1.886
 5692TIP3    H217034   7.669   1.933   1.851
 5693TIP3   OH217035   4.434   0.291   4.263
 5693TIP3    H117036   4.504   0.354   4.283
 5693TIP3    H217037   4.417   0.304   4.170
 5694TIP3   OH217038   3.968   0.150   2.227
 5694TIP3    H117039   3.963   0.205   2.148
 5694TIP3    H217040   4.059   0.120   2.228
 5695TIP3   OH217041   5.879   2.943   1.506
 5695TIP3    H117042   5.922   3.029   1.495
 5695TIP3    H217043   5.841   2.946   1.594
 5696TIP3   OH217044   1.541   0.936   0.178
 5696TIP3    H117045   1.499   0.959   0.095
 5696TIP3    H217046   1.630   0.971   0.171
 5697TIP3   OH217047   0.506   1.980   5.049
 5697TIP3    H117048   0.462   1.895   5.046
 5697TIP3    H217049   0.592   1.960   5.087
 5698TIP3   OH217050   2.656   0.113   2.862
 5698TIP3    H117051   2.729   0.101   2.923
 5698TIP3    H217052   2.579   0.086   2.911
 5699TIP3   OH217053   1.220   0.302   3.696
 5699TIP3    H117054   1.125   0.301   3.685
 5699TIP3    H217055   1.244   0.394   3.685
 5700TIP3   OH217056   3.222   3.023   2.770
 5700TIP3    H117057   3.258   3.111   2.754
 5700TIP3    H217058   3.194   2.993   2.684
 5701TIP3   OH217059   2.858   4.846   4.640
 5701TIP3    H117060   2.787   4.889   4.687
 5701TIP3    H217061   2.836   4.856   4.548
 5702TIP3   OH217062   6.195   5.405   0.890
 5702TIP3    H117063   6.177   5.451   0.972
 5702TIP3    H217064   6.111   5.405   0.844
 5703TIP3   OH217065   2.493   0.305   5.179
 5703TIP3    H117066   2.471   0.364   5.251
 5703TIP3    H217067   2.589   0.300   5.180
 5704TIP3   OH217068   2.077   2.417   2.295
 5704TIP3    H117069   2.099   2.496   2.245
 5704TIP3    H217070   2.139   2.417   2.368
 5705TIP3   OH217071   1.757   7.377   2.347
 5705TIP3    H117072   1.756   7.290   2.387
 5705TIP3    H217073   1.752   7.437   2.421
 5706TIP3   OH217074   1.336   4.330   1.542
 5706TIP3    H117075   1.263   4.300   1.488
 5706TIP3    H217076   1.295   4.375   1.616
 5707TIP3   OH217077   2.499   0.804   0.244
 5707TIP3    H117078   2.576   0.778   0.194
 5707TIP3    H217079   2.444   0.851   0.181
 5708TIP3   OH217080   1.155   7.000   2.153
 5708TIP3    H117081   1.180   7.056   2.080
 5708TIP3    H217082   1.173   6.911   2.123
 5709TIP3   OH217083   5.937   6.284   2.649
 5709TIP3    H117084   5.972   6.336   2.577
 5709TIP3    H217085   5.854   6.250   2.615
 5710TIP3   OH217086   0.237   5.861   2.714
 5710TIP3    H117087   0.175   5.804   2.760
 5710TIP3    H217088   0.201   5.949   2.723
 5711TIP3   OH217089   5.871   2.337   1.620
 5711TIP3    H117090   5.802   2.380   1.569
 5711TIP3    H217091   5.848   2.244   1.618
 5712TIP3   OH217092   3.650   5.318   0.909
 5712TIP3    H117093   3.601   5.362   0.979
 5712TIP3    H217094   3.620   5.359   0.828
 5713TIP3   OH217095   0.809   4.812   5.584
 5713TIP3    H117096   0.801   4.779   5.495
 5713TIP3    H217097   0.882   4.874   5.580
 5714TIP3   OH217098   2.334   5.766   1.938
 5714TIP3    H117099   2.307   5.858   1.944
 5714TIP3    H217100   2.429   5.770   1.926
 5715TIP3   OH217101   3.867   3.247   0.074
 5715TIP3    H117102   3.821   3.319   0.032
 5715TIP3    H217103   3.868   3.177   0.008
 5716TIP3   OH217104   1.452   3.493   5.395
 5716TIP3    H117105   1.480   3.407   5.427
 5716TIP3    H217106   1.532   3.535   5.365
 5717TIP3   OH217107   3.571   2.105   0.510
 5717TIP3    H117108   3.661   2.083   0.485
 5717TIP3    H217109   3.580   2.186   0.560
 5718TIP3   OH217110   8.280   6.240   2.985
 5718TIP3    H117111   8.202   6.238   3.040
 5718TIP3    H217112   8.283   6.155   2.942
 5719TIP3   OH217113   1.882   6.365   6.605
 5719TIP3    H117114   1.833   6.373   6.687
 5719TIP3    H217115   1.838   6.426   6.545
 5720TIP3   OH217116   7.847   1.793   1.426
 5720TIP3    H117117   7.857   1.700   1.406
 5720TIP3    H217118   7.761   1.799   1.468
 5721TIP3   OH217119   1.297   2.045   4.118
 5721TIP3    H117120   1.226   2.067   4.058
 5721TIP3    H217121   1.273   2.088   4.200
 5722TIP3   OH217122   3.656   5.258   1.879
 5722TIP3    H117123   3.569   5.222   1.900
 5722TIP3    H217124   3.652   5.278   1.786
 5723TIP3   OH217125   1.443   3.469   1.249
 5723TIP3    H117126   1.451   3.406   1.321
 5723TIP3    H217127   1.363   3.518   1.268
 5724TIP3   OH217128   1.104   4.546   2.806
 5724TIP3    H117129   1.098   4.544   2.711
 5724TIP3    H217130   1.054   4.470   2.835
 5725TIP3   OH217131   8.133   1.639   0.643
 5725TIP3    H117132   8.074   1.585   0.695
 5725TIP3    H217133   8.101   1.629   0.553
 5726TIP3   OH217134   5.757   0.408   6.844
 5726TIP3    H117135   5.668   0.374   6.840
 5726TIP3    H217136   5.761   0.472   6.773
 5727TIP3   OH217137   3.735   6.546   4.882
 5727TIP3    H117138   3.810   6.490   4.902
 5727TIP3    H217139   3.766   6.601   4.809
 5728TIP3   OH217140   0.023   7.480   6.711
 5728TIP3    H117141   0.033   7.519   6.799
 5728TIP3    H217142   0.103   7.430   6.698
 5729TIP3   OH217143   1.328   6.018   5.484
 5729TIP3    H117144   1.360   5.984   5.568
 5729TIP3    H217145   1.286   5.943   5.442
 5730TIP3   OH217146   7.529   2.865   4.341
 5730TIP3    H117147   7.481   2.921   4.280
 5730TIP3    H217148   7.513   2.903   4.427
 5731TIP3   OH217149   0.356   2.621   6.575
 5731TIP3    H117150   0.276   2.674   6.577
 5731TIP3    H217151   0.345   2.564   6.499
 5732TIP3   OH217152   6.849   1.640   2.211
 5732TIP3    H117153   6.871   1.617   2.121
 5732TIP3    H217154   6.754   1.642   2.213
 5733TIP3   OH217155   1.817   1.098   6.551
 5733TIP3    H117156   1.891   1.125   6.605
 5733TIP3    H217157   1.755   1.171   6.557
 5734TIP3   OH217158   4.541   7.247   2.201
 5734TIP3    H117159   4.545   7.337   2.170
 5734TIP3    H217160   4.459   7.213   2.165
 5735TIP3   OH217161   1.664   2.161   3.588
 5735TIP3    H117162   1.634   2.252   3.598
 5735TIP3    H217163   1.597   2.109   3.632
 5736TIP3   OH217164   3.207   3.231   4.744
 5736TIP3    H117165   3.163   3.219   4.660
 5736TIP3    H217166   3.219   3.142   4.777
 5737TIP3   OH217167   1.664   7.558   4.135
 5737TIP3    H117168   1.601   7.542   4.065
 5737TIP3    H217169   1.656   7.651   4.153
 5738TIP3   OH217170   1.786   2.629   3.312
 5738TIP3    H117171   1.830   2.634   3.397
 5738TIP3    H217172   1.787   2.719   3.279
 5739TIP3   OH217173   0.430   6.883   1.961
 5739TIP3    H117174   0.351   6.936   1.976
 5739TIP3    H217175   0.418   6.807   2.018
 5740TIP3   OH217176   7.308   1.248   2.150
 5740TIP3    H117177   7.297   1.161   2.188
 5740TIP3    H217178   7.226   1.265   2.104
 5741TIP3   OH217179   3.243   6.584   5.001
 5741TIP3    H117180   3.309   6.547   5.059
 5741TIP3    H217181   3.272   6.560   4.913
 5742TIP3   OH217182   6.194   4.569   3.430
 5742TIP3    H117183   6.174   4.655   3.393
 5742TIP3    H217184   6.222   4.587   3.520
 5743TIP3   OH217185   0.736   3.217   6.742
 5743TIP3    H117186   0.691   3.227   6.658
 5743TIP3    H217187   0.768   3.127   6.741
 5744TIP3   OH217188   1.028   0.425   5.286
 5744TIP3    H117189   1.122   0.437   5.298
 5744TIP3    H217190   1.018   0.331   5.270
 5745TIP3   OH217191   1.091   1.920   1.794
 5745TIP3    H117192   1.024   1.986   1.809
 5745TIP3    H217193   1.174   1.967   1.801
 5746TIP3   OH217194   1.692   4.189   6.648
 5746TIP3    H117195   1.730   4.277   6.638
 5746TIP3    H217196   1.694   4.152   6.560
 5747TIP3   OH217197   2.091   6.666   6.778
 5747TIP3    H117198   2.084   6.743   6.722
 5747TIP3    H217199   2.184   6.647   6.783
 5748TIP3   OH217200   2.630   7.342   0.715
 5748TIP3    H117201   2.691   7.280   0.756
 5748TIP3    H217202   2.552   7.290   0.697
 5749TIP3   OH217203   3.892   1.892   2.274
 5749TIP3    H117204   3.845   1.849   2.346
 5749TIP3    H217205   3.832   1.886   2.199
 5750TIP3   OH217206   7.277   4.174   4.766
 5750TIP3    H117207   7.350   4.130   4.809
 5750TIP3    H217208   7.201   4.157   4.823
 5751TIP3   OH217209   2.979   3.379   3.513
 5751TIP3    H117210   3.053   3.380   3.452
 5751TIP3    H217211   2.943   3.290   3.505
 5752TIP3   OH217212   3.990   3.022   0.247
 5752TIP3    H117213   3.999   3.012   0.152
 5752TIP3    H217214   3.897   3.037   0.261
 5753TIP3   OH217215   7.710   3.461   3.092
 5753TIP3    H117216   7.702   3.550   3.057
 5753TIP3    H217217   7.751   3.411   3.022
 5754TIP3   OH217218   3.699   7.709   3.006
 5754TIP3    H117219   3.672   7.801   3.011
 5754TIP3    H217220   3.793   7.711   3.026
 5755TIP3   OH217221   5.478   3.043   2.817
 5755TIP3    H117222   5.513   2.955   2.831
 5755TIP3    H217223   5.438   3.040   2.731
 5756TIP3   OH217224   0.844   3.663   0.793
 5756TIP3    H117225   0.786   3.718   0.845
 5756TIP3    H217226   0.915   3.638   0.852
 5757TIP3   OH217227   4.182   5.578   5.260
 5757TIP3    H117228   4.105   5.626   5.229
 5757TIP3    H217229   4.195   5.608   5.350
 5758TIP3   OH217230   7.169   4.401   0.693
 5758TIP3    H117231   7.146   4.394   0.601
 5758TIP3    H217232   7.090   4.435   0.736
 5759TIP3   OH217233   1.868   6.376   1.679
 5759TIP3    H117234   1.777   6.400   1.664
 5759TIP3    H217235   1.864   6.310   1.748
 5760TIP3   OH217236   5.319   2.443   6.041
 5760TIP3    H117237   5.366   2.428   6.123
 5760TIP3    H217238   5.278   2.529   6.053
 5761TIP3   OH217239   1.229   7.071   1.200
 5761TIP3    H117240   1.264   7.055   1.112
 5761TIP3    H217241   1.294   7.128   1.241
 5762TIP3   OH217242   1.373   1.527   1.315
 5762TIP3    H117243   1.403   1.510   1.404
 5762TIP3    H217244   1.278   1.536   1.323
 5763TIP3   OH217245   7.625   0.728   0.130
 5763TIP3    H117246   7.713   0.714   0.094
 5763TIP3    H217247   7.634   0.710   0.223
 5764TIP3   OH217248   1.521   6.444   2.558
 5764TIP3    H117249   1.536   6.350   2.553
 5764TIP3    H217250   1.541   6.476   2.470
 5765TIP3   OH217251   5.127   7.293   2.495
 5765TIP3    H117252   5.072   7.299   2.574
 5765TIP3    H217253   5.067   7.262   2.427
 5766TIP3   OH217254   1.259   2.579   2.427
 5766TIP3    H117255   1.345   2.539   2.435
 5766TIP3    H217256   1.234   2.600   2.517
 5767TIP3   OH217257   3.368   4.789   4.325
 5767TIP3    H117258   3.398   4.796   4.416
 5767TIP3    H217259   3.278   4.824   4.327
 5768TIP3   OH217260   5.145   2.748   4.219
 5768TIP3    H117261   5.148   2.675   4.157
 5768TIP3    H217262   5.052   2.759   4.239
 5769TIP3   OH217263   6.598   4.905   3.684
 5769TIP3    H117264   6.517   4.867   3.650
 5769TIP3    H217265   6.662   4.892   3.614
 5770TIP3   OH217266   6.642   1.062   1.004
 5770TIP3    H117267   6.715   1.007   0.974
 5770TIP3    H217268   6.633   1.042   1.097
 5771TIP3   OH217269   0.947   0.281   3.660
 5771TIP3    H117270   0.891   0.207   3.638
 5771TIP3    H217271   0.891   0.339   3.713
 5772TIP3   OH217272   3.333   3.711   3.156
 5772TIP3    H117273   3.299   3.776   3.094
 5772TIP3    H217274   3.406   3.670   3.110
 5773TIP3   OH217275   4.548   6.633   1.749
 5773TIP3    H117276   4.547   6.627   1.654
 5773TIP3    H217277   4.637   6.661   1.771
 5774TIP3   OH217278   1.920   6.209   1.067
 5774TIP3    H117279   1.830   6.215   1.036
 5774TIP3    H217280   1.946   6.118   1.049
 5775TIP3   OH217281   7.751   5.265   4.618
 5775TIP3    H117282   7.766   5.360   4.615
 5775TIP3    H217283   7.742   5.246   4.711
 5776TIP3   OH217284   2.218   2.981   3.006
 5776TIP3    H117285   2.311   2.964   3.024
 5776TIP3    H217286   2.171   2.915   3.057
 5777TIP3   OH217287   0.116   4.219   3.390
 5777TIP3    H117288   0.209   4.237   3.378
 5777TIP3    H217289   0.072   4.280   3.332
 5778TIP3   OH217290   3.477   3.714   3.958
 5778TIP3    H117291   3.382   3.710   3.948
 5778TIP3    H217292   3.511   3.717   3.869
 5779TIP3   OH217293   4.033   6.448   5.396
 5779TIP3    H117294   4.092   6.489   5.333
 5779TIP3    H217295   4.015   6.361   5.359
 5780TIP3   OH217296   3.215   5.260   5.176
 5780TIP3    H117297   3.152   5.251   5.248
 5780TIP3    H217298   3.182   5.202   5.107
 5781TIP3   OH217299   3.354   7.826   1.152
 5781TIP3    H117300   3.276   7.777   1.125
 5781TIP3    H217301   3.325   7.874   1.230
 5782TIP3   OH217302   2.693   0.955   4.916
 5782TIP3    H117303   2.710   0.904   4.836
 5782TIP3    H217304   2.685   0.888   4.984
 5783TIP3   OH217305   7.062   6.750   0.813
 5783TIP3    H117306   7.077   6.736   0.719
 5783TIP3    H217307   7.096   6.671   0.855
 5784TIP3   OH217308   0.012   4.061   1.211
 5784TIP3    H117309   0.046   4.147   1.237
 5784TIP3    H217310  -0.081   4.065   1.232
 5785TIP3   OH217311   2.510   7.428   5.146
 5785TIP3    H117312   2.460   7.347   5.143
 5785TIP3    H217313   2.582   7.413   5.084
 5786TIP3   OH217314   4.576   1.134   3.254
 5786TIP3    H117315   4.532   1.123   3.170
 5786TIP3    H217316   4.598   1.228   3.257
 5787TIP3   OH217317   6.931   3.324   5.775
 5787TIP3    H117318   6.931   3.319   5.870
 5787TIP3    H217319   6.855   3.378   5.753
 5788TIP3   OH217320   3.704   4.746   0.373
 5788TIP3    H117321   3.619   4.784   0.397
 5788TIP3    H217322   3.727   4.689   0.447
 5789TIP3   OH217323   5.302   6.528   3.996
 5789TIP3    H117324   5.298   6.492   3.907
 5789TIP3    H217325   5.370   6.594   3.992
 5790TIP3   OH217326   4.366   2.636   3.803
 5790TIP3    H117327   4.454   2.651   3.839
 5790TIP3    H217328   4.381   2.583   3.724
 5791TIP3   OH217329   0.516   4.191   4.743
 5791TIP3    H117330   0.525   4.188   4.839
 5791TIP3    H217331   0.448   4.256   4.728
 5792TIP3   OH217332   6.048   1.903   5.223
 5792TIP3    H117333   6.038   1.995   5.196
 5792TIP3    H217334   6.013   1.853   5.150
 5793TIP3   OH217335   0.169  -0.007   3.943
 5793TIP3    H117336   0.196   0.042   4.021
 5793TIP3    H217337   0.073   0.005   3.940
 5794TIP3   OH217338   0.845   5.595   0.812
 5794TIP3    H117339   0.923   5.626   0.858
 5794TIP3    H217340   0.832   5.657   0.740
 5795TIP3   OH217341   1.246   2.587   1.664
 5795TIP3    H117342   1.194   2.571   1.586
 5795TIP3    H217343   1.332   2.551   1.644
 5796TIP3   OH217344   5.031   0.913   1.638
 5796TIP3    H117345   5.041   0.824   1.603
 5796TIP3    H217346   4.942   0.938   1.613
 5797TIP3   OH217347   2.967   5.367   0.454
 5797TIP3    H117348   2.921   5.320   0.522
 5797TIP3    H217349   3.058   5.336   0.460
 5798TIP3   OH217350   6.559   7.451   2.788
 5798TIP3    H117351   6.508   7.370   2.794
 5798TIP3    H217352   6.524   7.506   2.858
 5799TIP3   OH217353   7.442   7.468   3.065
 5799TIP3    H117354   7.417   7.393   3.012
 5799TIP3    H217355   7.505   7.516   3.011
 5800TIP3   OH217356   4.208   1.513   4.691
 5800TIP3    H117357   4.301   1.489   4.697
 5800TIP3    H217358   4.183   1.533   4.782
 5801TIP3   OH217359   2.711   3.962   5.297
 5801TIP3    H117360   2.617   3.948   5.305
 5801TIP3    H217361   2.727   3.962   5.202
 5802TIP3   OH217362   3.688   0.296   3.604
 5802TIP3    H117363   3.707   0.321   3.514
 5802TIP3    H217364   3.662   0.377   3.648
 5803TIP3   OH217365   6.465   2.584   5.787
 5803TIP3    H117366   6.515   2.636   5.849
 5803TIP3    H217367   6.474   2.494   5.818
 5804TIP3   OH217368   7.587   4.762   1.916
 5804TIP3    H117369   7.561   4.845   1.874
 5804TIP3    H217370   7.505   4.725   1.948
 5805TIP3   OH217371   7.012   6.477   5.627
 5805TIP3    H117372   7.059   6.502   5.706
 5805TIP3    H217373   6.959   6.553   5.605
 5806TIP3   OH217374   7.628   3.962   1.771
 5806TIP3    H117375   7.711   3.946   1.725
 5806TIP3    H217376   7.648   4.034   1.831
 5807TIP3   OH217377   6.239   6.980   3.824
 5807TIP3    H117378   6.155   7.026   3.815
 5807TIP3    H217379   6.240   6.919   3.750
 5808TIP3   OH217380   2.004   7.599   0.185
 5808TIP3    H117381   1.978   7.683   0.147
 5808TIP3    H217382   2.024   7.619   0.276
 5809TIP3   OH217383   0.395   3.785   1.062
 5809TIP3    H117384   0.352   3.718   1.115
 5809TIP3    H217385   0.325   3.847   1.040
 5810TIP3   OH217386   6.738   7.676   0.328
 5810TIP3    H117387   6.834   7.676   0.323
 5810TIP3    H217388   6.716   7.755   0.377
 5811TIP3   OH217389   0.962   3.831   3.207
 5811TIP3    H117390   0.889   3.866   3.155
 5811TIP3    H217391   0.925   3.818   3.294
 5812TIP3   OH217392   5.620   0.884   6.396
 5812TIP3    H117393   5.634   0.791   6.378
 5812TIP3    H217394   5.601   0.923   6.311
 5813TIP3   OH217395   4.097   5.797   2.902
 5813TIP3    H117396   4.137   5.832   2.823
 5813TIP3    H217397   4.039   5.867   2.933
 5814TIP3   OH217398   2.195   2.348   4.144
 5814TIP3    H117399   2.201   2.264   4.098
 5814TIP3    H217400   2.230   2.330   4.231
 5815TIP3   OH217401   3.847   7.274   1.187
 5815TIP3    H117402   3.858   7.367   1.210
 5815TIP3    H217403   3.769   7.247   1.236
 5816TIP3   OH217404   0.324   6.895   0.596
 5816TIP3    H117405   0.363   6.970   0.640
 5816TIP3    H217406   0.337   6.911   0.503
 5817TIP3   OH217407   1.278   2.964   5.774
 5817TIP3    H117408   1.262   2.953   5.680
 5817TIP3    H217409   1.307   3.055   5.783
 5818TIP3   OH217410   3.922   2.853   6.414
 5818TIP3    H117411   3.949   2.945   6.413
 5818TIP3    H217412   3.900   2.835   6.505
 5819TIP3   OH217413   7.288   3.042   3.535
 5819TIP3    H117414   7.355   2.989   3.578
 5819TIP3    H217415   7.205   3.003   3.561
 5820TIP3   OH217416   0.105   1.655   0.631
 5820TIP3    H117417   0.131   1.737   0.672
 5820TIP3    H217418   0.009   1.655   0.635
 5821TIP3   OH217419   7.478   0.813   4.403
 5821TIP3    H117420   7.527   0.861   4.470
 5821TIP3    H217421   7.487   0.868   4.325
 5822TIP3   OH217422   3.946   7.776   0.885
 5822TIP3    H117423   4.019   7.800   0.943
 5822TIP3    H217424   3.959   7.833   0.809
 5823TIP3   OH217425   3.093   3.208   0.837
 5823TIP3    H117426   3.018   3.249   0.880
 5823TIP3    H217427   3.116   3.135   0.894
 5824TIP3   OH217428   5.123   6.782   5.839
 5824TIP3    H117429   5.062   6.856   5.835
 5824TIP3    H217430   5.165   6.790   5.924
 5825TIP3   OH217431   0.698   6.019   1.848
 5825TIP3    H117432   0.745   5.952   1.798
 5825TIP3    H217433   0.702   6.097   1.793
 5826TIP3   OH217434   3.601   3.075   0.718
 5826TIP3    H117435   3.546   3.008   0.758
 5826TIP3    H217436   3.642   3.119   0.792
 5827TIP3   OH217437   6.742   4.529   6.295
 5827TIP3    H117438   6.708   4.443   6.269
 5827TIP3    H217439   6.826   4.510   6.335
 5828TIP3   OH217440   3.443   5.072   1.727
 5828TIP3    H117441   3.447   5.106   1.638
 5828TIP3    H217442   3.494   4.992   1.724
 5829TIP3   OH217443   5.765   3.310   5.971
 5829TIP3    H117444   5.860   3.317   5.976
 5829TIP3    H217445   5.739   3.272   6.055
 5830TIP3   OH217446   1.916   5.105   1.679
 5830TIP3    H117447   1.898   5.127   1.588
 5830TIP3    H217448   1.988   5.042   1.675
 5831TIP3   OH217449   7.654   6.444   6.499
 5831TIP3    H117450   7.746   6.427   6.521
 5831TIP3    H217451   7.615   6.473   6.581
 5832TIP3   OH217452   6.504   5.618   2.164
 5832TIP3    H117453   6.528   5.709   2.151
 5832TIP3    H217454   6.421   5.608   2.118
 5833TIP3   OH217455   5.320   3.103   6.523
 5833TIP3    H117456   5.267   3.179   6.496
 5833TIP3    H217457   5.303   3.037   6.456
 5834TIP3   OH217458   2.125   0.784   4.810
 5834TIP3    H117459   2.221   0.778   4.816
 5834TIP3    H217460   2.102   0.853   4.872
 5835TIP3   OH217461   3.051   3.224   2.343
 5835TIP3    H117462   3.115   3.202   2.275
 5835TIP3    H217463   3.014   3.139   2.369
 5836TIP3   OH217464   2.878   2.691   3.323
 5836TIP3    H117465   2.937   2.766   3.314
 5836TIP3    H217466   2.792   2.723   3.296
 5837TIP3   OH217467   2.320   5.489   1.632
 5837TIP3    H117468   2.381   5.558   1.605
 5837TIP3    H217469   2.234   5.531   1.627
 5838TIP3   OH217470   1.814   6.974   3.852
 5838TIP3    H117471   1.799   6.935   3.766
 5838TIP3    H217472   1.834   7.065   3.834
 5839TIP3   OH217473   0.671   2.624   2.087
 5839TIP3    H117474   0.703   2.543   2.126
 5839TIP3    H217475   0.702   2.621   1.997
 5840TIP3   OH217476   6.244   7.557   1.754
 5840TIP3    H117477   6.309   7.497   1.789
 5840TIP3    H217478   6.171   7.552   1.816
 5841TIP3   OH217479   7.994   5.383   2.497
 5841TIP3    H117480   8.064   5.419   2.552
 5841TIP3    H217481   7.989   5.291   2.522
 5842TIP3   OH217482   2.136   5.604   4.496
 5842TIP3    H117483   2.207   5.571   4.551
 5842TIP3    H217484   2.112   5.529   4.440
 5843TIP3   OH217485   1.959   6.979   4.546
 5843TIP3    H117486   1.988   6.951   4.459
 5843TIP3    H217487   1.863   6.976   4.541
 5844TIP3   OH217488   0.660   4.528   0.824
 5844TIP3    H117489   0.593   4.583   0.783
 5844TIP3    H217490   0.682   4.464   0.757
 5845TIP3   OH217491   7.859   6.472   1.938
 5845TIP3    H117492   7.946   6.432   1.941
 5845TIP3    H217493   7.870   6.555   1.984
 5846TIP3   OH217494   3.452   7.273   2.392
 5846TIP3    H117495   3.446   7.358   2.437
 5846TIP3    H217496   3.366   7.259   2.354
 5847TIP3   OH217497   1.418   4.474   1.321
 5847TIP3    H117498   1.410   4.396   1.267
 5847TIP3    H217499   1.365   4.455   1.399
 5848TIP3   OH217500   3.728   2.653   0.265
 5848TIP3    H117501   3.664   2.602   0.315
 5848TIP3    H217502   3.695   2.743   0.269
 5849TIP3   OH217503   1.527   2.971   1.295
 5849TIP3    H117504   1.592   3.040   1.304
 5849TIP3    H217505   1.477   2.973   1.376
 5850TIP3   OH217506   7.548   0.896   0.914
 5850TIP3    H117507   7.529   0.987   0.933
 5850TIP3    H217508   7.574   0.896   0.822
 5851TIP3   OH217509   6.522   1.666   4.633
 5851TIP3    H117510   6.440   1.716   4.638
 5851TIP3    H217511   6.545   1.650   4.725
 5852TIP3   OH217512   0.785   4.179   6.562
 5852TIP3    H117513   0.719   4.111   6.575
 5852TIP3    H217514   0.735   4.260   6.553
 5853TIP3   OH217515   4.516   0.274   3.071
 5853TIP3    H117516   4.512   0.250   3.164
 5853TIP3    H217517   4.584   0.218   3.035
 5854TIP3   OH217518   4.750   7.413   5.500
 5854TIP3    H117519   4.834   7.451   5.524
 5854TIP3    H217520   4.767   7.319   5.493
 5855TIP3   OH217521   4.805   6.518   2.804
 5855TIP3    H117522   4.774   6.515   2.894
 5855TIP3    H217523   4.818   6.611   2.785
 5856TIP3   OH217524   4.043   3.944   6.464
 5856TIP3    H117525   3.988   4.022   6.456
 5856TIP3    H217526   3.982   3.871   6.454
 5857TIP3   OH217527   8.128   6.173   0.400
 5857TIP3    H117528   8.055   6.130   0.356
 5857TIP3    H217529   8.172   6.104   0.448
 5858TIP3   OH217530   2.360   6.246   4.985
 5858TIP3    H117531   2.396   6.171   4.938
 5858TIP3    H217532   2.436   6.298   5.010
 5859TIP3   OH217533   6.099   1.578   3.229
 5859TIP3    H117534   6.165   1.580   3.160
 5859TIP3    H217535   6.149   1.587   3.310
 5860TIP3   OH217536   1.512   6.773   5.250
 5860TIP3    H117537   1.458   6.822   5.312
 5860TIP3    H217538   1.602   6.792   5.275
 5861TIP3   OH217539   2.570   1.584   1.464
 5861TIP3    H117540   2.639   1.598   1.529
 5861TIP3    H217541   2.500   1.644   1.490
 5862TIP3   OH217542   0.052   0.441   3.607
 5862TIP3    H117543   0.054   0.375   3.676
 5862TIP3    H217544   0.142   0.443   3.573
 5863TIP3   OH217545   0.589   2.130  -0.042
 5863TIP3    H117546   0.626   2.210  -0.081
 5863TIP3    H217547   0.644   2.060  -0.075
 5864TIP3   OH217548   7.532  -0.015   6.395
 5864TIP3    H117549   7.515  -0.078   6.325
 5864TIP3    H217550   7.625  -0.027   6.415
 5865TIP3   OH217551   6.005   1.619   6.290
 5865TIP3    H117552   5.935   1.626   6.225
 5865TIP3    H217553   5.973   1.668   6.366
 5866TIP3   OH217554   5.895   0.339   4.947
 5866TIP3    H117555   5.815   0.363   4.993
 5866TIP3    H217556   5.879   0.250   4.916
 5867TIP3   OH217557   4.750   3.080   2.092
 5867TIP3    H117558   4.816   3.055   2.156
 5867TIP3    H217559   4.675   3.023   2.109
 5868TIP3   OH217560   0.582   4.861   5.774
 5868TIP3    H117561   0.641   4.841   5.702
 5868TIP3    H217562   0.538   4.942   5.748
 5869TIP3   OH217563   2.626   1.664   1.170
 5869TIP3    H117564   2.581   1.657   1.086
 5869TIP3    H217565   2.706   1.712   1.150
 5870TIP3   OH217566   6.974   5.454   3.260
 5870TIP3    H117567   7.044   5.476   3.198
 5870TIP3    H217568   6.988   5.362   3.280
 5871TIP3   OH217569   1.247   6.054   2.353
 5871TIP3    H117570   1.243   5.967   2.313
 5871TIP3    H217571   1.185   6.049   2.426
 5872TIP3   OH217572   1.555   5.419   4.853
 5872TIP3    H117573   1.596   5.439   4.938
 5872TIP3    H217574   1.578   5.493   4.797
 5873TIP3   OH217575   3.014   5.180   6.084
 5873TIP3    H117576   2.985   5.133   6.005
 5873TIP3    H217577   2.937   5.180   6.141
 5874TIP3   OH217578   5.819   6.829   2.348
 5874TIP3    H117579   5.751   6.848   2.413
 5874TIP3    H217580   5.790   6.747   2.307
 5875TIP3   OH217581   6.723   4.474   5.974
 5875TIP3    H117582   6.732   4.407   6.041
 5875TIP3    H217583   6.812   4.492   5.945
 5876TIP3   OH217584   5.964   2.539   0.871
 5876TIP3    H117585   5.870   2.556   0.870
 5876TIP3    H217586   5.971   2.444   0.869
 5877TIP3   OH217587   1.036   5.655   5.641
 5877TIP3    H117588   1.007   5.568   5.669
 5877TIP3    H217589   0.993   5.670   5.557
 5878TIP3   OH217590   0.228   6.229   3.372
 5878TIP3    H117591   0.168   6.155   3.370
 5878TIP3    H217592   0.248   6.241   3.465
 5879TIP3   OH217593   3.344   6.337   0.126
 5879TIP3    H117594   3.303   6.317   0.210
 5879TIP3    H217595   3.438   6.328   0.142
 5880TIP3   OH217596   0.237   5.782   3.365
 5880TIP3    H117597   0.159   5.750   3.412
 5880TIP3    H217598   0.203   5.854   3.310
 5881TIP3   OH217599   6.955   4.521   5.810
 5881TIP3    H117600   6.977   4.596   5.754
 5881TIP3    H217601   6.989   4.545   5.896
 5882TIP3   OH217602   6.100   3.094   1.738
 5882TIP3    H117603   6.066   3.005   1.740
 5882TIP3    H217604   6.195   3.084   1.732
 5883TIP3   OH217605   7.857   6.719   2.537
 5883TIP3    H117606   7.838   6.704   2.444
 5883TIP3    H217607   7.801   6.656   2.582
 5884TIP3   OH217608   0.265   1.690   3.812
 5884TIP3    H117609   0.222   1.607   3.829
 5884TIP3    H217610   0.196   1.756   3.825
 5885TIP3   OH217611   5.888   7.749   6.139
 5885TIP3    H117612   5.867   7.741   6.046
 5885TIP3    H217613   5.809   7.720   6.184
 5886TIP3   OH217614   3.371   3.850   2.890
 5886TIP3    H117615   3.366   3.852   2.795
 5886TIP3    H217616   3.287   3.885   2.920
 5887TIP3   OH217617   4.059   4.212   1.756
 5887TIP3    H117618   4.117   4.189   1.829
 5887TIP3    H217619   4.046   4.129   1.709
 5888TIP3   OH217620   5.242   0.392   5.986
 5888TIP3    H117621   5.175   0.459   5.972
 5888TIP3    H217622   5.212   0.318   5.933
 5889TIP3   OH217623   4.962   3.010   2.234
 5889TIP3    H117624   5.046   3.042   2.266
 5889TIP3    H217625   4.939   2.938   2.292
 5890TIP3   OH217626   6.595   4.618   6.537
 5890TIP3    H117627   6.638   4.575   6.463
 5890TIP3    H217628   6.643   4.700   6.548
 5891TIP3   OH217629   2.365   6.643   3.655
 5891TIP3    H117630   2.425   6.576   3.623
 5891TIP3    H217631   2.285   6.596   3.677
 5892TIP3   OH217632   7.096   1.086   4.992
 5892TIP3    H117633   7.014   1.065   5.036
 5892TIP3    H217634   7.069   1.123   4.907
 5893TIP3   OH217635   2.613   4.262   3.588
 5893TIP3    H117636   2.567   4.300   3.513
 5893TIP3    H217637   2.705   4.260   3.560
 5894TIP3   OH217638   2.365   2.644   2.820
 5894TIP3    H117639   2.290   2.595   2.853
 5894TIP3    H217640   2.413   2.671   2.898
 5895TIP3   OH217641   7.246   6.159   0.515
 5895TIP3    H117642   7.237   6.235   0.458
 5895TIP3    H217643   7.288   6.093   0.460
 5896TIP3   OH217644   1.118   0.416   0.451
 5896TIP3    H117645   1.203   0.459   0.454
 5896TIP3    H217646   1.077   0.451   0.371
 5897TIP3   OH217647   2.675   7.260   1.517
 5897TIP3    H117648   2.748   7.320   1.504
 5897TIP3    H217649   2.607   7.292   1.457
 5898TIP3   OH217650   4.020   0.839   2.308
 5898TIP3    H117651   4.040   0.799   2.223
 5898TIP3    H217652   3.925   0.845   2.311
 5899TIP3   OH217653   6.808   0.556   2.786
 5899TIP3    H117654   6.874   0.575   2.719
 5899TIP3    H217655   6.745   0.499   2.741
 5900TIP3   OH217656   3.909   5.634   3.508
 5900TIP3    H117657   3.864   5.717   3.494
 5900TIP3    H217658   3.910   5.623   3.603
 5901TIP3   OH217659   7.879   3.912   1.659
 5901TIP3    H117660   7.915   4.001   1.659
 5901TIP3    H217661   7.938   3.862   1.715
 5902TIP3   OH217662   0.634   6.620   0.575
 5902TIP3    H117663   0.631   6.669   0.493
 5902TIP3    H217664   0.656   6.684   0.641
 5903TIP3   OH217665   3.156   0.764   5.082
 5903TIP3    H117666   3.166   0.701   5.011
 5903TIP3    H217667   3.197   0.721   5.158
 5904TIP3   OH217668   7.161   4.383   1.839
 5904TIP3    H117669   7.229   4.316   1.848
 5904TIP3    H217670   7.183   4.428   1.757
 5905TIP3   OH217671   5.784   0.901   6.679
 5905TIP3    H117672   5.731   0.936   6.608
 5905TIP3    H217673   5.870   0.887   6.641
 5906TIP3   OH217674   4.287   2.867   3.916
 5906TIP3    H117675   4.341   2.935   3.875
 5906TIP3    H217676   4.307   2.788   3.867
 5907TIP3   OH217677   0.583   2.760   1.562
 5907TIP3    H117678   0.527   2.806   1.500
 5907TIP3    H217679   0.533   2.682   1.587
 5908TIP3   OH217680   4.497   1.025   6.039
 5908TIP3    H117681   4.554   1.093   6.075
 5908TIP3    H217682   4.486   0.963   6.111
 5909TIP3   OH217683   4.500   6.150   2.413
 5909TIP3    H117684   4.573   6.184   2.464
 5909TIP3    H217685   4.473   6.071   2.460
 5910TIP3   OH217686   1.875   5.158   4.915
 5910TIP3    H117687   1.805   5.133   4.976
 5910TIP3    H217688   1.938   5.204   4.970
 5911TIP3   OH217689   6.880   1.147   1.518
 5911TIP3    H117690   6.965   1.109   1.495
 5911TIP3    H217691   6.817   1.095   1.469
 5912TIP3   OH217692   3.442   5.761   1.924
 5912TIP3    H117693   3.534   5.745   1.945
 5912TIP3    H217694   3.397   5.680   1.949
 5913TIP3   OH217695   2.029   4.016   4.560
 5913TIP3    H117696   2.032   4.095   4.613
 5913TIP3    H217697   1.968   3.958   4.606
 5914TIP3   OH217698   4.037   0.663   1.375
 5914TIP3    H117699   3.962   0.630   1.425
 5914TIP3    H217700   4.027   0.624   1.288
 5915TIP3   OH217701   4.950   6.530   1.437
 5915TIP3    H117702   5.005   6.452   1.430
 5915TIP3    H217703   4.869   6.505   1.394
 5916TIP3   OH217704   1.093   0.063   1.082
 5916TIP3    H117705   1.073   0.010   1.005
 5916TIP3    H217706   1.130   0.144   1.046
 5917TIP3   OH217707   5.989   0.469   2.193
 5917TIP3    H117708   5.991   0.419   2.275
 5917TIP3    H217709   6.018   0.407   2.127
 5918TIP3   OH217710   1.113   2.655   1.890
 5918TIP3    H117711   1.149   2.641   1.803
 5918TIP3    H217712   1.177   2.711   1.934
 5919TIP3   OH217713   7.774   6.824   3.291
 5919TIP3    H117714   7.786   6.781   3.376
 5919TIP3    H217715   7.858   6.812   3.247
 5920TIP3   OH217716  -0.017   3.199   2.718
 5920TIP3    H117717   0.070   3.193   2.678
 5920TIP3    H217718  -0.073   3.236   2.650
 5921TIP3   OH217719   3.942   7.534   1.921
 5921TIP3    H117720   3.976   7.543   2.009
 5921TIP3    H217721   3.965   7.616   1.877
 5922TIP3   OH217722   7.651   3.236   4.309
 5922TIP3    H117723   7.593   3.256   4.236
 5922TIP3    H217724   7.714   3.173   4.273
 5923TIP3   OH217725   1.389   6.192   0.846
 5923TIP3    H117726   1.351   6.278   0.864
 5923TIP3    H217727   1.342   6.132   0.903
 5924TIP3   OH217728   4.290   2.157   5.293
 5924TIP3    H117729   4.332   2.142   5.378
 5924TIP3    H217730   4.242   2.239   5.304
 5925TIP3   OH217731   2.240   6.603   3.379
 5925TIP3    H117732   2.263   6.687   3.418
 5925TIP3    H217733   2.216   6.548   3.453
 5926TIP3   OH217734   0.781   5.804   6.000
 5926TIP3    H117735   0.867   5.842   6.014
 5926TIP3    H217736   0.735   5.867   5.945
 5927TIP3   OH217737   2.641   7.304   3.986
 5927TIP3    H117738   2.687   7.323   3.904
 5927TIP3    H217739   2.629   7.390   4.026
 5928TIP3   OH217740   3.044   3.083   5.098
 5928TIP3    H117741   3.044   3.178   5.081
 5928TIP3    H217742   3.131   3.065   5.133
 5929TIP3   OH217743   0.225   1.763   4.415
 5929TIP3    H117744   0.258   1.767   4.505
 5929TIP3    H217745   0.180   1.846   4.403
 5930TIP3   OH217746   3.242   2.191   5.555
 5930TIP3    H117747   3.275   2.190   5.645
 5930TIP3    H217748   3.301   2.249   5.508
 5931TIP3   OH217749   7.753   4.831   5.190
 5931TIP3    H117750   7.759   4.760   5.127
 5931TIP3    H217751   7.814   4.807   5.260
 5932TIP3   OH217752   4.121   0.505   4.437
 5932TIP3    H117753   4.088   0.492   4.526
 5932TIP3    H217754   4.215   0.519   4.448
 5933TIP3   OH217755   0.892   2.634   3.549
 5933TIP3    H117756   0.799   2.629   3.528
 5933TIP3    H217757   0.897   2.685   3.629
 5934TIP3   OH217758   2.652   5.206   6.442
 5934TIP3    H117759   2.721   5.215   6.507
 5934TIP3    H217760   2.578   5.168   6.490
 5935TIP3   OH217761   8.116   7.715   4.867
 5935TIP3    H117762   8.077   7.716   4.780
 5935TIP3    H217763   8.076   7.639   4.910
 5936TIP3   OH217764   3.608   0.502   4.365
 5936TIP3    H117765   3.581   0.581   4.318
 5936TIP3    H217766   3.691   0.477   4.324
 5937TIP3   OH217767   0.781   5.549   3.689
 5937TIP3    H117768   0.722   5.618   3.718
 5937TIP3    H217769   0.766   5.477   3.751
 5938TIP3   OH217770   5.753   5.163   0.418
 5938TIP3    H117771   5.816   5.165   0.346
 5938TIP3    H217772   5.806   5.138   0.494
 5939TIP3   OH217773   6.366   4.409   5.212
 5939TIP3    H117774   6.303   4.430   5.282
 5939TIP3    H217775   6.379   4.491   5.166
 5940TIP3   OH217776   5.199   6.493   0.981
 5940TIP3    H117777   5.283   6.451   0.966
 5940TIP3    H217778   5.180   6.475   1.073
 5941TIP3   OH217779   6.587   5.545   1.582
 5941TIP3    H117780   6.602   5.479   1.650
 5941TIP3    H217781   6.672   5.554   1.539
 5942TIP3   OH217782   5.487   6.047   4.726
 5942TIP3    H117783   5.412   6.089   4.683
 5942TIP3    H217784   5.560   6.107   4.710
 5943TIP3   OH217785   4.146   4.641   5.705
 5943TIP3    H117786   4.154   4.550   5.734
 5943TIP3    H217787   4.236   4.672   5.697
 5944TIP3   OH217788   1.953   2.482   6.016
 5944TIP3    H117789   1.993   2.554   5.967
 5944TIP3    H217790   1.872   2.463   5.969
 5945TIP3   OH217791   7.407   2.097   3.541
 5945TIP3    H117792   7.472   2.154   3.582
 5945TIP3    H217793   7.380   2.145   3.463
 5946TIP3   OH217794   3.672   4.858   0.733
 5946TIP3    H117795   3.609   4.790   0.708
 5946TIP3    H217796   3.737   4.812   0.786
 5947TIP3   OH217797   0.822   2.743   3.157
 5947TIP3    H117798   0.859   2.777   3.239
 5947TIP3    H217799   0.784   2.659   3.181
 5948TIP3   OH217800   3.537   2.260   6.452
 5948TIP3    H117801   3.566   2.348   6.432
 5948TIP3    H217802   3.615   2.215   6.483
 5949TIP3   OH217803   1.929  -0.031   0.188
 5949TIP3    H117804   1.955   0.051   0.230
 5949TIP3    H217805   1.862  -0.067   0.245
 5950TIP3   OH217806   3.258   2.944   1.424
 5950TIP3    H117807   3.257   3.018   1.363
 5950TIP3    H217808   3.329   2.964   1.485
 5951TIP3   OH217809   1.769   1.923   2.340
 5951TIP3    H117810   1.841   1.923   2.276
 5951TIP3    H217811   1.738   1.832   2.341
 5952TIP3   OH217812   1.551   4.864   2.553
 5952TIP3    H117813   1.589   4.917   2.623
 5952TIP3    H217814   1.533   4.927   2.483
 5953TIP3   OH217815   7.068   1.981   2.585
 5953TIP3    H117816   7.018   1.944   2.657
 5953TIP3    H217817   7.137   1.917   2.568
 5954TIP3   OH217818   5.332   4.811   6.574
 5954TIP3    H117819   5.382   4.734   6.602
 5954TIP3    H217820   5.255   4.811   6.632
 5955TIP3   OH217821   0.670   6.071   1.320
 5955TIP3    H117822   0.631   6.077   1.407
 5955TIP3    H217823   0.764   6.065   1.336
 5956TIP3   OH217824   3.947   4.687   6.324
 5956TIP3    H117825   3.881   4.694   6.393
 5956TIP3    H217826   3.928   4.604   6.281
 5957TIP3   OH217827   6.935   3.803   0.528
 5957TIP3    H117828   6.931   3.739   0.457
 5957TIP3    H217829   6.999   3.766   0.589
 5958TIP3   OH217830   6.512   1.393   6.702
 5958TIP3    H117831   6.543   1.403   6.792
 5958TIP3    H217832   6.566   1.323   6.666
 5959TIP3   OH217833   1.037   2.186   6.333
 5959TIP3    H117834   1.089   2.106   6.326
 5959TIP3    H217835   0.969   2.164   6.397
 5960TIP3   OH217836   4.699   7.798   2.054
 5960TIP3    H117837   4.653   7.777   1.973
 5960TIP3    H217838   4.755   7.872   2.032
 5961TIP3   OH217839   4.593   6.917   2.866
 5961TIP3    H117840   4.610   6.880   2.953
 5961TIP3    H217841   4.580   7.010   2.882
 5962TIP3   OH217842   2.052   6.301   3.999
 5962TIP3    H117843   2.072   6.256   4.081
 5962TIP3    H217844   2.121   6.272   3.939
 5963TIP3   OH217845   4.839   5.572   6.028
 5963TIP3    H117846   4.786   5.493   6.038
 5963TIP3    H217847   4.902   5.550   5.959
 5964TIP3   OH217848   0.360   3.771   6.212
 5964TIP3    H117849   0.358   3.853   6.162
 5964TIP3    H217850   0.379   3.704   6.147
 5965TIP3   OH217851   5.260   2.415   0.287
 5965TIP3    H117852   5.238   2.323   0.270
 5965TIP3    H217853   5.272   2.419   0.382
 5966TIP3   OH217854   5.573   0.300   3.122
 5966TIP3    H117855   5.617   0.228   3.075
 5966TIP3    H217856   5.576   0.373   3.061
 5967TIP3   OH217857   3.080   6.413   0.436
 5967TIP3    H117858   3.053   6.481   0.374
 5967TIP3    H217859   3.091   6.459   0.519
 5968TIP3   OH217860   3.125   5.549   2.760
 5968TIP3    H117861   3.131   5.555   2.855
 5968TIP3    H217862   3.213   5.522   2.732
 5969TIP3   OH217863   1.818   7.396   2.895
 5969TIP3    H117864   1.770   7.325   2.853
 5969TIP3    H217865   1.910   7.371   2.887
 5970TIP3   OH217866   7.414   5.149   6.219
 5970TIP3    H117867   7.454   5.110   6.141
 5970TIP3    H217868   7.428   5.085   6.288
 5971TIP3   OH217869   3.242   5.333   4.863
 5971TIP3    H117870   3.209   5.255   4.818
 5971TIP3    H217871   3.165   5.371   4.905
 5972TIP3   OH217872   7.985   0.371   0.562
 5972TIP3    H117873   8.048   0.421   0.613
 5972TIP3    H217874   7.954   0.432   0.495
 5973TIP3   OH217875   0.965   3.658   6.246
 5973TIP3    H117876   0.906   3.585   6.263
 5973TIP3    H217877   0.962   3.672   6.152
 5974TIP3   OH217878   4.492   3.120   3.200
 5974TIP3    H117879   4.511   3.214   3.192
 5974TIP3    H217880   4.526   3.096   3.286
 5975TIP3   OH217881   5.279   4.858   0.787
 5975TIP3    H117882   5.374   4.858   0.793
 5975TIP3    H217883   5.249   4.861   0.877
 5976TIP3   OH217884   6.750   5.206   3.935
 5976TIP3    H117885   6.711   5.129   3.977
 5976TIP3    H217886   6.685   5.276   3.949
 5977TIP3   OH217887   1.362   2.006   0.547
 5977TIP3    H117888   1.416   2.065   0.495
 5977TIP3    H217889   1.424   1.954   0.598
 5978TIP3   OH217890   2.574   6.741   3.079
 5978TIP3    H117891   2.653   6.795   3.081
 5978TIP3    H217892   2.545   6.737   3.170
 5979TIP3   OH217893   7.006   3.083   6.273
 5979TIP3    H117894   7.082   3.035   6.306
 5979TIP3    H217895   6.931   3.027   6.293
 5980TIP3   OH217896   7.488   3.469   3.304
 5980TIP3    H117897   7.484   3.395   3.365
 5980TIP3    H217898   7.523   3.432   3.223
 5981TIP3   OH217899   4.552   0.595   5.119
 5981TIP3    H117900   4.555   0.533   5.191
 5981TIP3    H217901   4.625   0.569   5.062
 5982TIP3   OH217902   5.161   5.665   1.306
 5982TIP3    H117903   5.165   5.624   1.219
 5982TIP3    H217904   5.068   5.673   1.324
 5983TIP3   OH217905   6.585   7.302   3.816
 5983TIP3    H117906   6.667   7.321   3.770
 5983TIP3    H217907   6.601   7.330   3.906
 5984TIP3   OH217908   7.106   4.009   6.081
 5984TIP3    H117909   7.167   4.075   6.049
 5984TIP3    H217910   7.071   4.046   6.162
 5985TIP3   OH217911   4.471   1.049   4.911
 5985TIP3    H117912   4.471   0.995   4.989
 5985TIP3    H217913   4.561   1.044   4.877
 5986TIP3   OH217914   6.016   5.960   6.539
 5986TIP3    H117915   5.967   5.884   6.507
 5986TIP3    H217916   6.107   5.939   6.521
 5987TIP3   OH217917   6.093   4.856   3.117
 5987TIP3    H117918   6.189   4.853   3.118
 5987TIP3    H217919   6.071   4.930   3.174
 5988TIP3   OH217920   7.686   0.792   3.646
 5988TIP3    H117921   7.624   0.753   3.708
 5988TIP3    H217922   7.768   0.797   3.695
 5989TIP3   OH217923   7.612   6.284   3.015
 5989TIP3    H117924   7.537   6.343   3.016
 5989TIP3    H217925   7.624   6.261   2.923
 5990TIP3   OH217926   5.360   2.785   1.163
 5990TIP3    H117927   5.274   2.796   1.122
 5990TIP3    H217928   5.401   2.714   1.114
 5991TIP3   OH217929   5.021   1.853   0.226
 5991TIP3    H117930   4.934   1.855   0.266
 5991TIP3    H217931   5.077   1.901   0.287
 5992TIP3   OH217932   0.765   4.368   1.814
 5992TIP3    H117933   0.780   4.397   1.904
 5992TIP3    H217934   0.805   4.281   1.809
 5993TIP3   OH217935   3.153   4.339   0.985
 5993TIP3    H117936   3.205   4.401   1.036
 5993TIP3    H217937   3.131   4.269   1.047
 5994TIP3   OH217938   3.102   5.213   1.762
 5994TIP3    H117939   3.164   5.254   1.822
 5994TIP3    H217940   3.130   5.121   1.758
 5995TIP3   OH217941   3.317   4.926   5.744
 5995TIP3    H117942   3.303   4.916   5.650
 5995TIP3    H217943   3.229   4.937   5.780
 5996TIP3   OH217944   6.137   2.758   2.829
 5996TIP3    H117945   6.113   2.668   2.852
 5996TIP3    H217946   6.223   2.770   2.868
 5997TIP3   OH217947   3.363   5.588   5.653
 5997TIP3    H117948   3.330   5.534   5.725
 5997TIP3    H217949   3.353   5.533   5.576
 5998TIP3   OH217950   0.739   5.897   2.108
 5998TIP3    H117951   0.704   5.949   2.035
 5998TIP3    H217952   0.806   5.953   2.147
 5999TIP3   OH217953   0.680   1.140   0.398
 5999TIP3    H117954   0.626   1.087   0.457
 5999TIP3    H217955   0.644   1.229   0.407
 6000TIP3   OH217956   5.380   3.635   2.684
 6000TIP3    H117957   5.445   3.600   2.622
 6000TIP3    H217958   5.325   3.693   2.630
 6001TIP3   OH217959   4.677   6.205   1.511
 6001TIP3    H117960   4.700   6.153   1.434
 6001TIP3    H217961   4.757   6.254   1.531
 6002TIP3   OH217962   7.128   4.842   1.509
 6002TIP3    H117963   7.117   4.901   1.584
 6002TIP3    H217964   7.057   4.864   1.450
 6003TIP3   OH217965   2.282   4.512   3.462
 6003TIP3    H117966   2.256   4.579   3.525
 6003TIP3    H217967   2.208   4.452   3.457
 6004TIP3   OH217968   7.165   1.461   5.688
 6004TIP3    H117969   7.208   1.413   5.618
 6004TIP3    H217970   7.148   1.395   5.756
 6005TIP3   OH217971   6.159   1.427   6.008
 6005TIP3    H117972   6.163   1.479   6.088
 6005TIP3    H217973   6.096   1.472   5.952
 6006TIP3   OH217974   4.214   2.029   1.925
 6006TIP3    H117975   4.176   2.020   2.012
 6006TIP3    H217976   4.184   1.950   1.879
 6007TIP3   OH217977   3.948   7.198   0.874
 6007TIP3    H117978   3.962   7.216   0.967
 6007TIP3    H217979   3.941   7.285   0.834
 6008TIP3   OH217980   5.059   7.355   1.694
 6008TIP3    H117981   5.042   7.290   1.626
 6008TIP3    H217982   5.005   7.328   1.767
 6009TIP3   OH217983   3.450   6.463   3.629
 6009TIP3    H117984   3.495   6.503   3.703
 6009TIP3    H217985   3.368   6.510   3.622
 6010TIP3   OH217986   1.966   2.735   3.731
 6010TIP3    H117987   2.035   2.682   3.691
 6010TIP3    H217988   1.937   2.685   3.807
 6011TIP3   OH217989   0.766   0.734   2.673
 6011TIP3    H117990   0.790   0.823   2.698
 6011TIP3    H217991   0.838   0.680   2.707
 6012TIP3   OH217992   5.113   0.679   1.510
 6012TIP3    H117993   5.088   0.670   1.418
 6012TIP3    H217994   5.208   0.688   1.509
 6013TIP3   OH217995   7.599   0.184   3.851
 6013TIP3    H117996   7.694   0.194   3.861
 6013TIP3    H217997   7.564   0.196   3.939
 6014TIP3   OH217998   6.862   2.618   0.111
 6014TIP3    H117999   6.935   2.651   0.058
 6014TIP3    H218000   6.851   2.527   0.084
 6015TIP3   OH218001   8.080   2.422   3.241
 6015TIP3    H118002   8.141   2.399   3.311
 6015TIP3    H218003   8.120   2.388   3.161
 6016TIP3   OH218004   0.793   4.903  -0.055
 6016TIP3    H118005   0.824   4.813  -0.039
 6016TIP3    H218006   0.840   4.956   0.010
 6017TIP3   OH218007   7.617   3.057   5.458
 6017TIP3    H118008   7.606   3.150   5.439
 6017TIP3    H218009   7.542   3.015   5.416
 6018TIP3   OH218010   5.856   4.136   6.542
 6018TIP3    H118011   5.917   4.172   6.478
 6018TIP3    H218012   5.770   4.150   6.502
 6019TIP3   OH218013   1.571   6.235   3.954
 6019TIP3    H118014   1.515   6.238   4.032
 6019TIP3    H218015   1.577   6.327   3.926
 6020TIP3   OH218016   3.339   0.030   3.496
 6020TIP3    H118017   3.403  -0.002   3.433
 6020TIP3    H218018   3.254   0.003   3.460
 6021TIP3   OH218019   7.285   7.549   6.015
 6021TIP3    H118020   7.216   7.597   6.061
 6021TIP3    H218021   7.320   7.489   6.080
 6022TIP3   OH218022   6.621   3.759   2.072
 6022TIP3    H118023   6.702   3.771   2.022
 6022TIP3    H218024   6.635   3.809   2.153
 6023TIP3   OH218025   4.632   1.413   6.667
 6023TIP3    H118026   4.602   1.350   6.601
 6023TIP3    H218027   4.566   1.409   6.736
 6024TIP3   OH218028   1.659   2.977   3.801
 6024TIP3    H118029   1.606   3.045   3.761
 6024TIP3    H218030   1.600   2.903   3.811
 6025TIP3   OH218031   0.465   3.057   4.166
 6025TIP3    H118032   0.443   2.972   4.202
 6025TIP3    H218033   0.462   3.045   4.071
 6026TIP3   OH218034   2.066   6.951   2.702
 6026TIP3    H118035   1.984   6.971   2.747
 6026TIP3    H218036   2.134   6.968   2.768
 6027TIP3   OH218037   3.879   5.372   4.525
 6027TIP3    H118038   3.831   5.428   4.464
 6027TIP3    H218039   3.971   5.396   4.512
 6028TIP3   OH218040   0.929   5.028   0.171
 6028TIP3    H118041   0.886   4.959   0.221
 6028TIP3    H218042   0.977   5.079   0.236
 6029TIP3   OH218043   8.044   5.041   5.261
 6029TIP3    H118044   7.998   5.046   5.177
 6029TIP3    H218045   7.998   5.103   5.317
 6030TIP3   OH218046   2.435   5.786   2.732
 6030TIP3    H118047   2.368   5.853   2.716
 6030TIP3    H218048   2.471   5.808   2.818
 6031TIP3   OH218049   1.687   5.611   1.857
 6031TIP3    H118050   1.615   5.584   1.801
 6031TIP3    H218051   1.660   5.584   1.945
 6032TIP3   OH218052   2.946   4.673   4.891
 6032TIP3    H118053   2.934   4.588   4.849
 6032TIP3    H218054   2.858   4.709   4.898
 6033TIP3   OH218055   1.827   2.267   1.561
 6033TIP3    H118056   1.921   2.261   1.578
 6033TIP3    H218057   1.821   2.307   1.474
 6034TIP3   OH218058   6.161   1.422   4.741
 6034TIP3    H118059   6.202   1.425   4.654
 6034TIP3    H218060   6.178   1.333   4.773
 6035TIP3   OH218061   5.673   4.079   5.212
 6035TIP3    H118062   5.694   4.168   5.182
 6035TIP3    H218063   5.744   4.025   5.176
 6036TIP3   OH218064   6.245   2.759   0.430
 6036TIP3    H118065   6.165   2.796   0.394
 6036TIP3    H218066   6.302   2.835   0.446
 6037TIP3   OH218067   4.523   2.434   5.627
 6037TIP3    H118068   4.489   2.517   5.658
 6037TIP3    H218069   4.591   2.458   5.564
 6038TIP3   OH218070   4.328   4.214   1.911
 6038TIP3    H118071   4.378   4.250   1.838
 6038TIP3    H218072   4.375   4.243   1.989
 6039TIP3   OH218073   7.102   3.206   1.705
 6039TIP3    H118074   7.034   3.205   1.772
 6039TIP3    H218075   7.056   3.225   1.624
 6040TIP3   OH218076   6.368   3.158   2.007
 6040TIP3    H118077   6.318   3.227   1.962
 6040TIP3    H218078   6.451   3.200   2.030
 6041TIP3   OH218079   0.743   3.918   1.333
 6041TIP3    H118080   0.733   3.988   1.398
 6041TIP3    H218081   0.669   3.860   1.349
 6042TIP3   OH218082   2.191   3.587   1.720
 6042TIP3    H118083   2.154   3.665   1.762
 6042TIP3    H218084   2.143   3.579   1.637
 6043TIP3   OH218085   7.028   5.861   3.313
 6043TIP3    H118086   6.992   5.780   3.349
 6043TIP3    H218087   7.023   5.849   3.218
 6044TIP3   OH218088   3.441   5.683   1.655
 6044TIP3    H118089   3.523   5.665   1.608
 6044TIP3    H218090   3.468   5.734   1.731
 6045TIP3   OH218091   2.290   5.057   2.989
 6045TIP3    H118092   2.265   5.091   2.903
 6045TIP3    H218093   2.241   4.975   2.998
 6046TIP3   OH218094   3.789   4.489   3.797
 6046TIP3    H118095   3.762   4.425   3.731
 6046TIP3    H218096   3.786   4.573   3.751
 6047TIP3   OH218097   7.566   1.180   5.951
 6047TIP3    H118098   7.552   1.227   6.033
 6047TIP3    H218099   7.655   1.203   5.924
 6048TIP3   OH218100   6.038   4.084   1.990
 6048TIP3    H118101   6.028   4.177   1.971
 6048TIP3    H218102   6.109   4.080   2.054
 6049TIP3   OH218103   3.684   5.450   2.554
 6049TIP3    H118104   3.724   5.440   2.467
 6049TIP3    H218105   3.593   5.421   2.541
 6050TIP3   OH218106   1.109   7.258   5.365
 6050TIP3    H118107   1.188   7.244   5.417
 6050TIP3    H218108   1.037   7.227   5.420
 6051TIP3   OH218109   6.301   4.804   4.084
 6051TIP3    H118110   6.358   4.830   4.012
 6051TIP3    H218111   6.238   4.744   4.043
 6052TIP3   OH218112   7.905   0.068   3.717
 6052TIP3    H118113   7.892   0.007   3.789
 6052TIP3    H218114   7.956   0.140   3.754
 6053TIP3   OH218115   5.667   4.353   6.186
 6053TIP3    H118116   5.744   4.388   6.140
 6053TIP3    H218117   5.608   4.324   6.116
 6054TIP3   OH218118   7.713   0.882   6.361
 6054TIP3    H118119   7.619   0.887   6.377
 6054TIP3    H218120   7.741   0.973   6.352
 6055TIP3   OH218121   3.945   4.286   6.015
 6055TIP3    H118122   3.866   4.315   5.969
 6055TIP3    H218123   3.912   4.241   6.093
 6056TIP3   OH218124   4.490   5.881   3.535
 6056TIP3    H118125   4.402   5.848   3.555
 6056TIP3    H218126   4.502   5.863   3.442
 6057TIP3   OH218127   0.242   4.630   6.478
 6057TIP3    H118128   0.288   4.624   6.394
 6057TIP3    H218129   0.149   4.631   6.454
 6058TIP3   OH218130   1.007   1.004   0.279
 6058TIP3    H118131   1.041   1.070   0.218
 6058TIP3    H218132   0.912   1.009   0.268
 6059TIP3   OH218133   5.652   1.636   0.876
 6059TIP3    H118134   5.613   1.582   0.945
 6059TIP3    H218135   5.694   1.573   0.817
 6060TIP3   OH218136   3.999   7.767   1.733
 6060TIP3    H118137   3.996   7.683   1.686
 6060TIP3    H218138   4.071   7.756   1.795
 6061TIP3   OH218139   5.312   3.402   0.445
 6061TIP3    H118140   5.231   3.444   0.416
 6061TIP3    H218141   5.285   3.342   0.515
 6062TIP3   OH218142   0.066   0.233   4.409
 6062TIP3    H118143   0.091   0.202   4.496
 6062TIP3    H218144   0.118   0.312   4.396
 6063TIP3   OH218145   7.592   0.623   1.887
 6063TIP3    H118146   7.633   0.657   1.808
 6063TIP3    H218147   7.664   0.607   1.947
 6064TIP3   OH218148   7.535   1.806   4.655
 6064TIP3    H118149   7.579   1.730   4.616
 6064TIP3    H218150   7.458   1.819   4.600
 6065TIP3   OH218151   2.947   3.524   6.366
 6065TIP3    H118152   3.027   3.559   6.406
 6065TIP3    H218153   2.877   3.547   6.427
 6066TIP3   OH218154   1.610   2.121   5.634
 6066TIP3    H118155   1.635   2.039   5.677
 6066TIP3    H218156   1.577   2.176   5.705
 6067TIP3   OH218157   4.277   2.959   1.148
 6067TIP3    H118158   4.222   2.957   1.226
 6067TIP3    H218159   4.246   2.886   1.095
 6068TIP3   OH218160   3.714   0.189   3.258
 6068TIP3    H118161   3.781   0.257   3.259
 6068TIP3    H218162   3.678   0.191   3.170
 6069TIP3   OH218163   8.258   5.603   5.309
 6069TIP3    H118164   8.304   5.590   5.226
 6069TIP3    H218165   8.328   5.601   5.375
 6070TIP3   OH218166   7.012   7.676   0.219
 6070TIP3    H118167   7.058   7.724   0.288
 6070TIP3    H218168   7.019   7.732   0.142
 6071TIP3   OH218169   2.465   5.331   5.922
 6071TIP3    H118170   2.420   5.411   5.897
 6071TIP3    H218171   2.438   5.316   6.013
 6072TIP3   OH218172   5.231   2.350   4.465
 6072TIP3    H118173   5.249   2.368   4.373
 6072TIP3    H218174   5.199   2.260   4.466
 6073TIP3   OH218175   7.548   0.298   4.375
 6073TIP3    H118176   7.536   0.390   4.398
 6073TIP3    H218177   7.593   0.260   4.450
 6074TIP3   OH218178   1.593   5.929   6.084
 6074TIP3    H118179   1.558   5.984   6.154
 6074TIP3    H218180   1.536   5.945   6.010
 6075TIP3   OH218181   1.956   0.798   4.251
 6075TIP3    H118182   1.986   0.838   4.170
 6075TIP3    H218183   2.008   0.718   4.259
 6076TIP3   OH218184   1.276   1.796   3.648
 6076TIP3    H118185   1.265   1.879   3.602
 6076TIP3    H218186   1.269   1.819   3.741
 6077TIP3   OH218187   0.225   2.917   3.750
 6077TIP3    H118188   0.286   2.985   3.778
 6077TIP3    H218189   0.144   2.964   3.730
 6078TIP3   OH218190   2.176   3.000   3.950
 6078TIP3    H118191   2.081   3.004   3.941
 6078TIP3    H218192   2.195   2.910   3.973
 6079TIP3   OH218193   4.664   0.860   1.177
 6079TIP3    H118194   4.591   0.838   1.119
 6079TIP3    H218195   4.714   0.926   1.130
 6080TIP3   OH218196   7.842   6.982   0.430
 6080TIP3    H118197   7.857   6.921   0.502
 6080TIP3    H218198   7.828   6.926   0.353
 6081TIP3   OH218199   3.897   6.638   4.239
 6081TIP3    H118200   3.875   6.726   4.209
 6081TIP3    H218201   3.952   6.602   4.168
 6082TIP3   OH218202   1.087   5.962   5.249
 6082TIP3    H118203   1.091   5.870   5.225
 6082TIP3    H218204   1.030   6.002   5.184
 6083TIP3   OH218205   3.418   5.159   3.991
 6083TIP3    H118206   3.341   5.141   3.938
 6083TIP3    H218207   3.428   5.083   4.048
 6084TIP3   OH218208   8.111   4.268   5.150
 6084TIP3    H118209   8.088   4.198   5.211
 6084TIP3    H218210   8.065   4.345   5.184
 6085TIP3   OH218211   6.203   1.233   5.468
 6085TIP3    H118212   6.230   1.175   5.538
 6085TIP3    H218213   6.275   1.229   5.405
 6086TIP3   OH218214   2.574   6.397   4.923
 6086TIP3    H118215   2.608   6.437   4.844
 6086TIP3    H218216   2.612   6.449   4.994
 6087TIP3   OH218217   7.710   3.422   6.167
 6087TIP3    H118218   7.620   3.396   6.186
 6087TIP3    H218219   7.741   3.461   6.248
 6088TIP3   OH218220   5.151   6.185   2.431
 6088TIP3    H118221   5.189   6.163   2.346
 6088TIP3    H218222   5.079   6.123   2.442
 6089TIP3   OH218223   0.365   6.841   6.771
 6089TIP3    H118224   0.325   6.826   6.857
 6089TIP3    H218225   0.298   6.815   6.708
 6090TIP3   OH218226   7.725   1.535   4.444
 6090TIP3    H118227   7.792   1.577   4.390
 6090TIP3    H218228   7.745   1.562   4.533
 6091TIP3   OH218229   5.010   3.388   4.204
 6091TIP3    H118230   5.086   3.436   4.238
 6091TIP3    H218231   4.943   3.398   4.271
 6092TIP3   OH218232   2.541   6.954   0.547
 6092TIP3    H118233   2.633   6.957   0.522
 6092TIP3    H218234   2.542   6.946   0.642
 6093TIP3   OH218235   5.620   5.734   1.045
 6093TIP3    H118236   5.659   5.796   0.984
 6093TIP3    H218237   5.587   5.788   1.116
 6094TIP3   OH218238   5.230   3.659   0.260
 6094TIP3    H118239   5.139   3.641   0.281
 6094TIP3    H218240   5.253   3.734   0.314
 6095TIP3   OH218241   3.621   1.328   6.069
 6095TIP3    H118242   3.584   1.263   6.009
 6095TIP3    H218243   3.661   1.276   6.138
 6096TIP3   OH218244   8.209   5.924   5.785
 6096TIP3    H118245   8.173   5.918   5.874
 6096TIP3    H218246   8.149   5.981   5.738
 6097TIP3   OH218247   7.940   6.344   4.696
 6097TIP3    H118248   7.856   6.314   4.732
 6097TIP3    H218249   8.006   6.292   4.743
 6098TIP3   OH218250   0.955   7.195   3.029
 6098TIP3    H118251   0.921   7.282   3.051
 6098TIP3    H218252   1.049   7.207   3.022
 6099TIP3   OH218253   1.306   6.434   4.692
 6099TIP3    H118254   1.221   6.476   4.679
 6099TIP3    H218255   1.305   6.358   4.634
 6100TIP3   OH218256   1.665   4.904   4.177
 6100TIP3    H118257   1.746   4.916   4.127
 6100TIP3    H218258   1.658   4.984   4.229
 6101TIP3   OH218259   7.562   7.643   1.453
 6101TIP3    H118260   7.543   7.686   1.369
 6101TIP3    H218261   7.638   7.689   1.487
 6102TIP3   OH218262   0.207   7.367   0.841
 6102TIP3    H118263   0.147   7.439   0.860
 6102TIP3    H218264   0.293   7.398   0.872
 6103TIP3   OH218265   5.363   4.837   0.181
 6103TIP3    H118266   5.445   4.791   0.164
 6103TIP3    H218267   5.311   4.776   0.233
 6104TIP3   OH218268   1.043   0.184   2.619
 6104TIP3    H118269   0.960   0.213   2.583
 6104TIP3    H218270   1.071   0.113   2.561
 6105TIP3   OH218271   6.199   5.801   0.126
 6105TIP3    H118272   6.184   5.893   0.146
 6105TIP3    H218273   6.134   5.780   0.059
 6106TIP3   OH218274   4.065   5.898   1.110
 6106TIP3    H118275   4.040   5.808   1.089
 6106TIP3    H218276   4.088   5.937   1.026
 6107TIP3   OH218277   5.269   3.511   4.886
 6107TIP3    H118278   5.312   3.590   4.853
 6107TIP3    H218279   5.336   3.443   4.879
 6108TIP3   OH218280   0.828   1.952   2.312
 6108TIP3    H118281   0.898   1.889   2.334
 6108TIP3    H218282   0.752   1.897   2.293
 6109TIP3   OH218283   7.230   0.590   1.751
 6109TIP3    H118284   7.289   0.662   1.729
 6109TIP3    H218285   7.161   0.595   1.685
 6110TIP3   OH218286   4.333   2.929   4.600
 6110TIP3    H118287   4.427   2.914   4.609
 6110TIP3    H218288   4.313   2.997   4.663
 6111TIP3   OH218289   2.481   1.578   6.402
 6111TIP3    H118290   2.438   1.642   6.459
 6111TIP3    H218291   2.557   1.549   6.451
 6112TIP3   OH218292   4.954   5.709   5.544
 6112TIP3    H118293   5.027   5.758   5.507
 6112TIP3    H218294   4.878   5.767   5.536
 6113TIP3   OH218295   1.941   5.973   4.249
 6113TIP3    H118296   1.939   6.055   4.200
 6113TIP3    H218297   1.859   5.929   4.227
 6114TIP3   OH218298   4.580   1.066   1.631
 6114TIP3    H118299   4.659   1.024   1.665
 6114TIP3    H218300   4.589   1.058   1.536
 6115TIP3   OH218301   6.000   5.899   1.159
 6115TIP3    H118302   6.079   5.863   1.199
 6115TIP3    H218303   5.971   5.833   1.096
 6116TIP3   OH218304   1.801   1.779   4.740
 6116TIP3    H118305   1.730   1.799   4.801
 6116TIP3    H218306   1.830   1.865   4.708
 6117TIP3   OH218307   2.896   2.122   6.377
 6117TIP3    H118308   2.906   2.105   6.471
 6117TIP3    H218309   2.879   2.216   6.372
 6118TIP3   OH218310   4.273   7.132   6.101
 6118TIP3    H118311   4.277   7.058   6.041
 6118TIP3    H218312   4.295   7.094   6.187
 6119TIP3   OH218313   6.280   2.778   2.243
 6119TIP3    H118314   6.229   2.849   2.205
 6119TIP3    H218315   6.312   2.728   2.168
 6120TIP3   OH218316   2.213   0.828   4.005
 6120TIP3    H118317   2.263   0.781   3.939
 6120TIP3    H218318   2.146   0.766   4.035
 6121TIP3   OH218319   6.934   0.896   3.718
 6121TIP3    H118320   6.978   0.842   3.652
 6121TIP3    H218321   6.921   0.838   3.792
 6122TIP3   OH218322   7.531   3.560   4.231
 6122TIP3    H118323   7.474   3.622   4.185
 6122TIP3    H218324   7.579   3.516   4.161
 6123TIP3   OH218325   4.556   7.700   5.209
 6123TIP3    H118326   4.464   7.698   5.235
 6123TIP3    H218327   4.594   7.770   5.261
 6124TIP3   OH218328   4.996   7.788   1.060
 6124TIP3    H118329   4.902   7.800   1.073
 6124TIP3    H218330   5.003   7.730   0.984
 6125TIP3   OH218331   1.312   6.088   5.118
 6125TIP3    H118332   1.384   6.032   5.146
 6125TIP3    H218333   1.240   6.064   5.176
 6126TIP3   OH218334   5.262   2.149   1.460
 6126TIP3    H118335   5.325   2.082   1.430
 6126TIP3    H218336   5.248   2.204   1.383
 6127TIP3   OH218337   6.226   0.681   2.834
 6127TIP3    H118338   6.316   0.708   2.854
 6127TIP3    H218339   6.235   0.608   2.773
 6128TIP3   OH218340   3.067   3.395   0.626
 6128TIP3    H118341   3.044   3.326   0.688
 6128TIP3    H218342   2.983   3.436   0.604
 6129TIP3   OH218343   7.249   4.002   4.379
 6129TIP3    H118344   7.299   4.043   4.309
 6129TIP3    H218345   7.161   4.040   4.371
 6130TIP3   OH218346   6.669   7.530   1.017
 6130TIP3    H118347   6.713   7.453   0.981
 6130TIP3    H218348   6.591   7.495   1.060
 6131TIP3   OH218349   8.221   0.295   3.982
 6131TIP3    H118350   8.207   0.233   4.054
 6131TIP3    H218351   8.307   0.333   3.999
 6132TIP3   OH218352   1.407   2.906   3.329
 6132TIP3    H118353   1.469   2.969   3.364
 6132TIP3    H218354   1.387   2.847   3.402
 6133TIP3   OH218355   2.960   1.230   1.348
 6133TIP3    H118356   3.025   1.229   1.419
 6133TIP3    H218357   3.001   1.180   1.278
 6134TIP3   OH218358   6.612   2.928   3.054
 6134TIP3    H118359   6.600   2.884   3.138
 6134TIP3    H218360   6.704   2.953   3.053
 6135TIP3   OH218361   7.490   6.128   3.667
 6135TIP3    H118362   7.563   6.189   3.660
 6135TIP3    H218363   7.418   6.172   3.622
 6136TIP3   OH218364   0.704   7.716   6.248
 6136TIP3    H118365   0.729   7.638   6.198
 6136TIP3    H218366   0.751   7.707   6.331
 6137TIP3   OH218367   5.337   5.512   2.810
 6137TIP3    H118368   5.415   5.525   2.865
 6137TIP3    H218369   5.339   5.419   2.787
 6138TIP3   OH218370  -0.008   4.924   5.207
 6138TIP3    H118371  -0.087   4.977   5.219
 6138TIP3    H218372   0.060   4.987   5.185
 6139TIP3   OH218373   3.534   2.913   5.324
 6139TIP3    H118374   3.619   2.945   5.294
 6139TIP3    H218375   3.541   2.818   5.318
 6140TIP3   OH218376   7.154   4.588   2.189
 6140TIP3    H118377   7.078   4.530   2.194
 6140TIP3    H218378   7.189   4.589   2.278
 6141TIP3   OH218379   2.921   3.770   0.275
 6141TIP3    H118380   2.847   3.792   0.333
 6141TIP3    H218381   2.916   3.836   0.205
 6142TIP3   OH218382   7.914   1.274   4.140
 6142TIP3    H118383   7.855   1.222   4.195
 6142TIP3    H218384   7.992   1.220   4.129
 6143TIP3   OH218385   2.871   1.572   0.164
 6143TIP3    H118386   2.930   1.561   0.090
 6143TIP3    H218387   2.793   1.522   0.140
 6144TIP3   OH218388   2.634   0.922   1.348
 6144TIP3    H118389   2.720   0.892   1.378
 6144TIP3    H218390   2.583   0.841   1.337
 6145TIP3   OH218391   1.269   7.339   4.822
 6145TIP3    H118392   1.350   7.350   4.872
 6145TIP3    H218393   1.258   7.421   4.776
 6146TIP3   OH218394   2.098   0.316   5.318
 6146TIP3    H118395   2.172   0.368   5.288
 6146TIP3    H218396   2.123   0.226   5.298
 6147TIP3   OH218397   0.118   0.186   4.675
 6147TIP3    H118398   0.079   0.244   4.741
 6147TIP3    H218399   0.076   0.101   4.691
 6148TIP3   OH218400   4.255   0.927   0.722
 6148TIP3    H118401   4.287   0.955   0.808
 6148TIP3    H218402   4.192   0.858   0.740
 6149TIP3   OH218403   5.939   3.506   4.175
 6149TIP3    H118404   5.927   3.466   4.089
 6149TIP3    H218405   5.867   3.473   4.228
 6150TIP3   OH218406   8.073   4.894   1.537
 6150TIP3    H118407   8.019   4.921   1.612
 6150TIP3    H218408   8.152   4.858   1.577
 6151TIP3   OH218409   1.510   1.524   3.699
 6151TIP3    H118410   1.555   1.488   3.623
 6151TIP3    H218411   1.446   1.457   3.723
 6152TIP3   OH218412   0.708   5.924   0.779
 6152TIP3    H118413   0.659   5.939   0.860
 6152TIP3    H218414   0.792   5.968   0.794
 6153TIP3   OH218415   3.411   5.831   4.315
 6153TIP3    H118416   3.448   5.916   4.291
 6153TIP3    H218417   3.404   5.783   4.232
 6154TIP3   OH218418   4.210   0.930   2.064
 6154TIP3    H118419   4.204   0.973   2.149
 6154TIP3    H218420   4.263   0.989   2.010
 6155TIP3   OH218421   7.848   5.671   6.631
 6155TIP3    H118422   7.789   5.599   6.652
 6155TIP3    H218423   7.893   5.690   6.713
 6156TIP3   OH218424   6.934   5.693   0.483
 6156TIP3    H118425   6.996   5.643   0.536
 6156TIP3    H218426   6.940   5.653   0.396
 6157TIP3   OH218427   5.378   7.240   5.925
 6157TIP3    H118428   5.334   7.190   5.994
 6157TIP3    H218429   5.453   7.281   5.968
 6158TIP3   OH218430   7.011   6.728   5.112
 6158TIP3    H118431   7.076   6.797   5.130
 6158TIP3    H218432   6.993   6.737   5.019
 6159TIP3   OH218433   3.463   6.689   6.137
 6159TIP3    H118434   3.381   6.655   6.100
 6159TIP3    H218435   3.513   6.610   6.159
 6160TIP3   OH218436   1.670   2.313   2.556
 6160TIP3    H118437   1.657   2.218   2.557
 6160TIP3    H218438   1.720   2.329   2.477
 6161TIP3   OH218439   5.055   1.372   4.466
 6161TIP3    H118440   5.113   1.445   4.447
 6161TIP3    H218441   4.995   1.405   4.532
 6162TIP3   OH218442   5.074   5.301   0.156
 6162TIP3    H118443   5.058   5.227   0.097
 6162TIP3    H218444   5.115   5.262   0.233
 6163TIP3   OH218445   5.619   2.798   4.230
 6163TIP3    H118446   5.585   2.798   4.319
 6163TIP3    H218447   5.706   2.759   4.237
 6164TIP3   OH218448   5.697   7.193   1.318
 6164TIP3    H118449   5.756   7.268   1.319
 6164TIP3    H218450   5.610   7.231   1.306
 6165TIP3   OH218451   4.262   1.519   4.990
 6165TIP3    H118452   4.352   1.489   5.000
 6165TIP3    H218453   4.209   1.442   5.007
 6166TIP3   OH218454   1.097   5.416   3.857
 6166TIP3    H118455   1.059   5.361   3.789
 6166TIP3    H218456   1.139   5.355   3.918
 6167TIP3   OH218457   0.424   3.520   6.725
 6167TIP3    H118458   0.465   3.603   6.748
 6167TIP3    H218459   0.477   3.486   6.653
 6168TIP3   OH218460   6.901   4.052   2.027
 6168TIP3    H118461   6.875   4.139   1.998
 6168TIP3    H218462   6.987   4.038   1.988
 6169TIP3   OH218463   1.485   1.198   1.557
 6169TIP3    H118464   1.418   1.264   1.542
 6169TIP3    H218465   1.446   1.116   1.527
 6170TIP3   OH218466   6.367   4.731   0.127
 6170TIP3    H118467   6.320   4.772   0.200
 6170TIP3    H218468   6.452   4.774   0.125
 6171TIP3   OH218469   0.789   6.897   5.859
 6171TIP3    H118470   0.832   6.947   5.790
 6171TIP3    H218471   0.711   6.948   5.881
 6172TIP3   OH218472   2.088   3.581   6.715
 6172TIP3    H118473   2.025   3.652   6.729
 6172TIP3    H218474   2.143   3.611   6.643
 6173TIP3   OH218475   6.794   0.090   0.654
 6173TIP3    H118476   6.701   0.111   0.642
 6173TIP3    H218477   6.805   0.005   0.613
 6174TIP3   OH218478   3.645   2.989   1.487
 6174TIP3    H118479   3.627   3.005   1.394
 6174TIP3    H218480   3.565   3.016   1.531
 6175TIP3   OH218481   5.412   1.222   2.374
 6175TIP3    H118482   5.410   1.137   2.331
 6175TIP3    H218483   5.494   1.222   2.424
 6176TIP3   OH218484   1.020   6.724   3.546
 6176TIP3    H118485   0.962   6.721   3.469
 6176TIP3    H218486   1.077   6.648   3.535
 6177TIP3   OH218487   4.095   5.547   3.279
 6177TIP3    H118488   4.096   5.606   3.355
 6177TIP3    H218489   4.038   5.475   3.305
 6178TIP3   OH218490   2.186   2.134   3.998
 6178TIP3    H118491   2.156   2.043   3.999
 6178TIP3    H218492   2.184   2.159   3.905
 6179TIP3   OH218493   1.676   1.355   6.528
 6179TIP3    H118494   1.627   1.395   6.599
 6179TIP3    H218495   1.622   1.371   6.450
 6180TIP3   OH218496   1.930   3.339   3.295
 6180TIP3    H118497   1.838   3.367   3.300
 6180TIP3    H218498   1.979   3.414   3.329
 6181TIP3   OH218499   0.578   6.075   1.574
 6181TIP3    H118500   0.550   6.002   1.630
 6181TIP3    H218501   0.530   6.151   1.609
 6182TIP3   OH218502   1.180   3.057   3.233
 6182TIP3    H118503   1.231   3.036   3.155
 6182TIP3    H218504   1.236   3.030   3.306
 6183TIP3   OH218505   5.853   4.043   2.854
 6183TIP3    H118506   5.788   4.065   2.788
 6183TIP3    H218507   5.841   3.949   2.870
 6184TIP3   OH218508   2.210   6.943   3.427
 6184TIP3    H118509   2.205   7.031   3.463
 6184TIP3    H218510   2.212   6.956   3.332
 6185TIP3   OH218511   8.010   6.098   1.175
 6185TIP3    H118512   7.936   6.127   1.228
 6185TIP3    H218513   7.971   6.068   1.093
 6186TIP3   OH218514   3.551   2.654   3.973
 6186TIP3    H118515   3.530   2.745   3.957
 6186TIP3    H218516   3.585   2.621   3.890
 6187TIP3   OH218517   0.455   1.776   3.967
 6187TIP3    H118518   0.402   1.723   3.908
 6187TIP3    H218519   0.445   1.734   4.052
 6188TIP3   OH218520   0.870   1.865   0.579
 6188TIP3    H118521   0.885   1.775   0.608
 6188TIP3    H218522   0.926   1.918   0.636
 6189TIP3   OH218523   6.226   3.687   4.134
 6189TIP3    H118524   6.315   3.699   4.165
 6189TIP3    H218525   6.215   3.592   4.129
 6190TIP3   OH218526   4.024   1.501   2.231
 6190TIP3    H118527   4.086   1.459   2.171
 6190TIP3    H218528   4.059   1.589   2.243
 6191TIP3   OH218529   7.507   1.513   1.790
 6191TIP3    H118530   7.534   1.558   1.870
 6191TIP3    H218531   7.457   1.578   1.741
 6192TIP3   OH218532   1.309   2.951   2.434
 6192TIP3    H118533   1.303   2.888   2.362
 6192TIP3    H218534   1.363   2.907   2.500
 6193TIP3   OH218535   5.274   7.823   5.726
 6193TIP3    H118536   5.334   7.752   5.746
 6193TIP3    H218537   5.225   7.836   5.808
 6194TIP3   OH218538   6.155   4.121   2.408
 6194TIP3    H118539   6.241   4.140   2.446
 6194TIP3    H218540   6.174   4.094   2.318
 6195TIP3   OH218541   4.986   0.872   6.321
 6195TIP3    H118542   4.926   0.807   6.358
 6195TIP3    H218543   5.071   0.828   6.318
 6196TIP3   OH218544   5.997   1.720   3.455
 6196TIP3    H118545   6.069   1.657   3.454
 6196TIP3    H218546   5.919   1.667   3.444
 6197TIP3   OH218547   8.116   1.648   0.195
 6197TIP3    H118548   8.106   1.721   0.134
 6197TIP3    H218549   8.127   1.571   0.138
 6198TIP3   OH218550   7.764   3.242   5.293
 6198TIP3    H118551   7.825   3.241   5.366
 6198TIP3    H218552   7.733   3.332   5.288
 6199TIP3   OH218553   4.484   3.992   4.785
 6199TIP3    H118554   4.554   3.933   4.757
 6199TIP3    H218555   4.524   4.045   4.854
 6200TIP3   OH218556   2.466   2.599   4.815
 6200TIP3    H118557   2.453   2.625   4.723
 6200TIP3    H218558   2.561   2.601   4.827
 6201TIP3   OH218559   3.416  -0.034   5.464
 6201TIP3    H118560   3.459  -0.015   5.381
 6201TIP3    H218561   3.418   0.049   5.512
 6202TIP3   OH218562   6.755   3.732   6.391
 6202TIP3    H118563   6.729   3.644   6.363
 6202TIP3    H218564   6.731   3.788   6.317
 6203TIP3   OH218565   3.837   1.328   1.754
 6203TIP3    H118566   3.903   1.371   1.700
 6203TIP3    H218567   3.867   1.237   1.761
 6204TIP3   OH218568   2.428   3.140   5.333
 6204TIP3    H118569   2.351   3.178   5.376
 6204TIP3    H218570   2.495   3.209   5.339
 6205TIP3   OH218571   8.187   5.232   3.270
 6205TIP3    H118572   8.119   5.290   3.305
 6205TIP3    H218573   8.175   5.149   3.316
 6206TIP3   OH218574   0.704   2.932   5.935
 6206TIP3    H118575   0.788   2.894   5.909
 6206TIP3    H218576   0.700   3.016   5.890
 6207TIP3   OH218577   2.732   7.434   0.251
 6207TIP3    H118578   2.682   7.352   0.257
 6207TIP3    H218579   2.820   7.410   0.280
 6208TIP3   OH218580   7.942   0.784   5.860
 6208TIP3    H118581   7.971   0.693   5.867
 6208TIP3    H218582   7.973   0.812   5.774
 6209TIP3   OH218583   7.913   2.193   0.048
 6209TIP3    H118584   7.889   2.201  -0.044
 6209TIP3    H218585   7.986   2.255   0.060
 6210TIP3   OH218586   3.175   1.439   5.978
 6210TIP3    H118587   3.250   1.494   6.001
 6210TIP3    H218588   3.198   1.402   5.892
 6211TIP3   OH218589   7.629   4.355   3.299
 6211TIP3    H118590   7.588   4.271   3.280
 6211TIP3    H218591   7.719   4.334   3.323
 6212TIP3   OH218592   0.277   3.915   3.764
 6212TIP3    H118593   0.234   3.981   3.711
 6212TIP3    H218594   0.210   3.849   3.780
 6213TIP3   OH218595   3.596   5.394   6.592
 6213TIP3    H118596   3.663   5.392   6.523
 6213TIP3    H218597   3.615   5.474   6.641
 6214TIP3   OH218598   5.350   6.007   3.550
 6214TIP3    H118599   5.313   5.919   3.557
 6214TIP3    H218600   5.309   6.057   3.621
 6215TIP3   OH218601   2.547   5.777   5.201
 6215TIP3    H118602   2.613   5.823   5.253
 6215TIP3    H218603   2.563   5.684   5.219
 6216TIP3   OH218604   3.815   0.922   0.873
 6216TIP3    H118605   3.773   0.941   0.789
 6216TIP3    H218606   3.757   0.857   0.913
 6217TIP3   OH218607   1.346   6.238   5.692
 6217TIP3    H118608   1.386   6.252   5.606
 6217TIP3    H218609   1.259   6.203   5.673
 6218TIP3   OH218610   4.389   4.968   5.507
 6218TIP3    H118611   4.297   4.988   5.489
 6218TIP3    H218612   4.413   5.028   5.578
 6219TIP3   OH218613   8.309   6.319   6.396
 6219TIP3    H118614   8.395   6.319   6.438
 6219TIP3    H218615   8.324   6.276   6.311
 6220TIP3   OH218616   7.813   0.988   2.181
 6220TIP3    H118617   7.751   1.039   2.129
 6220TIP3    H218618   7.761   0.954   2.254
 6221TIP3   OH218619   6.015   5.077   3.827
 6221TIP3    H118620   6.094   5.027   3.809
 6221TIP3    H218621   5.943   5.018   3.804
 6222TIP3   OH218622   0.763   2.076   4.213
 6222TIP3    H118623   0.856   2.080   4.235
 6222TIP3    H218624   0.749   1.986   4.183
 6223TIP3   OH218625   2.115   1.292   1.508
 6223TIP3    H118626   2.116   1.374   1.459
 6223TIP3    H218627   2.201   1.287   1.550
 6224TIP3   OH218628   3.434   1.492   1.908
 6224TIP3    H118629   3.396   1.502   1.996
 6224TIP3    H218630   3.408   1.404   1.881
 6225TIP3   OH218631   2.088   2.732   2.796
 6225TIP3    H118632   2.178   2.700   2.783
 6225TIP3    H218633   2.044   2.660   2.842
 6226TIP3   OH218634   0.098   1.099   1.299
 6226TIP3    H118635   0.154   1.135   1.230
 6226TIP3    H218636   0.113   1.004   1.294
 6227TIP3   OH218637   2.757   7.082   6.590
 6227TIP3    H118638   2.824   7.101   6.524
 6227TIP3    H218639   2.794   7.009   6.641
 6228TIP3   OH218640   5.105   7.214   4.340
 6228TIP3    H118641   5.086   7.134   4.389
 6228TIP3    H218642   5.055   7.206   4.259
 6229TIP3   OH218643   8.101   7.005   0.545
 6229TIP3    H118644   8.052   6.996   0.463
 6229TIP3    H218645   8.060   6.942   0.605
 6230TIP3   OH218646   7.706   5.949   4.209
 6230TIP3    H118647   7.759   5.885   4.161
 6230TIP3    H218648   7.729   6.033   4.171
 6231TIP3   OH218649   7.862   1.084   0.937
 6231TIP3    H118650   7.869   1.152   1.003
 6231TIP3    H218651   7.771   1.089   0.906
 6232TIP3   OH218652   0.387   6.313   5.375
 6232TIP3    H118653   0.462   6.337   5.431
 6232TIP3    H218654   0.352   6.233   5.415
 6233TIP3   OH218655   5.586   0.542   5.320
 6233TIP3    H118656   5.532   0.621   5.330
 6233TIP3    H218657   5.571   0.493   5.401
 6234TIP3   OH218658   6.991   2.367   2.547
 6234TIP3    H118659   6.955   2.314   2.618
 6234TIP3    H218660   7.063   2.315   2.512
 6235TIP3   OH218661   4.266   1.310   6.156
 6235TIP3    H118662   4.182   1.264   6.150
 6235TIP3    H218663   4.261   1.380   6.091
 6236TIP3   OH218664   2.303   3.515   1.169
 6236TIP3    H118665   2.237   3.505   1.100
 6236TIP3    H218666   2.280   3.448   1.233
 6237TIP3   OH218667   5.970   2.469   6.787
 6237TIP3    H118668   5.988   2.550   6.740
 6237TIP3    H218669   6.057   2.434   6.808
 6238TIP3   OH218670   3.146   4.518   3.880
 6238TIP3    H118671   3.215   4.453   3.867
 6238TIP3    H218672   3.162   4.552   3.968
 6239TIP3   OH218673   6.861   0.366   4.889
 6239TIP3    H118674   6.775   0.326   4.902
 6239TIP3    H218675   6.884   0.344   4.798
 6240TIP3   OH218676   5.948   7.305   5.289
 6240TIP3    H118677   5.938   7.376   5.352
 6240TIP3    H218678   6.043   7.290   5.284
 6241TIP3   OH218679   5.223   2.113   5.318
 6241TIP3    H118680   5.171   2.037   5.292
 6241TIP3    H218681   5.206   2.178   5.250
 6242TIP3   OH218682   4.804   2.497   5.732
 6242TIP3    H118683   4.874   2.562   5.744
 6242TIP3    H218684   4.844   2.414   5.759
 6243TIP3   OH218685   7.216   4.244   6.158
 6243TIP3    H118686   7.242   4.273   6.246
 6243TIP3    H218687   7.166   4.318   6.123
 6244TIP3   OH218688   7.785   7.393   2.753
 6244TIP3    H118689   7.864   7.420   2.706
 6244TIP3    H218690   7.789   7.297   2.753
 6245TIP3   OH218691   3.574   6.325   5.738
 6245TIP3    H118692   3.514   6.304   5.666
 6245TIP3    H218693   3.535   6.282   5.815
 6246TIP3   OH218694   4.740   1.890   3.405
 6246TIP3    H118695   4.659   1.840   3.409
 6246TIP3    H218696   4.781   1.877   3.490
 6247TIP3   OH218697   5.484   2.952   3.642
 6247TIP3    H118698   5.513   2.861   3.633
 6247TIP3    H218699   5.558   3.004   3.613
 6248TIP3   OH218700   5.485   2.335   0.909
 6248TIP3    H118701   5.417   2.275   0.941
 6248TIP3    H218702   5.440   2.390   0.846
 6249TIP3   OH218703   3.136   5.787   1.805
 6249TIP3    H118704   3.187   5.845   1.861
 6249TIP3    H218705   3.179   5.793   1.719
 6250TIP3   OH218706   7.662   1.964   4.182
 6250TIP3    H118707   7.737   1.941   4.126
 6250TIP3    H218708   7.600   1.893   4.170
 6251TIP3   OH218709   3.280   7.444   6.696
 6251TIP3    H118710   3.285   7.517   6.635
 6251TIP3    H218711   3.186   7.431   6.711
 6252TIP3   OH218712   1.104   4.190   0.103
 6252TIP3    H118713   1.199   4.196   0.090
 6252TIP3    H218714   1.095   4.144   0.187
 6253TIP3   OH218715   1.936   3.710   4.600
 6253TIP3    H118716   1.982   3.654   4.537
 6253TIP3    H218717   1.857   3.738   4.553
 6254TIP3   OH218718   6.697   0.801   2.716
 6254TIP3    H118719   6.743   0.847   2.785
 6254TIP3    H218720   6.728   0.710   2.722
 6255TIP3   OH218721   3.630   6.439   0.873
 6255TIP3    H118722   3.544   6.478   0.855
 6255TIP3    H218723   3.645   6.459   0.965
 6256TIP3   OH218724   2.498   1.064   1.865
 6256TIP3    H118725   2.404   1.047   1.870
 6256TIP3    H218726   2.532   0.992   1.811
 6257TIP3   OH218727   1.860   0.640   5.524
 6257TIP3    H118728   1.858   0.735   5.521
 6257TIP3    H218729   1.854   0.612   5.433
 6258TIP3   OH218730   0.965   4.319   6.297
 6258TIP3    H118731   0.894   4.259   6.273
 6258TIP3    H218732   0.957   4.391   6.235
 6259TIP3   OH218733   5.092   5.158   4.104
 6259TIP3    H118734   5.077   5.075   4.058
 6259TIP3    H218735   5.145   5.133   4.180
 6260TIP3   OH218736   2.562   7.179   4.480
 6260TIP3    H118737   2.486   7.128   4.449
 6260TIP3    H218738   2.590   7.134   4.559
 6261TIP3   OH218739   4.083   4.375   4.240
 6261TIP3    H118740   3.996   4.380   4.201
 6261TIP3    H218741   4.123   4.299   4.199
 6262TIP3   OH218742   8.111   0.878   0.488
 6262TIP3    H118743   8.199   0.912   0.466
 6262TIP3    H218744   8.067   0.871   0.403
 6263TIP3   OH218745   6.266   0.211   5.238
 6263TIP3    H118746   6.241   0.298   5.270
 6263TIP3    H218747   6.202   0.151   5.277
 6264TIP3   OH218748   7.929   4.982   3.843
 6264TIP3    H118749   7.892   4.981   3.931
 6264TIP3    H218750   7.925   4.890   3.814
 6265TIP3   OH218751   6.485   2.725   2.450
 6265TIP3    H118752   6.418   2.756   2.389
 6265TIP3    H218753   6.449   2.643   2.484
 6266TIP3   OH218754   6.431   3.131   3.301
 6266TIP3    H118755   6.441   3.195   3.231
 6266TIP3    H218756   6.337   3.115   3.305
 6267TIP3   OH218757   7.124   2.409   0.247
 6267TIP3    H118758   7.049   2.463   0.275
 6267TIP3    H218759   7.142   2.353   0.322
 6268TIP3   OH218760   2.052   5.006   5.281
 6268TIP3    H118761   2.109   5.020   5.356
 6268TIP3    H218762   2.110   4.970   5.214
 6269TIP3   OH218763   3.321   2.829   1.172
 6269TIP3    H118764   3.269   2.868   1.242
 6269TIP3    H218765   3.334   2.900   1.109
 6270TIP3   OH218766   2.458   0.328   1.268
 6270TIP3    H118767   2.502   0.307   1.350
 6270TIP3    H218768   2.457   0.246   1.219
 6271TIP3   OH218769   4.741   1.334   6.093
 6271TIP3    H118770   4.742   1.264   6.159
 6271TIP3    H218771   4.830   1.335   6.058
 6272TIP3   OH218772   4.859   0.129   5.463
 6272TIP3    H118773   4.932   0.083   5.423
 6272TIP3    H218774   4.899   0.204   5.508
 6273TIP3   OH218775   0.429   1.000   6.243
 6273TIP3    H118776   0.385   1.040   6.168
 6273TIP3    H218777   0.517   0.979   6.210
 6274TIP3   OH218778   7.769   6.903   5.234
 6274TIP3    H118779   7.840   6.880   5.294
 6274TIP3    H218780   7.757   6.997   5.248
 6275TIP3   OH218781   1.064   6.008   2.601
 6275TIP3    H118782   1.022   5.979   2.682
 6275TIP3    H218783   0.992   6.032   2.543
 6276TIP3   OH218784   2.819   2.539   1.938
 6276TIP3    H118785   2.843   2.491   1.858
 6276TIP3    H218786   2.786   2.623   1.907
 6277TIP3   OH218787   3.900   4.340   3.095
 6277TIP3    H118788   3.847   4.316   3.171
 6277TIP3    H218789   3.882   4.272   3.030
 6278TIP3   OH218790   2.962   3.284   3.164
 6278TIP3    H118791   3.017   3.269   3.241
 6278TIP3    H218792   2.872   3.272   3.196
 6279TIP3   OH218793   4.638   6.920   2.063
 6279TIP3    H118794   4.716   6.929   2.119
 6279TIP3    H218795   4.592   6.844   2.099
 6280TIP3   OH218796   6.712   4.448   1.583
 6280TIP3    H118797   6.743   4.362   1.553
 6280TIP3    H218798   6.789   4.485   1.627
 6281TIP3   OH218799   3.904   6.474   0.860
 6281TIP3    H118800   3.921   6.466   0.954
 6281TIP3    H218801   3.809   6.467   0.851
 6282TIP3   OH218802   8.246   3.045   6.536
 6282TIP3    H118803   8.228   2.955   6.564
 6282TIP3    H218804   8.218   3.048   6.444
 6283TIP3   OH218805   1.073   0.857   2.362
 6283TIP3    H118806   1.019   0.789   2.403
 6283TIP3    H218807   1.028   0.939   2.385
 6284TIP3   OH218808   0.303   1.222   1.657
 6284TIP3    H118809   0.305   1.220   1.562
 6284TIP3    H218810   0.217   1.259   1.679
 6285TIP3   OH218811   2.601   5.217   5.593
 6285TIP3    H118812   2.590   5.125   5.568
 6285TIP3    H218813   2.663   5.252   5.529
 6286TIP3   OH218814   7.414   1.488   2.078
 6286TIP3    H118815   7.330   1.524   2.050
 6286TIP3    H218816   7.395   1.396   2.099
 6287TIP3   OH218817   7.275   6.073   5.656
 6287TIP3    H118818   7.268   6.155   5.704
 6287TIP3    H218819   7.256   6.096   5.566
 6288TIP3   OH218820   6.525   7.537   1.610
 6288TIP3    H118821   6.594   7.502   1.554
 6288TIP3    H218822   6.507   7.624   1.574
 6289TIP3   OH218823   0.054   2.491   6.248
 6289TIP3    H118824   0.046   2.573   6.198
 6289TIP3    H218825   0.146   2.487   6.273
 6290TIP3   OH218826   7.591   1.185   2.365
 6290TIP3    H118827   7.596   1.199   2.271
 6290TIP3    H218828   7.676   1.213   2.399
 6291TIP3   OH218829   4.946   7.760   4.565
 6291TIP3    H118830   5.038   7.754   4.594
 6291TIP3    H218831   4.916   7.669   4.563
 6292TIP3   OH218832   7.949   7.859   4.502
 6292TIP3    H118833   7.911   7.799   4.438
 6292TIP3    H218834   7.874   7.903   4.541
 6293TIP3   OH218835   3.987   4.569   0.388
 6293TIP3    H118836   3.986   4.484   0.430
 6293TIP3    H218837   3.953   4.629   0.455
 6294TIP3   OH218838   5.157   3.195   0.597
 6294TIP3    H118839   5.140   3.107   0.631
 6294TIP3    H218840   5.129   3.191   0.505
 6295TIP3   OH218841   0.887   6.141   3.810
 6295TIP3    H118842   0.935   6.060   3.793
 6295TIP3    H218843   0.955   6.205   3.833
 6296TIP3   OH218844   5.419   7.728   4.349
 6296TIP3    H118845   5.401   7.635   4.338
 6296TIP3    H218846   5.485   7.731   4.418
 6297TIP3   OH218847   0.175   4.460   5.844
 6297TIP3    H118848   0.185   4.378   5.795
 6297TIP3    H218849   0.262   4.477   5.880
 6298TIP3   OH218850   2.461   5.471   0.081
 6298TIP3    H118851   2.518   5.468   0.004
 6298TIP3    H218852   2.442   5.564   0.093
 6299TIP3   OH218853   5.163   2.480   1.073
 6299TIP3    H118854   5.131   2.486   1.163
 6299TIP3    H218855   5.146   2.389   1.047
 6300TIP3   OH218856   4.465   1.620   5.180
 6300TIP3    H118857   4.524   1.548   5.200
 6300TIP3    H218858   4.378   1.584   5.196
 6301TIP3   OH218859   2.951   0.503   0.307
 6301TIP3    H118860   2.938   0.575   0.368
 6301TIP3    H218861   2.974   0.545   0.224
 6302TIP3   OH218862   5.996   0.787   4.396
 6302TIP3    H118863   5.921   0.757   4.345
 6302TIP3    H218864   5.998   0.882   4.384
 6303TIP3   OH218865   8.208   3.812   4.188
 6303TIP3    H118866   8.226   3.723   4.155
 6303TIP3    H218867   8.171   3.858   4.113
 6304TIP3   OH218868   1.351   3.593   3.354
 6304TIP3    H118869   1.400   3.655   3.300
 6304TIP3    H218870   1.409   3.518   3.364
 6305TIP3   OH218871   4.924   1.069   0.313
 6305TIP3    H118872   4.920   0.982   0.352
 6305TIP3    H218873   4.928   1.054   0.219
 6306TIP3   OH218874   2.864   4.459   0.201
 6306TIP3    H118875   2.918   4.393   0.157
 6306TIP3    H218876   2.922   4.535   0.210
 6307TIP3   OH218877   5.853   6.275   5.742
 6307TIP3    H118878   5.909   6.309   5.811
 6307TIP3    H218879   5.820   6.192   5.777
 6308TIP3   OH218880   4.858   0.682   1.297
 6308TIP3    H118881   4.903   0.610   1.253
 6308TIP3    H218882   4.798   0.717   1.230
 6309TIP3   OH218883   3.262   0.379   6.136
 6309TIP3    H118884   3.175   0.344   6.118
 6309TIP3    H218885   3.307   0.307   6.181
 6310TIP3   OH218886   7.772   5.376   0.603
 6310TIP3    H118887   7.788   5.468   0.585
 6310TIP3    H218888   7.855   5.332   0.582
 6311TIP3   OH218889   4.191   3.490   4.494
 6311TIP3    H118890   4.205   3.440   4.574
 6311TIP3    H218891   4.203   3.581   4.520
 6312TIP3   OH218892   3.426   4.241   6.114
 6312TIP3    H118893   3.393   4.330   6.097
 6312TIP3    H218894   3.467   4.215   6.031
 6313TIP3   OH218895   5.390   5.548   5.030
 6313TIP3    H118896   5.369   5.520   4.940
 6313TIP3    H218897   5.448   5.623   5.018
 6314TIP3   OH218898   4.897   3.121   5.997
 6314TIP3    H118899   4.859   3.037   5.969
 6314TIP3    H218900   4.956   3.098   6.069
 6315TIP3   OH218901   3.351   4.389   2.726
 6315TIP3    H118902   3.429   4.423   2.682
 6315TIP3    H218903   3.320   4.319   2.668
 6316TIP3   OH218904   1.104   3.670   4.124
 6316TIP3    H118905   1.063   3.663   4.037
 6316TIP3    H218906   1.190   3.709   4.107
 6317TIP3   OH218907   4.348   4.358   5.150
 6317TIP3    H118908   4.257   4.329   5.150
 6317TIP3    H218909   4.358   4.408   5.231
 6318TIP3   OH218910   4.128   6.320   0.857
 6318TIP3    H118911   4.053   6.376   0.835
 6318TIP3    H218912   4.167   6.361   0.934
 6319TIP3   OH218913   1.416   3.421   6.229
 6319TIP3    H118914   1.503   3.418   6.188
 6319TIP3    H218915   1.400   3.513   6.246
 6320TIP3   OH218916   4.624   1.534   6.253
 6320TIP3    H118917   4.662   1.527   6.341
 6320TIP3    H218918   4.681   1.481   6.198
 6321TIP3   OH218919   2.942   1.683   2.207
 6321TIP3    H118920   3.035   1.705   2.210
 6321TIP3    H218921   2.909   1.703   2.295
 6322TIP3   OH218922   6.949   5.967   0.492
 6322TIP3    H118923   7.041   5.987   0.509
 6322TIP3    H218924   6.945   5.872   0.491
 6323TIP3   OH218925   4.492   0.049   2.416
 6323TIP3    H118926   4.461   0.098   2.340
 6323TIP3    H218927   4.540   0.114   2.468
 6324TIP3   OH218928   2.287   2.547   3.906
 6324TIP3    H118929   2.348   2.614   3.937
 6324TIP3    H218930   2.324   2.464   3.935
 6325TIP3   OH218931   0.090   1.153   6.284
 6325TIP3    H118932   0.081   1.215   6.357
 6325TIP3    H218933   0.057   1.070   6.318
 6326TIP3   OH218934   5.220   2.889   4.996
 6326TIP3    H118935   5.241   2.953   4.928
 6326TIP3    H218936   5.209   2.940   5.076
 6327TIP3   OH218937   3.725   0.443   1.988
 6327TIP3    H118938   3.687   0.529   1.974
 6327TIP3    H218939   3.651   0.382   1.976
 6328TIP3   OH218940   7.381   3.635   0.082
 6328TIP3    H118941   7.306   3.668   0.034
 6328TIP3    H218942   7.424   3.713   0.116
 6329TIP3   OH218943   2.192   7.508   0.456
 6329TIP3    H118944   2.208   7.525   0.548
 6329TIP3    H218945   2.222   7.587   0.411
 6330TIP3   OH218946   1.214   2.156   4.585
 6330TIP3    H118947   1.280   2.114   4.639
 6330TIP3    H218948   1.132   2.145   4.633
 6331TIP3   OH218949   4.272   1.810   4.948
 6331TIP3    H118950   4.182   1.830   4.972
 6331TIP3    H218951   4.293   1.732   4.998
 6332TIP3   OH218952   4.605   3.020   2.347
 6332TIP3    H118953   4.607   2.939   2.399
 6332TIP3    H218954   4.534   3.006   2.284
 6333TIP3   OH218955   6.082   5.898   3.193
 6333TIP3    H118956   6.046   5.814   3.165
 6333TIP3    H218957   6.088   5.891   3.288
 6334TIP3   OH218958   0.223   2.012   2.509
 6334TIP3    H118959   0.169   2.045   2.437
 6334TIP3    H218960   0.160   1.996   2.580
 6335TIP3   OH218961   1.539   2.891   0.068
 6335TIP3    H118962   1.450   2.890   0.031
 6335TIP3    H218963   1.593   2.930  -0.001
 6336TIP3   OH218964   2.208   0.885   2.101
 6336TIP3    H118965   2.291   0.839   2.097
 6336TIP3    H218966   2.221   0.952   2.168
 6337TIP3   OH218967   2.498   6.773   2.339
 6337TIP3    H118968   2.545   6.804   2.417
 6337TIP3    H218969   2.432   6.840   2.323
 6338TIP3   OH218970   3.126   2.887   0.485
 6338TIP3    H118971   3.183   2.959   0.512
 6338TIP3    H218972   3.038   2.919   0.502
 6339TIP3   OH218973   0.459   2.416   4.279
 6339TIP3    H118974   0.430   2.489   4.224
 6339TIP3    H218975   0.434   2.338   4.231
 6340TIP3   OH218976   1.781   0.175   1.318
 6340TIP3    H118977   1.741   0.115   1.254
 6340TIP3    H218978   1.751   0.142   1.403
 6341TIP3   OH218979   3.276   4.291   2.306
 6341TIP3    H118980   3.228   4.349   2.248
 6341TIP3    H218981   3.343   4.346   2.346
 6342TIP3   OH218982   2.215   5.698   0.883
 6342TIP3    H118983   2.129   5.666   0.911
 6342TIP3    H218984   2.261   5.619   0.854
 6343TIP3   OH218985   3.164   0.972   1.946
 6343TIP3    H118986   3.088   0.915   1.959
 6343TIP3    H218987   3.174   1.018   2.029
 6344TIP3   OH218988   7.284   6.804  -0.003
 6344TIP3    H118989   7.355   6.868  -0.017
 6344TIP3    H218990   7.217   6.828  -0.067
 6345TIP3   OH218991   0.702   0.311   5.788
 6345TIP3    H118992   0.794   0.289   5.779
 6345TIP3    H218993   0.669   0.318   5.699
 6346TIP3   OH218994   4.764   3.975   5.802
 6346TIP3    H118995   4.729   3.961   5.890
 6346TIP3    H218996   4.837   3.914   5.795
 6347TIP3   OH218997   1.552   2.647   5.508
 6347TIP3    H118998   1.623   2.699   5.543
 6347TIP3    H218999   1.514   2.701   5.438
 6348TIP3   OH219000   0.722   0.983   0.181
 6348TIP3    H119001   0.694   1.049   0.245
 6348TIP3    H219002   0.718   1.028   0.097
 6349TIP3   OH219003   0.147   3.561   2.850
 6349TIP3    H119004   0.160   3.468   2.829
 6349TIP3    H219005   0.104   3.597   2.773
 6350TIP3   OH219006   0.708   5.142   5.768
 6350TIP3    H119007   0.712   5.236   5.786
 6350TIP3    H219008   0.615   5.120   5.769
 6351TIP3   OH219009   3.517   0.703   4.199
 6351TIP3    H119010   3.476   0.789   4.209
 6351TIP3    H219011   3.458   0.656   4.139
 6352TIP3   OH219012   0.609   2.332   5.128
 6352TIP3    H119013   0.635   2.253   5.081
 6352TIP3    H219014   0.520   2.351   5.097
 6353TIP3   OH219015   1.696   4.233   0.576
 6353TIP3    H119016   1.662   4.206   0.491
 6353TIP3    H219017   1.790   4.244   0.561
 6354TIP3   OH219018   7.176   3.706   4.795
 6354TIP3    H119019   7.132   3.778   4.748
 6354TIP3    H219020   7.156   3.723   4.887
 6355TIP3   OH219021   6.864   4.838   6.051
 6355TIP3    H119022   6.934   4.893   6.088
 6355TIP3    H219023   6.908   4.757   6.025
 6356TIP3   OH219024   7.016   7.775   0.936
 6356TIP3    H119025   6.977   7.744   1.018
 6356TIP3    H219026   6.985   7.714   0.869
 6357TIP3   OH219027   2.508   4.496   1.581
 6357TIP3    H119028   2.573   4.463   1.643
 6357TIP3    H219029   2.468   4.417   1.544
 6358TIP3   OH219030   2.788   1.224   4.231
 6358TIP3    H119031   2.753   1.203   4.318
 6358TIP3    H219032   2.710   1.244   4.178
 6359TIP3   OH219033   5.747   0.499   4.593
 6359TIP3    H119034   5.714   0.444   4.664
 6359TIP3    H219035   5.778   0.578   4.637
 6360TIP3   OH219036   3.990   3.194   1.108
 6360TIP3    H119037   4.071   3.241   1.128
 6360TIP3    H219038   3.923   3.241   1.156
 6361TIP3   OH219039   2.333   2.051   5.678
 6361TIP3    H119040   2.311   2.129   5.729
 6361TIP3    H219041   2.429   2.049   5.679
 6362TIP3   OH219042   2.225   2.694   5.297
 6362TIP3    H119043   2.317   2.714   5.313
 6362TIP3    H219044   2.185   2.779   5.279
 6363TIP3   OH219045   7.519   1.617   0.263
 6363TIP3    H119046   7.431   1.655   0.262
 6363TIP3    H219047   7.578   1.692   0.257
 6364TIP3   OH219048   3.352   1.319   5.420
 6364TIP3    H119049   3.366   1.316   5.515
 6364TIP3    H219050   3.277   1.377   5.409
 6365TIP3   OH219051   7.619   4.760   0.211
 6365TIP3    H119052   7.577   4.676   0.192
 6365TIP3    H219053   7.627   4.761   0.306
 6366TIP3   OH219054   6.906   0.652   3.855
 6366TIP3    H119055   6.924   0.618   3.942
 6366TIP3    H219056   6.992   0.658   3.813
 6367TIP3   OH219057   5.330   4.553   3.634
 6367TIP3    H119058   5.288   4.484   3.584
 6367TIP3    H219059   5.344   4.515   3.721
 6368TIP3   OH219060   6.369   4.774   3.743
 6368TIP3    H119061   6.381   4.680   3.730
 6368TIP3    H219062   6.274   4.786   3.738
 6369TIP3   OH219063   5.750   7.584   2.607
 6369TIP3    H119064   5.683   7.564   2.672
 6369TIP3    H219065   5.713   7.555   2.524
 6370TIP3   OH219066   1.851   7.054   5.487
 6370TIP3    H119067   1.881   7.104   5.564
 6370TIP3    H219068   1.931   7.018   5.449
 6371TIP3   OH219069  -0.018   5.037   5.881
 6371TIP3    H119070  -0.069   5.070   5.807
 6371TIP3    H219071  -0.081   4.989   5.934
 6372TIP3   OH219072   3.117   1.306   3.281
 6372TIP3    H119073   3.109   1.251   3.204
 6372TIP3    H219074   3.165   1.383   3.251
 6373TIP3   OH219075   2.265   7.355   3.792
 6373TIP3    H119076   2.307   7.304   3.860
 6373TIP3    H219077   2.283   7.446   3.816
 6374TIP3   OH219078   4.717   1.227   3.848
 6374TIP3    H119079   4.695   1.250   3.758
 6374TIP3    H219080   4.668   1.147   3.865
 6375TIP3   OH219081   3.961   4.666   5.507
 6375TIP3    H119082   3.916   4.750   5.510
 6375TIP3    H219083   4.019   4.666   5.583
 6376TIP3   OH219084   8.214   0.595   4.470
 6376TIP3    H119085   8.306   0.578   4.491
 6376TIP3    H219086   8.216   0.677   4.420
 6377TIP3   OH219087   6.827   0.104   4.123
 6377TIP3    H119088   6.882   0.032   4.091
 6377TIP3    H219089   6.846   0.177   4.065
 6378TIP3   OH219090   3.339   2.121   0.657
 6378TIP3    H119091   3.405   2.146   0.593
 6378TIP3    H219092   3.256   2.153   0.619
 6379TIP3   OH219093   1.677   7.509   1.457
 6379TIP3    H119094   1.613   7.574   1.426
 6379TIP3    H219095   1.755   7.560   1.476
 6380TIP3   OH219096   4.759   1.347   2.562
 6380TIP3    H119097   4.842   1.335   2.607
 6380TIP3    H219098   4.725   1.258   2.550
 6381TIP3   OH219099   5.539   4.844   1.106
 6381TIP3    H119100   5.522   4.807   1.019
 6381TIP3    H219101   5.466   4.814   1.160
 6382TIP3   OH219102   0.924   1.683   3.730
 6382TIP3    H119103   0.967   1.764   3.702
 6382TIP3    H219104   0.991   1.635   3.778
 6383TIP3   OH219105   1.278   3.375   4.692
 6383TIP3    H119106   1.324   3.296   4.722
 6383TIP3    H219107   1.185   3.356   4.708
 6384TIP3   OH219108   5.523   5.382   5.539
 6384TIP3    H119109   5.514   5.429   5.622
 6384TIP3    H219110   5.445   5.405   5.489
 6385TIP3   OH219111   3.559   6.327   6.407
 6385TIP3    H119112   3.582   6.262   6.341
 6385TIP3    H219113   3.483   6.372   6.370
 6386TIP3   OH219114   0.776   7.290   3.449
 6386TIP3    H119115   0.710   7.276   3.381
 6386TIP3    H219116   0.813   7.204   3.465
 6387TIP3   OH219117   6.956   5.939   5.590
 6387TIP3    H119118   7.020   5.888   5.542
 6387TIP3    H219119   6.912   5.992   5.524
 6388TIP3   OH219120   6.258   1.479   1.366
 6388TIP3    H119121   6.166   1.463   1.387
 6388TIP3    H219122   6.307   1.436   1.436
 6389TIP3   OH219123   5.587   6.671   3.333
 6389TIP3    H119124   5.507   6.626   3.304
 6389TIP3    H219125   5.609   6.628   3.416
 6390TIP3   OH219126   8.242   2.981   2.902
 6390TIP3    H119127   8.230   3.048   2.835
 6390TIP3    H219128   8.332   2.951   2.891
 6391TIP3   OH219129   1.953   0.526   2.598
 6391TIP3    H119130   1.888   0.467   2.637
 6391TIP3    H219131   2.015   0.542   2.669
 6392TIP3   OH219132   4.265   7.517   2.003
 6392TIP3    H119133   4.224   7.431   1.997
 6392TIP3    H219134   4.310   7.517   2.087
 6393TIP3   OH219135   3.396   7.079   3.853
 6393TIP3    H119136   3.413   7.164   3.892
 6393TIP3    H219137   3.375   7.022   3.927
 6394TIP3   OH219138   7.759   1.391   1.725
 6394TIP3    H119139   7.691   1.435   1.776
 6394TIP3    H219140   7.774   1.309   1.772
 6395TIP3   OH219141   2.040   6.510   0.461
 6395TIP3    H119142   2.024   6.421   0.430
 6395TIP3    H219143   1.955   6.538   0.495
 6396TIP3   OH219144   1.134   0.362   3.150
 6396TIP3    H119145   1.168   0.329   3.234
 6396TIP3    H219146   1.161   0.297   3.086
 6397TIP3   OH219147   5.995   2.773   2.154
 6397TIP3    H119148   6.007   2.796   2.062
 6397TIP3    H219149   6.002   2.678   2.156
 6398TIP3   OH219150   5.285   2.778   3.214
 6398TIP3    H119151   5.211   2.811   3.163
 6398TIP3    H219152   5.284   2.830   3.294
 6399TIP3   OH219153   4.162   6.043   1.553
 6399TIP3    H119154   4.237   6.103   1.557
 6399TIP3    H219155   4.125   6.045   1.641
 6400TIP3   OH219156   0.256   7.137   5.098
 6400TIP3    H119157   0.266   7.206   5.033
 6400TIP3    H219158   0.220   7.181   5.175
 6401TIP3   OH219159   8.128   0.048   0.834
 6401TIP3    H119160   8.121  -0.025   0.773
 6401TIP3    H219161   8.213   0.035   0.877
 6402TIP3   OH219162   4.434   3.155   5.248
 6402TIP3    H119163   4.361   3.216   5.242
 6402TIP3    H219164   4.507   3.201   5.208
 6403TIP3   OH219165   6.345   1.831   3.311
 6403TIP3    H119166   6.435   1.863   3.298
 6403TIP3    H219167   6.301   1.847   3.228
 6404TIP3   OH219168   5.977   5.903   4.850
 6404TIP3    H119169   5.983   5.814   4.816
 6404TIP3    H219170   5.884   5.925   4.843
 6405TIP3   OH219171   3.339   7.140   6.045
 6405TIP3    H119172   3.427   7.150   6.082
 6405TIP3    H219173   3.287   7.208   6.088
 6406TIP3   OH219174   2.881   1.235   3.396
 6406TIP3    H119175   2.954   1.275   3.349
 6406TIP3    H219176   2.888   1.141   3.375
 6407TIP3   OH219177   7.134   6.721   5.731
 6407TIP3    H119178   7.205   6.717   5.666
 6407TIP3    H219179   7.076   6.790   5.698
 6408TIP3   OH219180   3.292   6.222   3.722
 6408TIP3    H119181   3.354   6.285   3.684
 6408TIP3    H219182   3.344   6.141   3.731
 6409TIP3   OH219183   7.271   2.372   5.934
 6409TIP3    H119184   7.216   2.341   5.862
 6409TIP3    H219185   7.316   2.449   5.898
 6410TIP3   OH219186   6.095   5.912   0.568
 6410TIP3    H119187   6.123   6.002   0.555
 6410TIP3    H219188   6.136   5.885   0.650
 6411TIP3   OH219189   6.844   3.531   0.733
 6411TIP3    H119190   6.925   3.582   0.726
 6411TIP3    H219191   6.782   3.591   0.774
 6412TIP3   OH219192   1.271   3.541   1.775
 6412TIP3    H119193   1.232   3.598   1.708
 6412TIP3    H219194   1.202   3.530   1.840
 6413TIP3   OH219195   3.858   2.738   4.806
 6413TIP3    H119196   3.912   2.814   4.787
 6413TIP3    H219197   3.886   2.671   4.743
 6414TIP3   OH219198   8.302   0.843   0.123
 6414TIP3    H119199   8.283   0.860   0.216
 6414TIP3    H219200   8.233   0.783   0.095
 6415TIP3   OH219201   6.139   5.770   3.730
 6415TIP3    H119202   6.126   5.858   3.764
 6415TIP3    H219203   6.084   5.715   3.786
 6416TIP3   OH219204   2.616   4.063   2.138
 6416TIP3    H119205   2.579   4.115   2.068
 6416TIP3    H219206   2.690   4.017   2.098
 6417TIP3   OH219207   1.550   3.664   0.652
 6417TIP3    H119208   1.634   3.683   0.610
 6417TIP3    H219209   1.512   3.594   0.599
 6418TIP3   OH219210   8.246   4.761   0.096
 6418TIP3    H119211   8.341   4.769   0.108
 6418TIP3    H219212   8.235   4.743   0.003
 6419TIP3   OH219213   1.625   4.245   4.597
 6419TIP3    H119214   1.539   4.244   4.554
 6419TIP3    H219215   1.606   4.264   4.689
 6420TIP3   OH219216   1.358   0.414   2.306
 6420TIP3    H119217   1.434   0.360   2.327
 6420TIP3    H219218   1.310   0.421   2.388
 6421TIP3   OH219219   2.449   1.097   5.334
 6421TIP3    H119220   2.426   1.161   5.402
 6421TIP3    H219221   2.542   1.114   5.316
 6422TIP3   OH219222   4.738   4.552   0.390
 6422TIP3    H119223   4.706   4.587   0.473
 6422TIP3    H219224   4.778   4.626   0.345
 6423TIP3   OH219225   7.295   2.344   3.862
 6423TIP3    H119226   7.365   2.406   3.844
 6423TIP3    H219227   7.270   2.312   3.775
 6424TIP3   OH219228   2.413   7.752   0.501
 6424TIP3    H119229   2.462   7.671   0.510
 6424TIP3    H219230   2.472   7.820   0.533
 6425TIP3   OH219231   7.953   4.845   3.380
 6425TIP3    H119232   8.025   4.900   3.412
 6425TIP3    H219233   7.901   4.904   3.326
 6426TIP3   OH219234   5.327   5.700   3.290
 6426TIP3    H119235   5.270   5.642   3.341
 6426TIP3    H219236   5.291   5.788   3.306
 6427TIP3   OH219237   5.571   1.212   3.635
 6427TIP3    H119238   5.631   1.248   3.569
 6427TIP3    H219239   5.484   1.227   3.598
 6428TIP3   OH219240   5.079   2.918   0.665
 6428TIP3    H119241   5.150   2.884   0.611
 6428TIP3    H219242   5.002   2.915   0.608
 6429TIP3   OH219243   1.351   3.327   3.100
 6429TIP3    H119244   1.395   3.289   3.176
 6429TIP3    H219245   1.269   3.362   3.134
 6430TIP3   OH219246   5.901   3.123   5.708
 6430TIP3    H119247   5.827   3.092   5.655
 6430TIP3    H219248   5.881   3.094   5.797
 6431TIP3   OH219249   7.466   1.448   6.542
 6431TIP3    H119250   7.448   1.455   6.448
 6431TIP3    H219251   7.503   1.533   6.565
 6432TIP3   OH219252   3.531   0.341   5.248
 6432TIP3    H119253   3.552   0.327   5.340
 6432TIP3    H219254   3.554   0.432   5.232
 6433TIP3   OH219255   5.486   2.508   6.251
 6433TIP3    H119256   5.580   2.522   6.255
 6433TIP3    H219257   5.460   2.496   6.342
 6434TIP3   OH219258   0.900   0.217   1.482
 6434TIP3    H119259   0.949   0.234   1.563
 6434TIP3    H219260   0.919   0.125   1.461
 6435TIP3   OH219261   1.707   0.963   2.934
 6435TIP3    H119262   1.752   0.952   2.851
 6435TIP3    H219263   1.681   0.875   2.961
 6436TIP3   OH219264   6.868   3.435   6.523
 6436TIP3    H119265   6.847   3.341   6.520
 6436TIP3    H219266   6.785   3.477   6.546
 6437TIP3   OH219267   6.528   2.750   5.360
 6437TIP3    H119268   6.600   2.716   5.307
 6437TIP3    H219269   6.526   2.694   5.437
 6438TIP3   OH219270   1.473   1.184   2.161
 6438TIP3    H119271   1.443   1.221   2.077
 6438TIP3    H219272   1.547   1.128   2.137
 6439TIP3   OH219273   3.066   0.296   1.376
 6439TIP3    H119274   3.112   0.216   1.405
 6439TIP3    H219275   3.070   0.354   1.452
 6440TIP3   OH219276   4.252   3.498   0.603
 6440TIP3    H119277   4.328   3.461   0.558
 6440TIP3    H219278   4.184   3.500   0.537
 6441TIP3   OH219279   7.101   4.324   4.244
 6441TIP3    H119280   7.056   4.334   4.160
 6441TIP3    H219281   7.037   4.283   4.301
 6442TIP3   OH219282   3.588   3.048   1.228
 6442TIP3    H119283   3.557   3.137   1.209
 6442TIP3    H219284   3.668   3.039   1.177
 6443TIP3   OH219285   7.403   0.206   1.291
 6443TIP3    H119286   7.311   0.228   1.302
 6443TIP3    H219287   7.435   0.188   1.380
 6444TIP3   OH219288   1.805   2.516   5.155
 6444TIP3    H119289   1.736   2.498   5.218
 6444TIP3    H219290   1.776   2.596   5.110
 6445TIP3   OH219291   4.747   3.014   5.627
 6445TIP3    H119292   4.824   2.975   5.585
 6445TIP3    H219293   4.685   3.027   5.556
 6446TIP3   OH219294   0.076   6.895   0.733
 6446TIP3    H119295   0.142   6.855   0.678
 6446TIP3    H219296   0.000   6.837   0.727
 6447TIP3   OH219297   5.281   6.135   4.553
 6447TIP3    H119298   5.190   6.160   4.569
 6447TIP3    H219299   5.294   6.150   4.460
 6448TIP3   OH219300   1.160   0.132   0.045
 6448TIP3    H119301   1.102   0.138   0.121
 6448TIP3    H219302   1.113   0.075  -0.016
 6449TIP3   OH219303   4.997   3.594   1.654
 6449TIP3    H119304   5.025   3.560   1.569
 6449TIP3    H219305   5.078   3.611   1.701
 6450TIP3   OH219306   3.633   5.397   5.060
 6450TIP3    H119307   3.645   5.308   5.028
 6450TIP3    H219308   3.650   5.453   4.984
 6451TIP3   OH219309   6.805   6.607   2.478
 6451TIP3    H119310   6.718   6.641   2.499
 6451TIP3    H219311   6.847   6.678   2.429
 6452TIP3   OH219312   5.680   4.740   3.833
 6452TIP3    H119313   5.657   4.719   3.923
 6452TIP3    H219314   5.597   4.733   3.785
 6453TIP3   OH219315   2.010   6.040   6.215
 6453TIP3    H119316   1.937   6.057   6.157
 6453TIP3    H219317   2.073   5.992   6.162
 6454TIP3   OH219318   0.293   6.998   5.463
 6454TIP3    H119319   0.278   6.967   5.553
 6454TIP3    H219320   0.267   7.090   5.465
 6455TIP3   OH219321   8.031   3.390   4.526
 6455TIP3    H119322   8.078   3.469   4.500
 6455TIP3    H219323   8.083   3.317   4.492
 6456TIP3   OH219324   6.739   3.284   2.887
 6456TIP3    H119325   6.711   3.327   2.806
 6456TIP3    H219326   6.742   3.191   2.864
 6457TIP3   OH219327   1.072   4.693   1.884
 6457TIP3    H119328   0.979   4.687   1.903
 6457TIP3    H219329   1.108   4.742   1.958
 6458TIP3   OH219330   5.504   3.304   0.687
 6458TIP3    H119331   5.511   3.237   0.619
 6458TIP3    H219332   5.482   3.257   0.767
 6459TIP3   OH219333   5.596   5.132   4.066
 6459TIP3    H119334   5.587   5.124   4.161
 6459TIP3    H219335   5.630   5.047   4.037
 6460TIP3   OH219336   1.015   6.668   3.975
 6460TIP3    H119337   0.953   6.701   3.910
 6460TIP3    H219338   1.085   6.733   3.976
 6461TIP3   OH219339   3.336   3.561   2.595
 6461TIP3    H119340   3.351   3.492   2.530
 6461TIP3    H219341   3.326   3.515   2.678
 6462TIP3   OH219342   0.062   4.477   0.277
 6462TIP3    H119343   0.104   4.412   0.221
 6462TIP3    H219344   0.116   4.556   0.267
 6463TIP3   OH219345   4.503   4.586   2.169
 6463TIP3    H119346   4.491   4.640   2.091
 6463TIP3    H219347   4.592   4.607   2.199
 6464TIP3   OH219348   7.587   0.051   5.523
 6464TIP3    H119349   7.649   0.115   5.557
 6464TIP3    H219350   7.603   0.049   5.429
 6465TIP3   OH219351   7.629   0.249   0.919
 6465TIP3    H119352   7.611   0.192   0.993
 6465TIP3    H219353   7.704   0.210   0.875
 6466TIP3   OH219354   5.922   7.264   2.099
 6466TIP3    H119355   5.934   7.197   2.166
 6466TIP3    H219356   5.855   7.228   2.041
 6467TIP3   OH219357   3.045   1.969   0.965
 6467TIP3    H119358   3.014   1.957   0.875
 6467TIP3    H219359   3.024   2.060   0.986
 6468TIP3   OH219360   6.297   1.606   6.616
 6468TIP3    H119361   6.212   1.639   6.587
 6468TIP3    H219362   6.360   1.669   6.580
 6469TIP3   OH219363   2.884   6.981   1.708
 6469TIP3    H119364   2.906   7.037   1.633
 6469TIP3    H219365   2.842   7.040   1.770
 6470TIP3   OH219366   3.399   6.259   5.952
 6470TIP3    H119367   3.324   6.219   5.908
 6470TIP3    H219368   3.361   6.308   6.025
 6471TIP3   OH219369   3.754   4.854   4.088
 6471TIP3    H119370   3.727   4.776   4.136
 6471TIP3    H219371   3.796   4.821   4.009
 6472TIP3   OH219372   3.448   7.495   0.119
 6472TIP3    H119373   3.364   7.507   0.164
 6472TIP3    H219374   3.429   7.513   0.027
 6473TIP3   OH219375   1.630   4.426   3.172
 6473TIP3    H119376   1.641   4.366   3.098
 6473TIP3    H219377   1.563   4.488   3.143
 6474TIP3   OH219378   5.034   0.569   5.974
 6474TIP3    H119379   4.956   0.568   6.029
 6474TIP3    H219380   5.008   0.620   5.897
 6475TIP3   OH219381   3.817   4.123   6.512
 6475TIP3    H119382   3.809   4.175   6.592
 6475TIP3    H219383   3.797   4.033   6.540
 6476TIP3   OH219384   5.939   4.202   3.569
 6476TIP3    H119385   6.034   4.205   3.558
 6476TIP3    H219386   5.926   4.185   3.662
 6477TIP3   OH219387   3.663   2.303   3.489
 6477TIP3    H119388   3.742   2.321   3.541
 6477TIP3    H219389   3.610   2.248   3.546
 6478TIP3   OH219390   7.149   0.975   2.050
 6478TIP3    H119391   7.058   0.965   2.022
 6478TIP3    H219392   7.143   1.010   2.139
 6479TIP3   OH219393   5.262   0.372   4.342
 6479TIP3    H119394   5.229   0.283   4.356
 6479TIP3    H219395   5.269   0.409   4.430
 6480TIP3   OH219396   8.003   4.660   4.957
 6480TIP3    H119397   8.040   4.573   4.943
 6480TIP3    H219398   7.910   4.645   4.972
 6481TIP3   OH219399   4.387   3.413   0.026
 6481TIP3    H119400   4.377   3.463   0.107
 6481TIP3    H219401   4.299   3.380   0.006
 6482TIP3   OH219402   2.414   5.049   4.079
 6482TIP3    H119403   2.420   5.023   3.988
 6482TIP3    H219404   2.322   5.075   4.091
 6483TIP3   OH219405   2.009   3.643   6.011
 6483TIP3    H119406   2.043   3.554   6.023
 6483TIP3    H219407   2.012   3.682   6.098
 6484TIP3   OH219408   6.481   1.459   3.157
 6484TIP3    H119409   6.421   1.480   3.085
 6484TIP3    H219410   6.478   1.364   3.164
 6485TIP3   OH219411   2.710   3.199   1.759
 6485TIP3    H119412   2.621   3.194   1.723
 6485TIP3    H219413   2.697   3.199   1.854
 6486TIP3   OH219414   0.737   0.718   3.105
 6486TIP3    H119415   0.719   0.810   3.126
 6486TIP3    H219416   0.832   0.714   3.094
 6487TIP3   OH219417   1.750   2.858   4.630
 6487TIP3    H119418   1.718   2.805   4.557
 6487TIP3    H219419   1.791   2.934   4.589
 6488TIP3   OH219420   7.787   7.065   3.010
 6488TIP3    H119421   7.778   6.983   3.059
 6488TIP3    H219422   7.792   7.133   3.078
 6489TIP3   OH219423   2.256   3.339   3.238
 6489TIP3    H119424   2.238   3.398   3.311
 6489TIP3    H219425   2.259   3.396   3.161
 6490TIP3   OH219426   4.989   3.887   2.256
 6490TIP3    H119427   4.967   3.823   2.324
 6490TIP3    H219428   4.905   3.916   2.222
 6491TIP3   OH219429   7.411   6.632   4.986
 6491TIP3    H119430   7.502   6.647   5.013
 6491TIP3    H219431   7.389   6.546   5.022
 6492TIP3   OH219432   2.864   5.202   0.628
 6492TIP3    H119433   2.798   5.233   0.566
 6492TIP3    H219434   2.855   5.106   0.626
 6493TIP3   OH219435   0.690   0.659   1.757
 6493TIP3    H119436   0.766   0.633   1.705
 6493TIP3    H219437   0.622   0.595   1.735
 6494TIP3   OH219438   4.217   1.275   6.481
 6494TIP3    H119439   4.142   1.285   6.540
 6494TIP3    H219440   4.178   1.278   6.393
 6495TIP3   OH219441   2.489   4.792   1.966
 6495TIP3    H119442   2.491   4.779   1.871
 6495TIP3    H219443   2.579   4.819   1.988
 6496TIP3   OH219444   8.239   6.109   3.768
 6496TIP3    H119445   8.330   6.091   3.743
 6496TIP3    H219446   8.239   6.202   3.793
 6497TIP3   OH219447   5.698   4.919   6.452
 6497TIP3    H119448   5.690   4.923   6.548
 6497TIP3    H219449   5.774   4.973   6.432
 6498TIP3   OH219450   6.941   5.457   2.651
 6498TIP3    H119451   6.984   5.530   2.606
 6498TIP3    H219452   6.879   5.422   2.588
 6499TIP3   OH219453   1.173   7.346   6.475
 6499TIP3    H119454   1.233   7.419   6.457
 6499TIP3    H219455   1.179   7.332   6.569
 6500TIP3   OH219456   0.144   4.105   4.380
 6500TIP3    H119457   0.144   4.155   4.461
 6500TIP3    H219458   0.059   4.125   4.339
 6501TIP3   OH219459   6.652   6.425   6.261
 6501TIP3    H119460   6.641   6.455   6.351
 6501TIP3    H219461   6.643   6.504   6.208
 6502TIP3   OH219462   3.385   4.274   1.444
 6502TIP3    H119463   3.446   4.205   1.469
 6502TIP3    H219464   3.406   4.347   1.502
 6503TIP3   OH219465   2.443   2.938   0.758
 6503TIP3    H119466   2.374   2.886   0.799
 6503TIP3    H219467   2.407   2.962   0.672
 6504TIP3   OH219468   2.787   7.478   3.330
 6504TIP3    H119469   2.810   7.567   3.303
 6504TIP3    H219470   2.707   7.458   3.280
 6505TIP3   OH219471   0.329   2.441   6.369
 6505TIP3    H119472   0.421   2.441   6.343
 6505TIP3    H219473   0.294   2.359   6.334
 6506TIP3   OH219474   5.682   0.898   0.501
 6506TIP3    H119475   5.689   0.845   0.580
 6506TIP3    H219476   5.594   0.937   0.506
 6507TIP3   OH219477   6.804   7.162   5.033
 6507TIP3    H119478   6.769   7.153   4.944
 6507TIP3    H219479   6.889   7.118   5.029
 6508TIP3   OH219480   3.117   4.578   5.274
 6508TIP3    H119481   3.098   4.484   5.268
 6508TIP3    H219482   3.031   4.619   5.280
 6509TIP3   OH219483   0.897   6.397   1.984
 6509TIP3    H119484   0.813   6.432   1.955
 6509TIP3    H219485   0.927   6.343   1.911
 6510TIP3   OH219486   4.816   2.435   2.791
 6510TIP3    H119487   4.821   2.473   2.879
 6510TIP3    H219488   4.854   2.347   2.802
 6511TIP3   OH219489   5.438   1.178   3.324
 6511TIP3    H119490   5.368   1.198   3.386
 6511TIP3    H219491   5.399   1.197   3.238
 6512TIP3   OH219492   6.910   6.878   1.792
 6512TIP3    H119493   6.872   6.839   1.713
 6512TIP3    H219494   6.993   6.832   1.804
 6513TIP3   OH219495   7.527   0.474   0.330
 6513TIP3    H119496   7.588   0.527   0.381
 6513TIP3    H219497   7.441   0.508   0.352
 6514TIP3   OH219498   5.883   7.380   1.453
 6514TIP3    H119499   5.974   7.409   1.458
 6514TIP3    H219500   5.836   7.455   1.417
 6515TIP3   OH219501   6.202   0.496   5.412
 6515TIP3    H119502   6.168   0.562   5.352
 6515TIP3    H219503   6.295   0.488   5.389
 6516TIP3   OH219504   2.484   4.888   4.284
 6516TIP3    H119505   2.419   4.821   4.263
 6516TIP3    H219506   2.459   4.963   4.230
 6517TIP3   OH219507   4.861   2.580   0.797
 6517TIP3    H119508   4.957   2.584   0.797
 6517TIP3    H219509   4.841   2.487   0.781
 6518TIP3   OH219510   2.331   3.683   3.173
 6518TIP3    H119511   2.240   3.705   3.190
 6518TIP3    H219512   2.328   3.595   3.135
 6519TIP3   OH219513   1.035   5.904   4.676
 6519TIP3    H119514   1.020   5.998   4.668
 6519TIP3    H219515   0.982   5.865   4.606
 6520TIP3   OH219516   2.328   2.162   1.968
 6520TIP3    H119517   2.410   2.163   1.919
 6520TIP3    H219518   2.281   2.240   1.938
 6521TIP3   OH219519   7.982   7.400   1.783
 6521TIP3    H119520   8.052   7.338   1.802
 6521TIP3    H219521   7.983   7.409   1.688
 6522TIP3   OH219522   7.947   4.201   1.945
 6522TIP3    H119523   7.971   4.265   2.012
 6522TIP3    H219524   7.959   4.247   1.862
 6523TIP3   OH219525   7.156   5.588   0.706
 6523TIP3    H119526   7.181   5.619   0.619
 6523TIP3    H219527   7.225   5.619   0.764
 6524TIP3   OH219528   1.136   1.648   2.793
 6524TIP3    H119529   1.118   1.555   2.804
 6524TIP3    H219530   1.085   1.673   2.715
 6525TIP3   OH219531   5.956   1.531   4.151
 6525TIP3    H119532   5.882   1.562   4.098
 6525TIP3    H219533   6.011   1.484   4.088
 6526TIP3   OH219534   4.990   7.182   6.139
 6526TIP3    H119535   4.901   7.199   6.169
 6526TIP3    H219536   5.017   7.264   6.098
 6527TIP3   OH219537   6.178   2.598   5.566
 6527TIP3    H119538   6.192   2.619   5.474
 6527TIP3    H219539   6.100   2.650   5.590
 6528TIP3   OH219540   4.106   0.739   3.121
 6528TIP3    H119541   4.177   0.742   3.057
 6528TIP3    H219542   4.078   0.648   3.122
 6529TIP3   OH219543   2.858   4.235   5.010
 6529TIP3    H119544   2.876   4.141   5.005
 6529TIP3    H219545   2.772   4.241   5.050
 6530TIP3   OH219546   6.245   4.298   3.959
 6530TIP3    H119547   6.327   4.339   3.933
 6530TIP3    H219548   6.177   4.355   3.924
 6531TIP3   OH219549   2.786   7.108   4.136
 6531TIP3    H119550   2.760   7.184   4.084
 6531TIP3    H219551   2.875   7.129   4.166
 6532TIP3   OH219552   4.412   0.897   6.257
 6532TIP3    H119553   4.427   0.805   6.277
 6532TIP3    H219554   4.329   0.917   6.300
 6533TIP3   OH219555   0.637   5.825   2.758
 6533TIP3    H119556   0.600   5.746   2.797
 6533TIP3    H219557   0.637   5.809   2.664
 6534TIP3   OH219558   7.929   4.239   4.185
 6534TIP3    H119559   7.853   4.195   4.222
 6534TIP3    H219560   7.918   4.331   4.211
 6535TIP3   OH219561   4.471   3.717   0.064
 6535TIP3    H119562   4.400   3.707   0.127
 6535TIP3    H219563   4.492   3.811   0.066
 6536TIP3   OH219564   7.156   5.804   5.477
 6536TIP3    H119565   7.246   5.804   5.508
 6536TIP3    H219566   7.164   5.784   5.383
 6537TIP3   OH219567   5.637   5.125   5.565
 6537TIP3    H119568   5.582   5.097   5.638
 6537TIP3    H219569   5.606   5.213   5.544
 6538TIP3   OH219570   7.997   2.653   1.386
 6538TIP3    H119571   8.054   2.610   1.322
 6538TIP3    H219572   7.928   2.588   1.404
 6539TIP3   OH219573   7.802   6.647   3.519
 6539TIP3    H119574   7.878   6.606   3.479
 6539TIP3    H219575   7.727   6.599   3.483
 6540TIP3   OH219576   6.782   0.602   4.582
 6540TIP3    H119577   6.840   0.638   4.649
 6540TIP3    H219578   6.753   0.679   4.532
 6541TIP3   OH219579   2.018   1.984   0.547
 6541TIP3    H119580   2.109   2.014   0.549
 6541TIP3    H219581   2.002   1.964   0.454
 6542TIP3   OH219582   6.253   7.618   4.233
 6542TIP3    H119583   6.299   7.661   4.305
 6542TIP3    H219584   6.161   7.642   4.245
 6543TIP3   OH219585   6.192   5.288   1.311
 6543TIP3    H119586   6.104   5.306   1.346
 6543TIP3    H219587   6.211   5.362   1.254
 6544TIP3   OH219588   6.083   0.266   2.006
 6544TIP3    H119589   6.073   0.192   1.947
 6544TIP3    H219590   6.148   0.238   2.070
 6545TIP3   OH219591   5.329   7.442   2.424
 6545TIP3    H119592   5.330   7.527   2.466
 6545TIP3    H219593   5.253   7.397   2.461
 6546TIP3   OH219594   7.524   4.571   1.550
 6546TIP3    H119595   7.441   4.595   1.508
 6546TIP3    H219596   7.579   4.649   1.540
 6547TIP3   OH219597   7.430   0.714   3.799
 6547TIP3    H119598   7.430   0.620   3.782
 6547TIP3    H219599   7.439   0.722   3.894
 6548TIP3   OH219600   2.524   4.498   5.722
 6548TIP3    H119601   2.579   4.426   5.691
 6548TIP3    H219602   2.441   4.486   5.676
 6549TIP3   OH219603   0.721   0.770   3.610
 6549TIP3    H119604   0.812   0.785   3.583
 6549TIP3    H219605   0.671   0.835   3.559
 6550TIP3   OH219606   1.141   3.835   3.698
 6550TIP3    H119607   1.149   3.923   3.663
 6550TIP3    H219608   1.218   3.789   3.666
 6551TIP3   OH219609   7.923   5.693   3.763
 6551TIP3    H119610   7.999   5.637   3.750
 6551TIP3    H219611   7.926   5.756   3.691
 6552TIP3   OH219612   2.784   6.512   1.811
 6552TIP3    H119613   2.775   6.579   1.743
 6552TIP3    H219614   2.878   6.493   1.815
 6553TIP3   OH219615   0.537   5.117   6.197
 6553TIP3    H119616   0.552   5.180   6.268
 6553TIP3    H219617   0.598   5.046   6.215
 6554TIP3   OH219618   7.951   4.748   2.318
 6554TIP3    H119619   7.952   4.842   2.300
 6554TIP3    H219620   7.861   4.730   2.347
 6555TIP3   OH219621   3.088   6.315   4.837
 6555TIP3    H119622   3.171   6.272   4.815
 6555TIP3    H219623   3.081   6.386   4.773
 6556TIP3   OH219624   1.465   4.198   6.033
 6556TIP3    H119625   1.438   4.133   5.968
 6556TIP3    H219626   1.561   4.198   6.028
 6557TIP3   OH219627   1.801   5.022   0.571
 6557TIP3    H119628   1.887   5.052   0.601
 6557TIP3    H219629   1.750   5.011   0.651
 6558TIP3   OH219630   1.733   2.861   5.393
 6558TIP3    H119631   1.825   2.843   5.412
 6558TIP3    H219632   1.708   2.929   5.455
 6559TIP3   OH219633   6.434   5.719   4.044
 6559TIP3    H119634   6.343   5.702   4.070
 6559TIP3    H219635   6.476   5.633   4.046
 6560TIP3   OH219636   7.807   2.994   0.392
 6560TIP3    H119637   7.841   2.924   0.336
 6560TIP3    H219638   7.739   3.035   0.339
 6561TIP3   OH219639   6.256   0.826   2.595
 6561TIP3    H119640   6.265   0.919   2.576
 6561TIP3    H219641   6.199   0.823   2.672
 6562TIP3   OH219642   2.180   2.167   6.403
 6562TIP3    H119643   2.262   2.141   6.446
 6562TIP3    H219644   2.179   2.262   6.411
 6563TIP3   OH219645   6.514   0.707   3.795
 6563TIP3    H119646   6.427   0.714   3.754
 6563TIP3    H219647   6.524   0.789   3.843
 6564TIP3   OH219648   0.279   3.185   5.947
 6564TIP3    H119649   0.236   3.100   5.955
 6564TIP3    H219650   0.210   3.249   5.966
 6565TIP3   OH219651   6.034   6.928   4.592
 6565TIP3    H119652   5.961   6.939   4.652
 6565TIP3    H219653   6.022   6.996   4.526
 6566TIP3   OH219654   7.797   3.028   2.469
 6566TIP3    H119655   7.746   2.969   2.412
 6566TIP3    H219656   7.887   2.998   2.460
 6567TIP3   OH219657   4.043   2.014   5.222
 6567TIP3    H119658   4.131   2.051   5.215
 6567TIP3    H219659   4.023   2.018   5.316
 6568TIP3   OH219660   3.963   4.409   1.398
 6568TIP3    H119661   3.873   4.386   1.376
 6568TIP3    H219662   3.983   4.357   1.476
 6569TIP3   OH219663   3.450   1.320   5.671
 6569TIP3    H119664   3.361   1.288   5.681
 6569TIP3    H219665   3.451   1.405   5.714
 6570TIP3   OH219666   1.946   0.908   6.386
 6570TIP3    H119667   1.946   0.816   6.415
 6570TIP3    H219668   1.913   0.957   6.461
 6571TIP3   OH219669   3.109   1.168   0.846
 6571TIP3    H119670   3.017   1.145   0.863
 6571TIP3    H219671   3.106   1.226   0.770
 6572TIP3   OH219672   2.527   5.147   6.194
 6572TIP3    H119673   2.540   5.154   6.289
 6572TIP3    H219674   2.449   5.199   6.177
 6573TIP3   OH219675   7.439   1.082   5.721
 6573TIP3    H119676   7.469   1.100   5.632
 6573TIP3    H219677   7.515   1.101   5.776
 6574TIP3   OH219678   8.072   6.090   4.476
 6574TIP3    H119679   8.020   6.041   4.539
 6574TIP3    H219680   8.061   6.043   4.394
 6575TIP3   OH219681   2.895   7.205   2.826
 6575TIP3    H119682   2.916   7.277   2.766
 6575TIP3    H219683   2.869   7.249   2.907
 6576TIP3   OH219684   6.445   6.959   0.677
 6576TIP3    H119685   6.384   6.887   0.690
 6576TIP3    H219686   6.509   6.926   0.615
 6577TIP3   OH219687   5.304   4.346   1.216
 6577TIP3    H119688   5.265   4.401   1.284
 6577TIP3    H219689   5.321   4.407   1.144
 6578TIP3   OH219690   0.520   3.958   2.371
 6578TIP3    H119691   0.474   3.895   2.428
 6578TIP3    H219692   0.465   3.963   2.293
 6579TIP3   OH219693   6.452   3.943   6.057
 6579TIP3    H119694   6.471   4.017   6.000
 6579TIP3    H219695   6.356   3.936   6.057
 6580TIP3   OH219696   1.026   1.149   6.173
 6580TIP3    H119697   0.961   1.212   6.204
 6580TIP3    H219698   1.035   1.168   6.079
 6581TIP3   OH219699   7.732   7.391   2.066
 6581TIP3    H119700   7.738   7.390   1.970
 6581TIP3    H219701   7.695   7.476   2.087
 6582TIP3   OH219702   1.709   1.328   4.901
 6582TIP3    H119703   1.800   1.298   4.902
 6582TIP3    H219704   1.700   1.376   4.819
 6583TIP3   OH219705   5.043   3.216   2.715
 6583TIP3    H119706   4.995   3.238   2.635
 6583TIP3    H219707   5.053   3.121   2.711
 6584TIP3   OH219708   2.647   2.308   2.189
 6584TIP3    H119709   2.558   2.282   2.213
 6584TIP3    H219710   2.703   2.248   2.239
 6585TIP3   OH219711   3.174   4.458   4.445
 6585TIP3    H119712   3.130   4.505   4.374
 6585TIP3    H219713   3.204   4.528   4.504
 6586TIP3   OH219714   4.952   7.639   2.020
 6586TIP3    H119715   4.931   7.609   1.932
 6586TIP3    H219716   4.876   7.691   2.047
 6587TIP3   OH219717   3.360   7.703   3.463
 6587TIP3    H119718   3.334   7.761   3.535
 6587TIP3    H219719   3.315   7.739   3.386
 6588TIP3   OH219720   4.171   6.572   2.667
 6588TIP3    H119721   4.077   6.565   2.685
 6588TIP3    H219722   4.178   6.571   2.571
 6589TIP3   OH219723   2.222   3.064   2.745
 6589TIP3    H119724   2.217   3.021   2.830
 6589TIP3    H219725   2.137   3.046   2.705
 6590TIP3   OH219726   0.476   5.678   1.134
 6590TIP3    H119727   0.527   5.637   1.065
 6590TIP3    H219728   0.471   5.612   1.203
 6591TIP3   OH219729   0.303   7.197   2.437
 6591TIP3    H119730   0.212   7.207   2.409
 6591TIP3    H219731   0.305   7.236   2.525
 6592TIP3   OH219732   0.583   4.129   4.066
 6592TIP3    H119733   0.504   4.117   4.120
 6592TIP3    H219734   0.655   4.129   4.129
 6593TIP3   OH219735   4.342   4.987   0.444
 6593TIP3    H119736   4.411   4.950   0.498
 6593TIP3    H219737   4.331   4.925   0.372
 6594TIP3   OH219738   3.676   5.131   2.190
 6594TIP3    H119739   3.678   5.148   2.285
 6594TIP3    H219740   3.729   5.051   2.180
 6595TIP3   OH219741   7.053   6.922   2.370
 6595TIP3    H119742   7.070   6.829   2.379
 6595TIP3    H219743   7.032   6.952   2.458
 6596TIP3   OH219744   0.718   1.962   0.393
 6596TIP3    H119745   0.774   1.925   0.461
 6596TIP3    H219746   0.735   1.907   0.316
 6597TIP3   OH219747   4.423   2.077   4.027
 6597TIP3    H119748   4.398   2.049   4.115
 6597TIP3    H219749   4.452   1.997   3.983
 6598TIP3   OH219750   8.161   1.229   6.103
 6598TIP3    H119751   8.133   1.304   6.156
 6598TIP3    H219752   8.239   1.196   6.149
 6599TIP3   OH219753   5.149   1.487   6.498
 6599TIP3    H119754   5.132   1.404   6.543
 6599TIP3    H219755   5.101   1.552   6.550
 6600TIP3   OH219756   3.100   5.133   6.400
 6600TIP3    H119757   3.049   5.209   6.371
 6600TIP3    H219758   3.187   5.148   6.363
 6601TIP3   OH219759   4.876   7.540   0.226
 6601TIP3    H119760   4.916   7.482   0.161
 6601TIP3    H219761   4.843   7.614   0.175
 6602TIP3   OH219762   7.644   5.271   5.901
 6602TIP3    H119763   7.665   5.356   5.940
 6602TIP3    H219764   7.673   5.207   5.966
 6603TIP3   OH219765   7.254   0.409   5.684
 6603TIP3    H119766   7.166   0.382   5.660
 6603TIP3    H219767   7.245   0.446   5.772
 6604TIP3   OH219768   6.275   1.107   2.574
 6604TIP3    H119769   6.361   1.150   2.578
 6604TIP3    H219770   6.251   1.109   2.482
 6605TIP3   OH219771   7.302   1.502   0.928
 6605TIP3    H119772   7.352   1.421   0.916
 6605TIP3    H219773   7.248   1.509   0.849
 6606TIP3   OH219774   8.137   6.605   4.564
 6606TIP3    H119775   8.144   6.632   4.655
 6606TIP3    H219776   8.054   6.642   4.534
 6607TIP3   OH219777   1.220   6.901   4.021
 6607TIP3    H119778   1.196   6.993   4.031
 6607TIP3    H219779   1.220   6.886   3.927
 6608TIP3   OH219780   3.968   4.726   2.763
 6608TIP3    H119781   3.941   4.658   2.824
 6608TIP3    H219782   4.027   4.783   2.813
 6609TIP3   OH219783   5.657   7.461   5.763
 6609TIP3    H119784   5.607   7.402   5.819
 6609TIP3    H219785   5.699   7.404   5.698
 6610TIP3   OH219786   5.219   0.656   5.377
 6610TIP3    H119787   5.162   0.600   5.429
 6610TIP3    H219788   5.232   0.734   5.431
 6611TIP3   OH219789   5.204   0.887   5.198
 6611TIP3    H119790   5.193   0.799   5.233
 6611TIP3    H219791   5.294   0.889   5.164
 6612TIP3   OH219792   0.361   3.478   2.137
 6612TIP3    H119793   0.400   3.402   2.180
 6612TIP3    H219794   0.294   3.441   2.079
 6613TIP3   OH219795   7.486   7.742   2.450
 6613TIP3    H119796   7.418   7.675   2.454
 6613TIP3    H219797   7.444   7.818   2.410
 6614TIP3   OH219798   5.287   4.197   6.421
 6614TIP3    H119799   5.360   4.237   6.375
 6614TIP3    H219800   5.214   4.258   6.409
 6615TIP3   OH219801   5.738   6.980   1.136
 6615TIP3    H119802   5.699   6.915   1.193
 6615TIP3    H219803   5.742   7.060   1.189
 6616TIP3   OH219804   4.503   4.927   4.154
 6616TIP3    H119805   4.559   4.964   4.223
 6616TIP3    H219806   4.473   4.843   4.190
 6617TIP3   OH219807   3.123   7.664   3.672
 6617TIP3    H119808   3.121   7.741   3.615
 6617TIP3    H219809   3.083   7.694   3.754
 6618TIP3   OH219810   3.991   2.077   4.861
 6618TIP3    H119811   4.067   2.115   4.907
 6618TIP3    H219812   3.974   1.995   4.907
 6619TIP3   OH219813   0.722   3.353   2.133
 6619TIP3    H119814   0.693   3.311   2.214
 6619TIP3    H219815   0.642   3.364   2.081
 6620TIP3   OH219816   1.437   0.577   2.934
 6620TIP3    H119817   1.469   0.513   2.997
 6620TIP3    H219818   1.365   0.532   2.889
 6621TIP3   OH219819   0.446   0.640   5.638
 6621TIP3    H119820   0.366   0.621   5.687
 6621TIP3    H219821   0.448   0.573   5.569
 6622TIP3   OH219822   7.517   5.960   5.738
 6622TIP3    H119823   7.440   6.000   5.696
 6622TIP3    H219824   7.520   6.000   5.825
 6623TIP3   OH219825   2.001   4.367   5.697
 6623TIP3    H119826   1.923   4.379   5.644
 6623TIP3    H219827   1.972   4.316   5.772
 6624TIP3   OH219828   4.455   2.166   0.068
 6624TIP3    H119829   4.361   2.149   0.066
 6624TIP3    H219830   4.486   2.146  -0.021
 6625TIP3   OH219831   0.536   6.273   2.867
 6625TIP3    H119832   0.471   6.221   2.915
 6625TIP3    H219833   0.501   6.362   2.869
 6626TIP3   OH219834   5.067   2.847   6.654
 6626TIP3    H119835   5.143   2.803   6.616
 6626TIP3    H219836   5.102   2.889   6.733
 6627TIP3   OH219837   1.470   5.777   2.623
 6627TIP3    H119838   1.531   5.847   2.647
 6627TIP3    H219839   1.394   5.823   2.589
 6628TIP3   OH219840   4.298   2.931   6.371
 6628TIP3    H119841   4.283   2.905   6.462
 6628TIP3    H219842   4.366   2.871   6.340
 6629TIP3   OH219843   7.841   0.507   5.796
 6629TIP3    H119844   7.898   0.432   5.814
 6629TIP3    H219845   7.799   0.525   5.880
 6630TIP3   OH219846   1.901   4.115   5.235
 6630TIP3    H119847   1.854   4.114   5.318
 6630TIP3    H219848   1.889   4.027   5.200
 6631TIP3   OH219849   2.666   4.056   1.536
 6631TIP3    H119850   2.744   4.082   1.488
 6631TIP3    H219851   2.616   4.002   1.475
 6632TIP3   OH219852   4.511   0.730   0.269
 6632TIP3    H119853   4.551   0.817   0.277
 6632TIP3    H219854   4.430   0.736   0.320
 6633TIP3   OH219855   8.230   2.115   5.574
 6633TIP3    H119856   8.203   2.121   5.482
 6633TIP3    H219857   8.187   2.189   5.616
 6634TIP3   OH219858   3.858   7.020   1.786
 6634TIP3    H119859   3.846   7.114   1.800
 6634TIP3    H219860   3.858   6.982   1.874
 6635TIP3   OH219861   1.127   0.903   1.397
 6635TIP3    H119862   1.191   0.961   1.438
 6635TIP3    H219863   1.049   0.958   1.386
 6636TIP3   OH219864   4.310   2.519   6.000
 6636TIP3    H119865   4.397   2.489   5.972
 6636TIP3    H219866   4.317   2.615   6.001
 6637TIP3   OH219867   4.653   5.065   6.508
 6637TIP3    H119868   4.598   5.094   6.581
 6637TIP3    H219869   4.591   5.026   6.446
 6638TIP3   OH219870   1.983   3.208   3.055
 6638TIP3    H119871   2.062   3.154   3.057
 6638TIP3    H219872   1.974   3.239   3.145
 6639TIP3   OH219873   1.070   0.597   4.673
 6639TIP3    H119874   1.140   0.661   4.659
 6639TIP3    H219875   1.081   0.532   4.604
 6640TIP3   OH219876   5.691   2.576   0.842
 6640TIP3    H119877   5.712   2.484   0.827
 6640TIP3    H219878   5.677   2.613   0.755
 6641TIP3   OH219879   2.620   5.883   5.973
 6641TIP3    H119880   2.574   5.948   6.026
 6641TIP3    H219881   2.702   5.925   5.949
 6642TIP3   OH219882   3.518   5.793   1.168
 6642TIP3    H119883   3.499   5.805   1.261
 6642TIP3    H219884   3.609   5.819   1.158
 6643TIP3   OH219885   6.431   5.672   0.069
 6643TIP3    H119886   6.388   5.636  -0.009
 6643TIP3    H219887   6.361   5.716   0.117
 6644TIP3   OH219888   7.029   5.666   1.967
 6644TIP3    H119889   6.957   5.671   1.904
 6644TIP3    H219890   7.008   5.590   2.021
 6645TIP3   OH219891   6.361   0.601   0.210
 6645TIP3    H119892   6.395   0.689   0.198
 6645TIP3    H219893   6.421   0.544   0.162
 6646TIP3   OH219894   2.207   5.452   1.879
 6646TIP3    H119895   2.269   5.416   1.816
 6646TIP3    H219896   2.139   5.385   1.887
 6647TIP3   OH219897   2.350   4.771   0.444
 6647TIP3    H119898   2.441   4.745   0.458
 6647TIP3    H219899   2.327   4.733   0.359
 6648TIP3   OH219900   0.972   3.406   0.447
 6648TIP3    H119901   0.946   3.353   0.522
 6648TIP3    H219902   0.891   3.449   0.419
 6649TIP3   OH219903   3.404   1.819   2.414
 6649TIP3    H119904   3.394   1.763   2.491
 6649TIP3    H219905   3.469   1.774   2.360
 6650TIP3   OH219906   6.593   5.284   6.709
 6650TIP3    H119907   6.661   5.289   6.641
 6650TIP3    H219908   6.566   5.375   6.721
 6651TIP3   OH219909   4.705   3.701   2.677
 6651TIP3    H119910   4.696   3.636   2.747
 6651TIP3    H219911   4.687   3.652   2.596
 6652TIP3   OH219912   4.382   4.978   0.930
 6652TIP3    H119913   4.356   4.911   0.867
 6652TIP3    H219914   4.423   5.046   0.877
 6653TIP3   OH219915   7.847   0.701   6.183
 6653TIP3    H119916   7.861   0.759   6.108
 6653TIP3    H219917   7.814   0.758   6.252
 6654TIP3   OH219918   0.369   3.086   4.740
 6654TIP3    H119919   0.274   3.090   4.726
 6654TIP3    H219920   0.402   3.166   4.699
 6655TIP3   OH219921   4.672   4.884   6.230
 6655TIP3    H119922   4.602   4.946   6.251
 6655TIP3    H219923   4.645   4.802   6.272
 6656TIP3   OH219924   0.304   7.775   3.992
 6656TIP3    H119925   0.209   7.766   3.988
 6656TIP3    H219926   0.328   7.814   3.908
 6657TIP3   OH219927   3.852   7.503   5.285
 6657TIP3    H119928   3.870   7.561   5.358
 6657TIP3    H219929   3.779   7.448   5.315
 6658TIP3   OH219930   2.241   1.127   2.243
 6658TIP3    H119931   2.313   1.179   2.206
 6658TIP3    H219932   2.283   1.066   2.303
 6659TIP3   OH219933   3.976   2.658   0.596
 6659TIP3    H119934   3.985   2.582   0.539
 6659TIP3    H219935   4.045   2.647   0.661
 6660TIP3   OH219936   4.630   2.604   4.832
 6660TIP3    H119937   4.691   2.571   4.766
 6660TIP3    H219938   4.619   2.531   4.893
 6661TIP3   OH219939   0.067   3.931   0.142
 6661TIP3    H119940   0.056   3.836   0.135
 6661TIP3    H219941   0.058   3.962   0.052
 6662TIP3   OH219942   2.306   5.722   3.852
 6662TIP3    H119943   2.271   5.797   3.804
 6662TIP3    H219944   2.231   5.686   3.899
 6663TIP3   OH219945   2.557   4.836   6.345
 6663TIP3    H119946   2.503   4.796   6.276
 6663TIP3    H219947   2.647   4.822   6.314
 6664TIP3   OH219948   3.810   1.146   4.435
 6664TIP3    H119949   3.768   1.090   4.370
 6664TIP3    H219950   3.889   1.179   4.392
 6665TIP3   OH219951   1.364   4.076   2.433
 6665TIP3    H119952   1.296   4.025   2.388
 6665TIP3    H219953   1.422   4.106   2.363
 6666TIP3   OH219954   8.087   6.213   2.786
 6666TIP3    H119955   8.142   6.290   2.767
 6666TIP3    H219956   8.023   6.244   2.850
 6667TIP3   OH219957   2.317   7.550   4.218
 6667TIP3    H119958   2.409   7.573   4.234
 6667TIP3    H219959   2.271   7.634   4.225
 6668TIP3   OH219960   1.529   5.040   5.792
 6668TIP3    H119961   1.567   5.089   5.866
 6668TIP3    H219962   1.594   5.048   5.722
 6669TIP3   OH219963   3.139   4.509   0.448
 6669TIP3    H119964   3.167   4.490   0.537
 6669TIP3    H219965   3.144   4.605   0.441
 6670TIP3   OH219966   6.744   3.367  -0.045
 6670TIP3    H119967   6.665   3.371   0.009
 6670TIP3    H219968   6.777   3.278  -0.034
 6671TIP3   OH219969   4.620   2.852   3.985
 6671TIP3    H119970   4.578   2.904   3.917
 6671TIP3    H219971   4.625   2.764   3.948
 6672TIP3   OH219972   5.217   2.436   4.209
 6672TIP3    H119973   5.245   2.483   4.130
 6672TIP3    H219974   5.141   2.385   4.180
 6673TIP3   OH219975   7.758   5.167   6.716
 6673TIP3    H119976   7.667   5.152   6.689
 6673TIP3    H219977   7.777   5.093   6.774
 6674TIP3   OH219978   5.461   1.354   4.616
 6674TIP3    H119979   5.555   1.356   4.634
 6674TIP3    H219980   5.445   1.429   4.559
 6675TIP3   OH219981   7.385   4.028   3.982
 6675TIP3    H119982   7.325   4.096   3.954
 6675TIP3    H219983   7.379   4.028   4.077
 6676TIP3   OH219984   7.653   3.575   3.970
 6676TIP3    H119985   7.690   3.496   3.929
 6676TIP3    H219986   7.613   3.623   3.897
 6677TIP3   OH219987   7.119   5.461   5.018
 6677TIP3    H119988   7.160   5.389   4.971
 6677TIP3    H219989   7.184   5.488   5.082
 6678TIP3   OH219990   2.445   5.433   1.311
 6678TIP3    H119991   2.469   5.340   1.305
 6678TIP3    H219992   2.528   5.479   1.317
 6679TIP3   OH219993   4.463   2.664   2.514
 6679TIP3    H119994   4.441   2.580   2.474
 6679TIP3    H219995   4.399   2.674   2.585
 6680TIP3   OH219996   6.227   4.888   0.694
 6680TIP3    H119997   6.193   4.969   0.731
 6680TIP3    H219998   6.252   4.835   0.769
 6681TIP3   OH219999   4.142   6.827   0.378
 6681TIP3    H120000   4.116   6.739   0.405
 6681TIP3    H220001   4.127   6.882   0.455
 6682TIP3   OH220002   3.379   6.638   4.564
 6682TIP3    H120003   3.395   6.593   4.648
 6682TIP3    H220004   3.351   6.568   4.505
 6683TIP3   OH220005   6.192   1.797   0.754
 6683TIP3    H120006   6.274   1.836   0.783
 6683TIP3    H220007   6.129   1.870   0.755
 6684TIP3   OH220008   7.131   1.724   5.334
 6684TIP3    H120009   7.065   1.794   5.329
 6684TIP3    H220010   7.154   1.720   5.427
 6685TIP3   OH220011   7.057   6.231   1.836
 6685TIP3    H120012   6.997   6.279   1.894
 6685TIP3    H220013   7.064   6.144   1.875
 6686TIP3   OH220014   4.561   1.126   0.755
 6686TIP3    H120015   4.595   1.063   0.692
 6686TIP3    H220016   4.638   1.161   0.799
 6687TIP3   OH220017   4.131   6.144   2.902
 6687TIP3    H120018   4.036   6.147   2.916
 6687TIP3    H220019   4.142   6.093   2.822
 6688TIP3   OH220020   2.274   3.964   3.775
 6688TIP3    H120021   2.310   4.034   3.721
 6688TIP3    H220022   2.199   4.004   3.819
 6689TIP3   OH220023   8.008   1.273   0.408
 6689TIP3    H120024   8.049   1.288   0.493
 6689TIP3    H220025   7.948   1.347   0.397
 6690TIP3   OH220026   3.557   7.733   2.262
 6690TIP3    H120027   3.560   7.736   2.358
 6690TIP3    H220028   3.464   7.740   2.240
 6691TIP3   OH220029   6.376   4.256   3.586
 6691TIP3    H120030   6.389   4.241   3.492
 6691TIP3    H220031   6.463   4.246   3.624
 6692TIP3   OH220032   5.685   4.183   0.010
 6692TIP3    H120033   5.667   4.095   0.043
 6692TIP3    H220034   5.599   4.221  -0.007
 6693TIP3   OH220035   3.128   1.659   0.310
 6693TIP3    H120036   3.080   1.604   0.247
 6693TIP3    H220037   3.135   1.744   0.268
 6694TIP3   OH220038   1.164   0.934   5.446
 6694TIP3    H120039   1.167   1.007   5.509
 6694TIP3    H220040   1.146   0.857   5.499
 6695TIP3   OH220041   6.438   5.781   4.352
 6695TIP3    H120042   6.533   5.788   4.338
 6695TIP3    H220043   6.420   5.687   4.346
 6696TIP3   OH220044   5.501   5.862   4.168
 6696TIP3    H120045   5.440   5.928   4.135
 6696TIP3    H220046   5.465   5.779   4.140
 6697TIP3   OH220047   3.775   0.560   6.632
 6697TIP3    H120048   3.770   0.586   6.540
 6697TIP3    H220049   3.867   0.571   6.655
 6698TIP3   OH220050   4.634   4.226   5.365
 6698TIP3    H120051   4.559   4.187   5.319
 6698TIP3    H220052   4.710   4.196   5.317
 6699TIP3   OH220053   4.838   0.386   1.280
 6699TIP3    H120054   4.808   0.313   1.334
 6699TIP3    H220055   4.865   0.345   1.198
 6700TIP3   OH220056   2.664   0.259   0.740
 6700TIP3    H120057   2.702   0.347   0.738
 6700TIP3    H220058   2.675   0.226   0.651
 6701TIP3   OH220059   5.038   7.136   1.516
 6701TIP3    H120060   4.953   7.104   1.547
 6701TIP3    H220061   5.102   7.086   1.566
 6702TIP3   OH220062   0.442   1.473   5.383
 6702TIP3    H120063   0.456   1.481   5.478
 6702TIP3    H220064   0.352   1.500   5.370
 6703TIP3   OH220065   2.097   3.059   4.395
 6703TIP3    H120066   2.020   3.040   4.449
 6703TIP3    H220067   2.077   3.143   4.352
 6704TIP3   OH220068   4.392   0.328   0.723
 6704TIP3    H120069   4.367   0.259   0.783
 6704TIP3    H220070   4.333   0.401   0.742
 6705TIP3   OH220071   1.724   1.117   0.907
 6705TIP3    H120072   1.645   1.112   0.960
 6705TIP3    H220073   1.694   1.145   0.821
 6706TIP3   OH220074   4.131   1.719   0.047
 6706TIP3    H120075   4.168   1.790  -0.006
 6706TIP3    H220076   4.088   1.764   0.120
 6707TIP3   OH220077   8.111   3.147   0.607
 6707TIP3    H120078   8.031   3.178   0.565
 6707TIP3    H220079   8.146   3.081   0.548
 6708TIP3   OH220080   4.638   0.978   0.258
 6708TIP3    H120081   4.607   1.053   0.309
 6708TIP3    H220082   4.725   1.003   0.228
 6709TIP3   OH220083   2.085   1.960   5.563
 6709TIP3    H120084   2.016   2.027   5.556
 6709TIP3    H220085   2.154   2.003   5.614
 6710TIP3   OH220086   6.460   1.235   5.322
 6710TIP3    H120087   6.419   1.249   5.236
 6710TIP3    H220088   6.439   1.314   5.372
 6711TIP3   OH220089   0.916   2.183  -0.058
 6711TIP3    H120090   0.894   2.266  -0.100
 6711TIP3    H220091   0.934   2.206   0.033
 6712TIP3   OH220092   2.600   2.905   4.908
 6712TIP3    H120093   2.592   2.998   4.928
 6712TIP3    H220094   2.677   2.899   4.851
 6713TIP3   OH220095   1.053   6.815   2.414
 6713TIP3    H120096   1.116   6.844   2.347
 6713TIP3    H220097   1.108   6.772   2.480
 6714TIP3   OH220098   7.744   2.632   2.631
 6714TIP3    H120099   7.756   2.673   2.716
 6714TIP3    H220100   7.829   2.640   2.588
 6715TIP3   OH220101   3.547   4.049   4.126
 6715TIP3    H120102   3.552   4.046   4.030
 6715TIP3    H220103   3.465   4.096   4.144
 6716TIP3   OH220104   7.832   0.135   5.940
 6716TIP3    H120105   7.919   0.174   5.941
 6716TIP3    H220106   7.792   0.163   6.022
 6717TIP3   OH220107   2.416   5.719   5.609
 6717TIP3    H120108   2.335   5.770   5.605
 6717TIP3    H220109   2.410   5.658   5.536
 6718TIP3   OH220110   6.747   2.898   0.099
 6718TIP3    H120111   6.760   2.942   0.182
 6718TIP3    H220112   6.780   2.809   0.113
 6719TIP3   OH220113   2.007   2.628   1.868
 6719TIP3    H120114   1.999   2.648   1.774
 6719TIP3    H220115   1.921   2.648   1.904
 6720TIP3   OH220116   4.134   0.333   4.074
 6720TIP3    H120117   4.059   0.278   4.094
 6720TIP3    H220118   4.118   0.414   4.122
 6721TIP3   OH220119   5.287   6.321   0.465
 6721TIP3    H120120   5.318   6.344   0.552
 6721TIP3    H220121   5.233   6.396   0.438
 6722TIP3   OH220122   1.074   7.368   2.501
 6722TIP3    H120123   0.984   7.349   2.473
 6722TIP3    H220124   1.128   7.314   2.443
 6723TIP3   OH220125   4.151   6.090   2.050
 6723TIP3    H120126   4.170   6.073   2.142
 6723TIP3    H220127   4.184   6.178   2.035
 6724TIP3   OH220128   4.557   2.051   3.633
 6724TIP3    H120129   4.588   2.115   3.569
 6724TIP3    H220130   4.627   1.985   3.636
 6725TIP3   OH220131   8.126   3.203   0.209
 6725TIP3    H120132   8.190   3.262   0.170
 6725TIP3    H220133   8.052   3.259   0.233
 6726TIP3   OH220134   3.584   6.768   1.842
 6726TIP3    H120135   3.507   6.799   1.795
 6726TIP3    H220136   3.567   6.792   1.933
 6727TIP3   OH220137   0.791   6.454   3.436
 6727TIP3    H120138   0.839   6.405   3.369
 6727TIP3    H220139   0.804   6.546   3.412
 6728TIP3   OH220140   7.054   3.337   3.070
 6728TIP3    H120141   7.128   3.327   3.009
 6728TIP3    H220142   7.002   3.408   3.032
 6729TIP3   OH220143   1.864   0.500   1.701
 6729TIP3    H120144   1.858   0.543   1.616
 6729TIP3    H220145   1.841   0.409   1.684
 6730TIP3   OH220146   7.290   6.725   3.872
 6730TIP3    H120147   7.210   6.722   3.821
 6730TIP3    H220148   7.355   6.681   3.817
 6731TIP3   OH220149   5.097   4.931   1.078
 6731TIP3    H120150   5.122   5.020   1.101
 6731TIP3    H220151   5.001   4.932   1.079
 6732TIP3   OH220152   2.646   0.863   0.792
 6732TIP3    H120153   2.566   0.890   0.837
 6732TIP3    H220154   2.620   0.856   0.700
 6733TIP3   OH220155   1.377   7.820   4.618
 6733TIP3    H120156   1.393   7.887   4.551
 6733TIP3    H220157   1.283   7.823   4.634
 6734TIP3   OH220158   2.982   6.128   2.367
 6734TIP3    H120159   2.938   6.096   2.446
 6734TIP3    H220160   2.986   6.223   2.378
 6735TIP3   OH220161   0.258   4.983   4.236
 6735TIP3    H120162   0.171   4.993   4.274
 6735TIP3    H220163   0.318   5.015   4.303
 6736TIP3   OH220164   6.673   4.296   1.926
 6736TIP3    H120165   6.725   4.354   1.982
 6736TIP3    H220166   6.733   4.267   1.858
 6737TIP3   OH220167   4.666   4.864   5.672
 6737TIP3    H120168   4.714   4.912   5.740
 6737TIP3    H220169   4.664   4.924   5.597
 6738TIP3   OH220170   1.504   0.860   6.478
 6738TIP3    H120171   1.499   0.772   6.440
 6738TIP3    H220172   1.541   0.914   6.408
 6739TIP3   OH220173   2.609   6.134   1.943
 6739TIP3    H120174   2.586   6.102   2.031
 6739TIP3    H220175   2.572   6.222   1.940
 6740TIP3   OH220176   2.244   4.702   2.460
 6740TIP3    H120177   2.273   4.792   2.450
 6740TIP3    H220178   2.158   4.700   2.417
 6741TIP3   OH220179   7.169   2.901   0.184
 6741TIP3    H120180   7.145   2.918   0.276
 6741TIP3    H220181   7.197   2.986   0.151
 6742TIP3   OH220182   2.508   1.815   2.834
 6742TIP3    H120183   2.579   1.850   2.780
 6742TIP3    H220184   2.552   1.772   2.907
 6743TIP3   OH220185   2.844   6.499   3.718
 6743TIP3    H120186   2.921   6.540   3.758
 6743TIP3    H220187   2.792   6.572   3.685
 6744TIP3   OH220188   8.050   0.973   6.309
 6744TIP3    H120189   8.048   0.942   6.219
 6744TIP3    H220190   8.139   0.958   6.339
 6745TIP3   OH220191   3.438   0.775   3.005
 6745TIP3    H120192   3.370   0.757   2.940
 6745TIP3    H220193   3.438   0.870   3.014
 6746TIP3   OH220194   2.768   6.159   1.592
 6746TIP3    H120195   2.802   6.130   1.677
 6746TIP3    H220196   2.701   6.095   1.570
 6747TIP3   OH220197   0.292   6.535   2.040
 6747TIP3    H120198   0.198   6.527   2.023
 6747TIP3    H220199   0.331   6.548   1.954
 6748TIP3   OH220200   2.511   2.532   5.476
 6748TIP3    H120201   2.602   2.523   5.503
 6748TIP3    H220202   2.502   2.624   5.450
 6749TIP3   OH220203   3.006   7.703   2.626
 6749TIP3    H120204   2.980   7.787   2.664
 6749TIP3    H220205   2.949   7.692   2.550
 6750TIP3   OH220206   4.343   2.330   4.334
 6750TIP3    H120207   4.338   2.376   4.418
 6750TIP3    H220208   4.259   2.286   4.326
 6751TIP3   OH220209   1.835   5.362   5.234
 6751TIP3    H120210   1.897   5.372   5.162
 6751TIP3    H220211   1.890   5.346   5.311
 6752TIP3   OH220212   1.675   3.490   0.857
 6752TIP3    H120213   1.609   3.553   0.829
 6752TIP3    H220214   1.651   3.408   0.813
 6753TIP3   OH220215   7.873   3.552   1.076
 6753TIP3    H120216   7.960   3.537   1.113
 6753TIP3    H220217   7.813   3.508   1.136
 6754TIP3   OH220218   3.202   7.731   0.062
 6754TIP3    H120219   3.125   7.783   0.082
 6754TIP3    H220220   3.246   7.778  -0.008
 6755TIP3   OH220221   3.135   5.261   3.855
 6755TIP3    H120222   3.108   5.169   3.849
 6755TIP3    H220223   3.090   5.303   3.782
 6756TIP3   OH220224   4.027   3.677   3.216
 6756TIP3    H120225   4.067   3.590   3.222
 6756TIP3    H220226   3.988   3.691   3.302
 6757TIP3   OH220227   6.661   3.764   4.548
 6757TIP3    H120228   6.683   3.671   4.554
 6757TIP3    H220229   6.706   3.804   4.623
 6758TIP3   OH220230   4.797   3.311   1.169
 6758TIP3    H120231   4.800   3.271   1.256
 6758TIP3    H220232   4.842   3.249   1.112
 6759TIP3   OH220233   5.518   1.669   4.101
 6759TIP3    H120234   5.437   1.643   4.147
 6759TIP3    H220235   5.498   1.755   4.065
 6760TIP3   OH220236   4.640   5.724   4.582
 6760TIP3    H120237   4.705   5.709   4.650
 6760TIP3    H220238   4.566   5.764   4.627
 6761TIP3   OH220239   2.055   2.820   3.198
 6761TIP3    H120240   2.122   2.752   3.202
 6761TIP3    H220241   2.094   2.896   3.241
 6762TIP3   OH220242   1.056   2.233   5.219
 6762TIP3    H120243   1.072   2.277   5.136
 6762TIP3    H220244   1.128   2.262   5.276
 6763TIP3   OH220245   8.050   2.967   2.386
 6763TIP3    H120246   8.141   2.995   2.380
 6763TIP3    H220247   8.037   2.910   2.309
 6764TIP3   OH220248   3.239   2.570   2.205
 6764TIP3    H120249   3.274   2.556   2.292
 6764TIP3    H220250   3.179   2.496   2.191
 6765TIP3   OH220251   0.700   3.194   5.783
 6765TIP3    H120252   0.772   3.208   5.845
 6765TIP3    H220253   0.733   3.227   5.700
 6766TIP3   OH220254   7.133   2.349   4.143
 6766TIP3    H120255   7.218   2.353   4.188
 6766TIP3    H220256   7.151   2.380   4.054
 6767TIP3   OH220257   2.370   7.220   0.717
 6767TIP3    H120258   2.368   7.127   0.742
 6767TIP3    H220259   2.325   7.222   0.632
 6768TIP3   OH220260   1.167   4.729   3.591
 6768TIP3    H120261   1.109   4.749   3.665
 6768TIP3    H220262   1.107   4.702   3.521
 6769TIP3   OH220263   7.509   2.740   3.877
 6769TIP3    H120264   7.426   2.770   3.912
 6769TIP3    H220265   7.506   2.645   3.885
 6770TIP3   OH220266   3.544   4.189   4.926
 6770TIP3    H120267   3.555   4.272   4.880
 6770TIP3    H220268   3.628   4.174   4.970
 6771TIP3   OH220269   4.430   4.345   6.537
 6771TIP3    H120270   4.433   4.400   6.615
 6771TIP3    H220271   4.385   4.266   6.565
 6772TIP3   OH220272   0.724   5.192   0.924
 6772TIP3    H120273   0.723   5.240   1.006
 6772TIP3    H220274   0.638   5.150   0.920
 6773TIP3   OH220275   4.034   5.654   4.937
 6773TIP3    H120276   4.001   5.566   4.917
 6773TIP3    H220277   3.975   5.686   5.006
 6774TIP3   OH220278   0.058   7.628   6.229
 6774TIP3    H120279   0.076   7.713   6.187
 6774TIP3    H220280   0.026   7.651   6.316
 6775TIP3   OH220281   0.931   0.030   4.702
 6775TIP3    H120282   1.023   0.047   4.684
 6775TIP3    H220283   0.884   0.092   4.647
 6776TIP3   OH220284   4.800   1.094   1.817
 6776TIP3    H120285   4.817   1.026   1.882
 6776TIP3    H220286   4.834   1.174   1.856
 6777TIP3   OH220287   3.391   4.710   4.901
 6777TIP3    H120288   3.390   4.805   4.891
 6777TIP3    H220289   3.479   4.691   4.934
 6778TIP3   OH220290   6.308   2.146   1.159
 6778TIP3    H120291   6.374   2.097   1.110
 6778TIP3    H220292   6.327   2.238   1.140
 6779TIP3   OH220293   6.845   5.955   5.340
 6779TIP3    H120294   6.779   5.994   5.283
 6779TIP3    H220295   6.928   5.972   5.296
 6780TIP3   OH220296   7.721   5.948   2.287
 6780TIP3    H120297   7.640   5.914   2.249
 6780TIP3    H220298   7.749   6.017   2.228
 6781TIP3   OH220299   1.512   7.255   3.432
 6781TIP3    H120300   1.553   7.332   3.471
 6781TIP3    H220301   1.557   7.181   3.472
 6782TIP3   OH220302   0.276   0.545   5.070
 6782TIP3    H120303   0.201   0.603   5.063
 6782TIP3    H220304   0.312   0.542   4.981
 6783TIP3   OH220305   7.315   3.297   6.003
 6783TIP3    H120306   7.320   3.377   5.950
 6783TIP3    H220307   7.362   3.232   5.951
 6784TIP3   OH220308   7.137   6.897   0.244
 6784TIP3    H120309   7.101   6.875   0.330
 6784TIP3    H220310   7.212   6.838   0.234
 6785TIP3   OH220311   6.343   6.162   1.542
 6785TIP3    H120312   6.332   6.243   1.493
 6785TIP3    H220313   6.437   6.144   1.539
 6786TIP3   OH220314   1.329   4.270   0.459
 6786TIP3    H120315   1.420   4.297   0.474
 6786TIP3    H220316   1.328   4.177   0.480
 6787TIP3   OH220317   2.767   0.054   3.137
 6787TIP3    H120318   2.705   0.120   3.165
 6787TIP3    H220319   2.852   0.096   3.143
 6788TIP3   OH220320   7.541   0.656   0.660
 6788TIP3    H120321   7.511   0.565   0.661
 6788TIP3    H220322   7.636   0.650   0.652
 6789TIP3   OH220323   0.005   4.294   1.806
 6789TIP3    H120324   0.054   4.258   1.733
 6789TIP3    H220325  -0.073   4.332   1.766
 6790TIP3   OH220326   7.791   2.419   2.884
 6790TIP3    H120327   7.809   2.417   2.978
 6790TIP3    H220328   7.875   2.437   2.843
 6791TIP3   OH220329   4.497   2.127   2.414
 6791TIP3    H120330   4.591   2.143   2.400
 6791TIP3    H220331   4.490   2.032   2.422
 6792TIP3   OH220332   6.601   1.855   0.639
 6792TIP3    H120333   6.614   1.884   0.729
 6792TIP3    H220334   6.528   1.793   0.644
 6793TIP3   OH220335   4.634   5.659   0.320
 6793TIP3    H120336   4.708   5.598   0.331
 6793TIP3    H220337   4.631   5.708   0.402
 6794TIP3   OH220338   5.013   6.054   5.576
 6794TIP3    H120339   5.094   6.099   5.601
 6794TIP3    H220340   5.008   6.066   5.481
 6795TIP3   OH220341   0.182   2.360   1.790
 6795TIP3    H120342   0.269   2.388   1.818
 6795TIP3    H220343   0.143   2.437   1.750
 6796TIP3   OH220344   5.359   3.100   3.066
 6796TIP3    H120345   5.409   3.059   2.995
 6796TIP3    H220346   5.322   3.179   3.027
 6797TIP3   OH220347   2.819   3.441   4.469
 6797TIP3    H120348   2.798   3.512   4.409
 6797TIP3    H220349   2.822   3.482   4.555
 6798TIP3   OH220350   7.180   2.554   1.312
 6798TIP3    H120351   7.276   2.555   1.303
 6798TIP3    H220352   7.165   2.572   1.404
 6799TIP3   OH220353   1.526   1.424   1.028
 6799TIP3    H120354   1.489   1.422   1.116
 6799TIP3    H220355   1.584   1.500   1.027
 6800TIP3   OH220356   2.934   3.268   4.067
 6800TIP3    H120357   3.027   3.244   4.072
 6800TIP3    H220358   2.928   3.327   3.992
 6801TIP3   OH220359   3.503   7.393   6.129
 6801TIP3    H120360   3.411   7.419   6.131
 6801TIP3    H220361   3.510   7.326   6.198
 6802TIP3   OH220362   0.860   3.474   4.398
 6802TIP3    H120363   0.953   3.452   4.404
 6802TIP3    H220364   0.845   3.493   4.305
 6803TIP3   OH220365   6.948   1.747   3.656
 6803TIP3    H120366   6.899   1.681   3.607
 6803TIP3    H220367   6.909   1.745   3.744
 6804TIP3   OH220368   3.945   1.363   4.615
 6804TIP3    H120369   3.982   1.439   4.660
 6804TIP3    H220370   3.853   1.362   4.641
 6805TIP3   OH220371   5.713   0.744   3.831
 6805TIP3    H120372   5.776   0.785   3.890
 6805TIP3    H220373   5.631   0.792   3.845
 6806TIP3   OH220374   7.649   4.286   2.288
 6806TIP3    H120375   7.654   4.312   2.380
 6806TIP3    H220376   7.681   4.362   2.239
 6807TIP3   OH220377   1.619   5.040   0.810
 6807TIP3    H120378   1.545   5.002   0.858
 6807TIP3    H220379   1.688   4.974   0.817
 6808TIP3   OH220380   3.138   0.816   4.619
 6808TIP3    H120381   3.226   0.781   4.604
 6808TIP3    H220382   3.147   0.871   4.697
 6809TIP3   OH220383   1.585   7.236   1.139
 6809TIP3    H120384   1.655   7.189   1.184
 6809TIP3    H220385   1.582   7.196   1.052
 6810TIP3   OH220386   8.057   4.464   0.217
 6810TIP3    H120387   8.092   4.553   0.213
 6810TIP3    H220388   8.131   4.410   0.244
 6811TIP3   OH220389   0.034   7.452   6.044
 6811TIP3    H120390   0.028   7.512   6.118
 6811TIP3    H220391   0.117   7.473   6.002
 6812TIP3   OH220392   0.268   0.429   0.902
 6812TIP3    H120393   0.335   0.407   0.837
 6812TIP3    H220394   0.192   0.375   0.878
 6813TIP3   OH220395   6.296   1.147   1.454
 6813TIP3    H120396   6.286   1.093   1.532
 6813TIP3    H220397   6.254   1.230   1.477
 6814TIP3   OH220398   1.857   7.593   6.049
 6814TIP3    H120399   1.799   7.572   5.975
 6814TIP3    H220400   1.802   7.581   6.126
 6815TIP3   OH220401   7.874   0.100   2.995
 6815TIP3    H120402   7.788   0.104   3.037
 6815TIP3    H220403   7.932   0.063   3.061
 6816TIP3   OH220404   4.479   5.934   2.589
 6816TIP3    H120405   4.436   5.862   2.542
 6816TIP3    H220406   4.414   5.963   2.653
 6817TIP3   OH220407   6.123   6.632   2.327
 6817TIP3    H120408   6.172   6.666   2.252
 6817TIP3    H220409   6.119   6.705   2.389
 6818TIP3   OH220410   3.964   0.684   5.331
 6818TIP3    H120411   3.966   0.659   5.238
 6818TIP3    H220412   4.051   0.661   5.363
 6819TIP3   OH220413   1.644   3.768   1.059
 6819TIP3    H120414   1.723   3.797   1.105
 6819TIP3    H220415   1.669   3.684   1.020
 6820TIP3   OH220416   3.468   6.110   0.635
 6820TIP3    H120417   3.504   6.128   0.722
 6820TIP3    H220418   3.513   6.031   0.606
 6821TIP3   OH220419   1.952   0.083   0.946
 6821TIP3    H120420   2.036   0.055   0.909
 6821TIP3    H220421   1.911   0.134   0.877
 6822TIP3   OH220422   0.605   2.593   3.774
 6822TIP3    H120423   0.583   2.504   3.747
 6822TIP3    H220424   0.534   2.619   3.833
 6823TIP3   OH220425   3.117   7.628   4.086
 6823TIP3    H120426   3.203   7.590   4.103
 6823TIP3    H220427   3.131   7.722   4.084
 6824TIP3   OH220428   6.018   7.449   2.302
 6824TIP3    H120429   5.987   7.408   2.221
 6824TIP3    H220430   5.970   7.404   2.371
 6825TIP3   OH220431   3.309   6.969   4.108
 6825TIP3    H120432   3.354   7.025   4.171
 6825TIP3    H220433   3.255   6.911   4.162
 6826TIP3   OH220434   4.364   2.385   4.013
 6826TIP3    H120435   4.457   2.389   3.989
 6826TIP3    H220436   4.354   2.299   4.054
 6827TIP3   OH220437   6.206   3.599   2.924
 6827TIP3    H120438   6.198   3.641   3.010
 6827TIP3    H220439   6.297   3.615   2.898
 6828TIP3   OH220440   7.113   6.666   2.487
 6828TIP3    H120441   7.083   6.602   2.552
 6828TIP3    H220442   7.177   6.619   2.434
 6829TIP3   OH220443   5.380   1.203   1.969
 6829TIP3    H120444   5.465   1.167   1.993
 6829TIP3    H220445   5.331   1.128   1.934
 6830TIP3   OH220446   0.007   3.018   2.440
 6830TIP3    H120447   0.016   2.990   2.531
 6830TIP3    H220448   0.067   2.961   2.391
 6831TIP3   OH220449   6.802   4.317   2.583
 6831TIP3    H120450   6.867   4.387   2.575
 6831TIP3    H220451   6.839   4.243   2.535
 6832TIP3   OH220452   3.244   0.998   4.055
 6832TIP3    H120453   3.194   1.009   4.136
 6832TIP3    H220454   3.194   0.935   4.004
 6833TIP3   OH220455   0.469   7.184   6.449
 6833TIP3    H120456   0.551   7.224   6.476
 6833TIP3    H220457   0.401   7.244   6.480
 6834TIP3   OH220458   7.508   5.210   3.788
 6834TIP3    H120459   7.579   5.191   3.850
 6834TIP3    H220460   7.433   5.160   3.822
 6835TIP3   OH220461   7.134   4.805   0.488
 6835TIP3    H120462   7.077   4.856   0.546
 6835TIP3    H220463   7.151   4.864   0.415
 6836TIP3   OH220464   7.413   6.392   3.942
 6836TIP3    H120465   7.367   6.407   4.024
 6836TIP3    H220466   7.367   6.446   3.878
 6837TIP3   OH220467   5.352   2.149   3.323
 6837TIP3    H120468   5.316   2.148   3.412
 6837TIP3    H220469   5.410   2.225   3.322
 6838TIP3   OH220470   2.770   0.722   4.726
 6838TIP3    H120471   2.746   0.635   4.757
 6838TIP3    H220472   2.766   0.715   4.631
 6839TIP3   OH220473   3.078   7.685   6.286
 6839TIP3    H120474   3.021   7.692   6.209
 6839TIP3    H220475   3.062   7.766   6.335
 6840TIP3   OH220476   1.560   3.213   2.053
 6840TIP3    H120477   1.540   3.267   2.129
 6840TIP3    H220478   1.550   3.272   1.978
 6841TIP3   OH220479   0.651   5.845   2.438
 6841TIP3    H120480   0.579   5.887   2.390
 6841TIP3    H220481   0.621   5.755   2.450
 6842TIP3   OH220482   3.219   6.184   0.966
 6842TIP3    H120483   3.288   6.118   0.973
 6842TIP3    H220484   3.185   6.175   0.877
 6843TIP3   OH220485   1.460   2.253   2.088
 6843TIP3    H120486   1.383   2.206   2.119
 6843TIP3    H220487   1.534   2.197   2.111
 6844TIP3   OH220488   6.470   6.162   3.262
 6844TIP3    H120489   6.518   6.245   3.273
 6844TIP3    H220490   6.538   6.097   3.246
 6845TIP3   OH220491   7.719   5.082   1.078
 6845TIP3    H120492   7.670   5.061   1.157
 6845TIP3    H220493   7.811   5.071   1.103
 6846TIP3   OH220494   0.865   3.794   2.279
 6846TIP3    H120495   0.833   3.728   2.341
 6846TIP3    H220496   0.859   3.877   2.326
 6847TIP3   OH220497   3.414   1.590   1.296
 6847TIP3    H120498   3.487   1.648   1.314
 6847TIP3    H220499   3.454   1.504   1.283
 6848TIP3   OH220500   1.383   6.080   3.595
 6848TIP3    H120501   1.463   6.133   3.593
 6848TIP3    H220502   1.412   5.994   3.628
 6849TIP3   OH220503   6.447   2.139   2.955
 6849TIP3    H120504   6.358   2.153   2.925
 6849TIP3    H220505   6.439   2.083   3.032
 6850TIP3   OH220506   0.541   4.836   2.203
 6850TIP3    H120507   0.560   4.746   2.229
 6850TIP3    H220508   0.617   4.887   2.231
 6851TIP3   OH220509   2.717   1.851   4.605
 6851TIP3    H120510   2.773   1.856   4.527
 6851TIP3    H220511   2.647   1.790   4.580
 6852TIP3   OH220512   3.139   7.176   6.655
 6852TIP3    H120513   3.055   7.209   6.621
 6852TIP3    H220514   3.189   7.153   6.577
 6853TIP3   OH220515   5.161   0.693   6.189
 6853TIP3    H120516   5.256   0.684   6.179
 6853TIP3    H220517   5.126   0.673   6.102
 6854TIP3   OH220518   6.152   7.454   1.511
 6854TIP3    H120519   6.166   7.488   1.600
 6854TIP3    H220520   6.233   7.409   1.489
 6855TIP3   OH220521   2.928   3.613   4.664
 6855TIP3    H120522   3.018   3.636   4.640
 6855TIP3    H220523   2.881   3.697   4.662
 6856TIP3   OH220524   5.645   3.531   1.030
 6856TIP3    H120525   5.681   3.619   1.045
 6856TIP3    H220526   5.588   3.541   0.955
 6857TIP3   OH220527  -0.055   2.468   4.712
 6857TIP3    H120528   0.025   2.416   4.715
 6857TIP3    H220529  -0.026   2.558   4.729
 6858TIP3   OH220530   1.489   2.095   3.887
 6858TIP3    H120531   1.513   2.012   3.846
 6858TIP3    H220532   1.463   2.071   3.976
 6859TIP3   OH220533   6.008   4.322   6.003
 6859TIP3    H120534   5.946   4.349   5.935
 6859TIP3    H220535   5.960   4.334   6.085
 6860TIP3   OH220536   6.662   4.774   6.229
 6860TIP3    H120537   6.737   4.810   6.182
 6860TIP3    H220538   6.683   4.682   6.243
 6861TIP3   OH220539   4.663   2.920   3.657
 6861TIP3    H120540   4.728   2.956   3.597
 6861TIP3    H220541   4.669   2.825   3.645
 6862TIP3   OH220542   4.960   4.725   3.297
 6862TIP3    H120543   4.964   4.812   3.336
 6862TIP3    H220544   4.981   4.666   3.370
 6863TIP3   OH220545   0.951   5.404   3.379
 6863TIP3    H120546   1.006   5.449   3.443
 6863TIP3    H220547   0.985   5.315   3.377
 6864TIP3   OH220548   5.366   0.812   1.980
 6864TIP3    H120549   5.386   0.867   2.056
 6864TIP3    H220550   5.325   0.871   1.918
 6865TIP3   OH220551   1.974   4.961   5.966
 6865TIP3    H120552   1.940   4.972   6.054
 6865TIP3    H220553   1.988   4.867   5.957
 6866TIP3   OH220554   1.519   6.650   0.709
 6866TIP3    H120555   1.511   6.589   0.783
 6866TIP3    H220556   1.429   6.675   0.688
 6867TIP3   OH220557   0.344   5.217   4.657
 6867TIP3    H120558   0.362   5.238   4.748
 6867TIP3    H220559   0.304   5.296   4.621
 6868TIP3   OH220560   6.740   4.335   5.357
 6868TIP3    H120561   6.812   4.387   5.393
 6868TIP3    H220562   6.783   4.269   5.302
 6869TIP3   OH220563   1.375   3.404   4.267
 6869TIP3    H120564   1.286   3.405   4.302
 6869TIP3    H220565   1.373   3.340   4.196
 6870TIP3   OH220566   4.443   7.246   1.108
 6870TIP3    H120567   4.392   7.167   1.128
 6870TIP3    H220568   4.520   7.240   1.164
 6871TIP3   OH220569   4.256   0.354   5.439
 6871TIP3    H120570   4.266   0.297   5.515
 6871TIP3    H220571   4.293   0.304   5.366
 6872TIP3   OH220572   4.770   5.996   5.698
 6872TIP3    H120573   4.717   5.978   5.620
 6872TIP3    H220574   4.856   6.019   5.664
 6873TIP3   OH220575   3.622   7.117   4.943
 6873TIP3    H120576   3.718   7.121   4.943
 6873TIP3    H220577   3.595   7.208   4.940
 6874TIP3   OH220578   6.758   6.707   6.431
 6874TIP3    H120579   6.842   6.752   6.417
 6874TIP3    H220580   6.710   6.764   6.491
 6875TIP3   OH220581   6.681   4.200   3.934
 6875TIP3    H120582   6.708   4.141   3.863
 6875TIP3    H220583   6.633   4.144   3.995
 6876TIP3   OH220584   5.926   3.191   1.214
 6876TIP3    H120585   5.937   3.203   1.308
 6876TIP3    H220586   5.894   3.101   1.205
 6877TIP3   OH220587   1.281   5.393   0.379
 6877TIP3    H120588   1.244   5.463   0.432
 6877TIP3    H220589   1.334   5.438   0.313
 6878TIP3   OH220590   6.278   0.624   2.117
 6878TIP3    H120591   6.323   0.552   2.162
 6878TIP3    H220592   6.208   0.649   2.177
 6879TIP3   OH220593   1.221   3.357   2.678
 6879TIP3    H120594   1.170   3.438   2.670
 6879TIP3    H220595   1.269   3.351   2.595
 6880TIP3   OH220596   2.281   6.301   1.063
 6880TIP3    H120597   2.370   6.334   1.050
 6880TIP3    H220598   2.269   6.236   0.994
 6881TIP3   OH220599   6.074   5.217   4.950
 6881TIP3    H120600   6.139   5.160   4.908
 6881TIP3    H220601   6.119   5.252   5.027
 6882TIP3   OH220602   3.774   2.455   0.825
 6882TIP3    H120603   3.820   2.372   0.810
 6882TIP3    H220604   3.809   2.487   0.908
 6883TIP3   OH220605   0.903   2.778   2.239
 6883TIP3    H120606   0.922   2.860   2.193
 6883TIP3    H220607   0.868   2.806   2.324
 6884TIP3   OH220608   2.831   4.307   1.953
 6884TIP3    H120609   2.884   4.330   2.030
 6884TIP3    H220610   2.762   4.373   1.951
 6885TIP3   OH220611   5.119   4.535   0.675
 6885TIP3    H120612   5.079   4.595   0.613
 6885TIP3    H220613   5.049   4.474   0.699
 6886TIP3   OH220614   5.954   6.065   0.888
 6886TIP3    H120615   5.943   6.032   0.978
 6886TIP3    H220616   6.049   6.065   0.875
 6887TIP3   OH220617   4.258   3.033   1.676
 6887TIP3    H120618   4.334   3.063   1.626
 6887TIP3    H220619   4.246   2.942   1.650
 6888TIP3   OH220620   0.810   6.289   2.551
 6888TIP3    H120621   0.844   6.244   2.474
 6888TIP3    H220622   0.723   6.251   2.565
 6889TIP3   OH220623   4.960   1.445   4.714
 6889TIP3    H120624   5.033   1.501   4.742
 6889TIP3    H220625   4.882   1.494   4.738
 6890TIP3   OH220626   2.606   7.490   4.826
 6890TIP3    H120627   2.654   7.570   4.847
 6890TIP3    H220628   2.590   7.496   4.731
 6891TIP3   OH220629   7.577   4.105   3.140
 6891TIP3    H120630   7.623   4.030   3.178
 6891TIP3    H220631   7.645   4.156   3.096
 6892TIP3   OH220632   8.228   1.437   2.178
 6892TIP3    H120633   8.154   1.476   2.224
 6892TIP3    H220634   8.306   1.469   2.224
 6893TIP3   OH220635   2.152   7.205   3.593
 6893TIP3    H120636   2.162   7.249   3.678
 6893TIP3    H220637   2.216   7.249   3.536
 6894TIP3   OH220638   1.850   6.272   4.678
 6894TIP3    H120639   1.871   6.249   4.769
 6894TIP3    H220640   1.913   6.224   4.626
 6895TIP3   OH220641   6.496   5.459   0.208
 6895TIP3    H120642   6.467   5.375   0.172
 6895TIP3    H220643   6.489   5.520   0.135
 6896TIP3   OH220644   0.684   6.658   2.196
 6896TIP3    H120645   0.609   6.665   2.255
 6896TIP3    H220646   0.737   6.587   2.233
 6897TIP3   OH220647   5.669   4.683   5.705
 6897TIP3    H120648   5.672   4.773   5.674
 6897TIP3    H220649   5.755   4.648   5.683
 6898TIP3   OH220650   3.009   1.702   1.676
 6898TIP3    H120651   3.085   1.706   1.618
 6898TIP3    H220652   3.041   1.740   1.758
 6899TIP3   OH220653   1.849   2.120   0.718
 6899TIP3    H120654   1.910   2.078   0.658
 6899TIP3    H220655   1.804   2.186   0.664
 6900TIP3   OH220656   0.659   5.360   1.150
 6900TIP3    H120657   0.642   5.315   1.233
 6900TIP3    H220658   0.733   5.417   1.168
 6901TIP3   OH220659   2.806   1.092   0.207
 6901TIP3    H120660   2.874   1.158   0.223
 6901TIP3    H220661   2.851   1.020   0.164
 6902TIP3   OH220662   4.215   2.864   4.203
 6902TIP3    H120663   4.304   2.836   4.224
 6902TIP3    H220664   4.223   2.908   4.119
 6903TIP3   OH220665   5.404   1.768   0.507
 6903TIP3    H120666   5.463   1.785   0.581
 6903TIP3    H220667   5.404   1.850   0.457
 6904TIP3   OH220668   5.922   1.754   5.738
 6904TIP3    H120669   5.922   1.697   5.662
 6904TIP3    H220670   5.856   1.821   5.718
 6905TIP3   OH220671   2.479   6.012   6.576
 6905TIP3    H120672   2.451   5.950   6.508
 6905TIP3    H220673   2.469   6.098   6.535
 6906TIP3   OH220674   4.958   4.678   5.880
 6906TIP3    H120675   4.961   4.647   5.971
 6906TIP3    H220676   5.048   4.704   5.861
 6907TIP3   OH220677   6.715   1.203   2.360
 6907TIP3    H120678   6.625   1.191   2.389
 6907TIP3    H220679   6.747   1.114   2.345
 6908TIP3   OH220680   3.051   6.789   3.484
 6908TIP3    H120681   2.959   6.789   3.457
 6908TIP3    H220682   3.056   6.854   3.555
 6909TIP3   OH220683   4.518   5.121   6.269
 6909TIP3    H120684   4.472   5.122   6.185
 6909TIP3    H220685   4.574   5.199   6.266
 6910TIP3   OH220686   4.862   0.782   4.537
 6910TIP3    H120687   4.900   0.714   4.482
 6910TIP3    H220688   4.936   0.837   4.562
 6911TIP3   OH220689   7.701   6.259   0.062
 6911TIP3    H120690   7.657   6.234   0.143
 6911TIP3    H220691   7.720   6.176   0.018
 6912TIP3   OH220692   3.584   7.564   1.889
 6912TIP3    H120693   3.663   7.562   1.942
 6912TIP3    H220694   3.518   7.521   1.943
 6913TIP3   OH220695   2.419   5.338   4.948
 6913TIP3    H120696   2.450   5.320   4.859
 6913TIP3    H220697   2.473   5.281   5.003
 6914TIP3   OH220698   3.236   4.720   2.749
 6914TIP3    H120699   3.182   4.660   2.802
 6914TIP3    H220700   3.189   4.726   2.666
 6915TIP3   OH220701   7.097   3.362   6.326
 6915TIP3    H120702   7.185   3.324   6.319
 6915TIP3    H220703   7.038   3.294   6.295
 6916TIP3   OH220704   7.771   2.503   1.468
 6916TIP3    H120705   7.749   2.490   1.376
 6916TIP3    H220706   7.693   2.477   1.516
 6917TIP3   OH220707   2.975   0.751   1.877
 6917TIP3    H120708   2.911   0.690   1.841
 6917TIP3    H220709   2.936   0.779   1.961
 6918TIP3   OH220710   3.853   0.061   0.502
 6918TIP3    H120711   3.792   0.085   0.432
 6918TIP3    H220712   3.798   0.019   0.568
 6919TIP3   OH220713   2.365   2.001   6.535
 6919TIP3    H120714   2.435   1.969   6.477
 6919TIP3    H220715   2.408   2.019   6.618
 6920TIP3   OH220716   2.577   6.693   3.355
 6920TIP3    H120717   2.533   6.768   3.395
 6920TIP3    H220718   2.663   6.690   3.397
 6921TIP3   OH220719   0.483   7.389   4.971
 6921TIP3    H120720   0.416   7.450   4.941
 6921TIP3    H220721   0.511   7.424   5.055
 6922TIP3   OH220722   1.801   5.147   5.838
 6922TIP3    H120723   1.845   5.081   5.892
 6922TIP3    H220724   1.760   5.206   5.902
 6923TIP3   OH220725   7.514   5.746   2.256
 6923TIP3    H120726   7.448   5.771   2.320
 6923TIP3    H220727   7.567   5.680   2.301
 6924TIP3   OH220728   1.416   0.188   1.721
 6924TIP3    H120729   1.341   0.246   1.706
 6924TIP3    H220730   1.465   0.190   1.639
 6925TIP3   OH220731   0.109   6.959   2.884
 6925TIP3    H120732   0.084   7.012   2.809
 6925TIP3    H220733   0.177   6.900   2.851
 6926TIP3   OH220734   1.333   3.953   6.212
 6926TIP3    H120735   1.416   3.978   6.171
 6926TIP3    H220736   1.276   3.932   6.138
 6927TIP3   OH220737   2.780   2.650   5.418
 6927TIP3    H120738   2.838   2.678   5.489
 6927TIP3    H220739   2.791   2.718   5.351
 6928TIP3   OH220740   2.897   2.824   4.214
 6928TIP3    H120741   2.815   2.827   4.263
 6928TIP3    H220742   2.963   2.855   4.276
 6929TIP3   OH220743   8.196   3.711   1.460
 6929TIP3    H120744   8.211   3.764   1.538
 6929TIP3    H220745   8.108   3.676   1.470
 6930TIP3   OH220746   2.791   2.684   2.220
 6930TIP3    H120747   2.768   2.603   2.175
 6930TIP3    H220748   2.783   2.662   2.313
 6931TIP3   OH220749   2.743   7.605   1.759
 6931TIP3    H120750   2.721   7.630   1.849
 6931TIP3    H220751   2.661   7.577   1.720
 6932TIP3   OH220752   2.421   6.036   5.612
 6932TIP3    H120753   2.496   6.059   5.667
 6932TIP3    H220754   2.452   6.046   5.522
 6933TIP3   OH220755   4.181   1.433   1.946
 6933TIP3    H120756   4.124   1.447   1.870
 6933TIP3    H220757   4.209   1.342   1.939
 6934TIP3   OH220758   0.728   3.006   1.721
 6934TIP3    H120759   0.744   2.966   1.806
 6934TIP3    H220760   0.718   2.932   1.661
 6935TIP3   OH220761   4.538   4.991   2.753
 6935TIP3    H120762   4.586   5.000   2.671
 6935TIP3    H220763   4.596   5.027   2.819
 6936TIP3   OH220764   5.358   5.824   2.006
 6936TIP3    H120765   5.323   5.846   2.093
 6936TIP3    H220766   5.444   5.787   2.024
 6937TIP3   OH220767   4.286   6.232   5.981
 6937TIP3    H120768   4.240   6.285   5.916
 6937TIP3    H220769   4.294   6.290   6.057
 6938TIP3   OH220770   0.017   5.458   6.047
 6938TIP3    H120771   0.014   5.543   6.003
 6938TIP3    H220772   0.048   5.398   5.980
 6939TIP3   OH220773   1.070   6.851   5.644
 6939TIP3    H120774   1.111   6.901   5.715
 6939TIP3    H220775   1.027   6.778   5.688
 6940TIP3   OH220776   0.651   7.337   3.791
 6940TIP3    H120777   0.648   7.271   3.721
 6940TIP3    H220778   0.726   7.311   3.844
 6941TIP3   OH220779   4.080   4.815   6.128
 6941TIP3    H120780   4.136   4.878   6.172
 6941TIP3    H220781   4.060   4.749   6.195
 6942TIP3   OH220782   7.715   5.578   2.867
 6942TIP3    H120783   7.805   5.609   2.873
 6942TIP3    H220784   7.708   5.512   2.936
 6943TIP3   OH220785   8.172   6.989   5.649
 6943TIP3    H120786   8.222   6.933   5.589
 6943TIP3    H220787   8.092   6.940   5.667
 6944TIP3   OH220788   5.216   6.938   2.654
 6944TIP3    H120789   5.263   7.009   2.609
 6944TIP3    H220790   5.252   6.938   2.743
 6945TIP3   OH220791   6.206   3.069   1.272
 6945TIP3    H120792   6.146   3.111   1.333
 6945TIP3    H220793   6.180   3.102   1.186
 6946TIP3   OH220794   5.437   3.501   6.237
 6946TIP3    H120795   5.480   3.485   6.153
 6946TIP3    H220796   5.461   3.591   6.259
 6947TIP3   OH220797   6.338   0.857   6.090
 6947TIP3    H120798   6.253   0.825   6.121
 6947TIP3    H220799   6.373   0.906   6.165
 6948TIP3   OH220800   7.919   2.055   4.332
 6948TIP3    H120801   7.855   2.095   4.273
 6948TIP3    H220802   7.977   2.127   4.357
 6949TIP3   OH220803   3.955   3.553   6.089
 6949TIP3    H120804   3.929   3.644   6.107
 6949TIP3    H220805   4.049   3.552   6.104
 6950TIP3   OH220806   4.033   5.398   2.020
 6950TIP3    H120807   4.031   5.378   2.114
 6950TIP3    H220808   4.005   5.317   1.977
 6951TIP3   OH220809   7.025   6.534   2.738
 6951TIP3    H120810   6.945   6.585   2.727
 6951TIP3    H220811   7.059   6.559   2.824
 6952TIP3   OH220812   0.029   5.666   5.861
 6952TIP3    H120813   0.096   5.727   5.831
 6952TIP3    H220814  -0.054   5.711   5.844
 6953TIP3   OH220815   5.063   5.005   2.507
 6953TIP3    H120816   5.140   5.052   2.474
 6953TIP3    H220817   5.090   4.970   2.591
 6954TIP3   OH220818   4.647   0.972   6.428
 6954TIP3    H120819   4.569   0.956   6.374
 6954TIP3    H220820   4.625   1.051   6.479
 6955TIP3   OH220821   5.503   3.308   3.633
 6955TIP3    H120822   5.435   3.309   3.565
 6955TIP3    H220823   5.561   3.237   3.608
 6956TIP3   OH220824   2.460   4.328   6.039
 6956TIP3    H120825   2.462   4.241   5.997
 6956TIP3    H220826   2.368   4.339   6.064
 6957TIP3   OH220827   2.536   4.598   3.489
 6957TIP3    H120828   2.457   4.545   3.478
 6957TIP3    H220829   2.544   4.612   3.583
 6958TIP3   OH220830   4.287   4.206   1.289
 6958TIP3    H120831   4.280   4.124   1.240
 6958TIP3    H220832   4.373   4.201   1.332
 6959TIP3   OH220833   0.181   0.838   1.306
 6959TIP3    H120834   0.179   0.769   1.239
 6959TIP3    H220835   0.227   0.798   1.380
 6960TIP3   OH220836   7.352   3.895   1.780
 6960TIP3    H120837   7.342   3.857   1.692
 6960TIP3    H220838   7.446   3.914   1.787
 6961TIP3   OH220839   4.446   2.262   1.654
 6961TIP3    H120840   4.424   2.171   1.674
 6961TIP3    H220841   4.542   2.265   1.657
 6962TIP3   OH220842   2.925   2.917   3.783
 6962TIP3    H120843   2.880   2.863   3.719
 6962TIP3    H220844   2.883   2.896   3.866
 6963TIP3   OH220845   8.252   4.907   1.207
 6963TIP3    H120846   8.299   4.974   1.256
 6963TIP3    H220847   8.313   4.879   1.139
 6964TIP3   OH220848   4.407   2.785   4.914
 6964TIP3    H120849   4.477   2.732   4.877
 6964TIP3    H220850   4.330   2.763   4.862
 6965TIP3   OH220851   5.379   5.017   3.755
 6965TIP3    H120852   5.404   4.947   3.816
 6965TIP3    H220853   5.285   5.026   3.768
 6966TIP3   OH220854   2.444   2.055   5.105
 6966TIP3    H120855   2.373   2.039   5.043
 6966TIP3    H220856   2.511   1.990   5.082
 6967TIP3   OH220857   6.962   3.872   0.220
 6967TIP3    H120858   6.996   3.953   0.181
 6967TIP3    H220859   7.039   3.817   0.233
 6968TIP3   OH220860   2.950   5.586   3.942
 6968TIP3    H120861   3.000   5.589   3.861
 6968TIP3    H220862   2.866   5.627   3.920
 6969TIP3   OH220863   4.308   5.256   1.042
 6969TIP3    H120864   4.262   5.280   1.122
 6969TIP3    H220865   4.241   5.264   0.973
 6970TIP3   OH220866   8.091   7.281   6.425
 6970TIP3    H120867   8.030   7.353   6.441
 6970TIP3    H220868   8.110   7.245   6.512
 6971TIP3   OH220869   6.459   6.203   6.261
 6971TIP3    H120870   6.437   6.144   6.334
 6971TIP3    H220871   6.550   6.228   6.277
 6972TIP3   OH220872   5.792   5.109   0.042
 6972TIP3    H120873   5.723   5.124   0.106
 6972TIP3    H220874   5.862   5.065   0.092
 6973TIP3   OH220875   2.687   1.224   4.937
 6973TIP3    H120876   2.774   1.244   4.971
 6973TIP3    H220877   2.688   1.129   4.924
 6974TIP3   OH220878   4.248   4.930   3.187
 6974TIP3    H120879   4.158   4.900   3.168
 6974TIP3    H220880   4.303   4.856   3.162
 6975TIP3   OH220881   7.124   7.311   1.415
 6975TIP3    H120882   7.070   7.350   1.347
 6975TIP3    H220883   7.103   7.362   1.494
 6976TIP3   OH220884   5.902   0.310   2.403
 6976TIP3    H120885   5.865   0.393   2.432
 6976TIP3    H220886   5.829   0.249   2.403
 6977TIP3   OH220887   0.436   1.760   5.883
 6977TIP3    H120888   0.384   1.722   5.953
 6977TIP3    H220889   0.457   1.848   5.914
 6978TIP3   OH220890   2.167  -0.093   1.799
 6978TIP3    H120891   2.170  -0.044   1.717
 6978TIP3    H220892   2.216  -0.039   1.861
 6979TIP3   OH220893   2.531   6.128   2.469
 6979TIP3    H120894   2.514   6.157   2.559
 6979TIP3    H220895   2.552   6.209   2.422
 6980TIP3   OH220896   3.375   0.388   6.476
 6980TIP3    H120897   3.304   0.348   6.526
 6980TIP3    H220898   3.442   0.409   6.542
 6981TIP3   OH220899   0.061   0.201   3.755
 6981TIP3    H120900   0.045   0.199   3.849
 6981TIP3    H220901   0.154   0.177   3.746
 6982TIP3   OH220902   3.980   3.628   4.866
 6982TIP3    H120903   3.888   3.604   4.876
 6982TIP3    H220904   3.979   3.717   4.833
 6983TIP3   OH220905   3.129   6.503   6.801
 6983TIP3    H120906   3.116   6.598   6.796
 6983TIP3    H220907   3.099   6.470   6.716
 6984TIP3   OH220908   2.084   7.087   4.070
 6984TIP3    H120909   2.071   7.164   4.014
 6984TIP3    H220910   2.005   7.081   4.123
 6985TIP3   OH220911   3.829   7.394   3.898
 6985TIP3    H120912   3.872   7.479   3.897
 6985TIP3    H220913   3.794   7.384   3.809
 6986TIP3   OH220914   6.101   6.016   4.160
 6986TIP3    H120915   6.078   5.939   4.108
 6986TIP3    H220916   6.023   6.035   4.212
 6987TIP3   OH220917   2.195   3.115   1.802
 6987TIP3    H120918   2.239   3.187   1.847
 6987TIP3    H220919   2.142   3.074   1.869
 6988TIP3   OH220920   5.902   6.127   0.176
 6988TIP3    H120921   5.841   6.083   0.235
 6988TIP3    H220922   5.853   6.138   0.095
 6989TIP3   OH220923   1.181   3.099   2.763
 6989TIP3    H120924   1.180   3.194   2.747
 6989TIP3    H220925   1.115   3.064   2.703
 6990TIP3   OH220926   1.593   2.033   1.334
 6990TIP3    H120927   1.499   2.022   1.320
 6990TIP3    H220928   1.602   2.047   1.428
 6991TIP3   OH220929   1.986   1.675   0.494
 6991TIP3    H120930   1.959   1.713   0.578
 6991TIP3    H220931   2.082   1.677   0.496
 6992TIP3   OH220932   1.356   1.074   6.593
 6992TIP3    H120933   1.336   1.027   6.512
 6992TIP3    H220934   1.447   1.102   6.583
 6993TIP3   OH220935   6.131   5.458   0.441
 6993TIP3    H120936   6.172   5.382   0.483
 6993TIP3    H220937   6.199   5.525   0.443
 6994TIP3   OH220938   3.486   3.651   1.823
 6994TIP3    H120939   3.407   3.603   1.799
 6994TIP3    H220940   3.500   3.630   1.915
 6995TIP3   OH220941   8.148   1.657   1.047
 6995TIP3    H120942   8.054   1.640   1.049
 6995TIP3    H220943   8.188   1.570   1.042
 6996TIP3   OH220944   5.836   5.817   0.525
 6996TIP3    H120945   5.856   5.759   0.451
 6996TIP3    H220946   5.917   5.866   0.538
 6997TIP3   OH220947   5.472   2.771   3.014
 6997TIP3    H120948   5.555   2.757   3.060
 6997TIP3    H220949   5.408   2.786   3.083
 6998TIP3   OH220950   2.601   3.240   4.412
 6998TIP3    H120951   2.662   3.167   4.401
 6998TIP3    H220952   2.656   3.318   4.411
 6999TIP3   OH220953   0.116   3.123   5.460
 6999TIP3    H120954   0.022   3.134   5.446
 6999TIP3    H220955   0.122   3.061   5.533
 7000TIP3   OH220956   3.223   6.775   2.050
 7000TIP3    H120957   3.163   6.736   2.114
 7000TIP3    H220958   3.192   6.865   2.040
 7001TIP3   OH220959   7.506   3.890   0.835
 7001TIP3    H120960   7.534   3.974   0.870
 7001TIP3    H220961   7.583   3.833   0.844
 7002TIP3   OH220962   2.958   5.672   5.961
 7002TIP3    H120963   2.958   5.702   6.052
 7002TIP3    H220964   2.878   5.708   5.924
 7003TIP3   OH220965   4.518   2.928   4.225
 7003TIP3    H120966   4.454   2.994   4.198
 7003TIP3    H220967   4.558   2.898   4.144
 7004TIP3   OH220968   2.394   4.634   3.081
 7004TIP3    H120969   2.299   4.625   3.079
 7004TIP3    H220970   2.427   4.544   3.075
 7005TIP3   OH220971   5.624   1.899   2.967
 7005TIP3    H120972   5.679   1.977   2.963
 7005TIP3    H220973   5.538   1.932   2.993
 7006TIP3   OH220974   2.050   3.092   6.614
 7006TIP3    H120975   2.066   3.024   6.679
 7006TIP3    H220976   2.057   3.174   6.662
 7007TIP3   OH220977   2.547   3.447   3.474
 7007TIP3    H120978   2.584   3.515   3.530
 7007TIP3    H220979   2.494   3.393   3.533
 7008TIP3   OH220980   0.592   1.249   6.594
 7008TIP3    H120981   0.610   1.194   6.517
 7008TIP3    H220982   0.642   1.208   6.665
 7009TIP3   OH220983   0.323   1.863   6.203
 7009TIP3    H120984   0.246   1.906   6.166
 7009TIP3    H220985   0.312   1.771   6.180
 7010TIP3   OH220986   3.662   2.369   2.696
 7010TIP3    H120987   3.716   2.442   2.728
 7010TIP3    H220988   3.722   2.294   2.694
 7011TIP3   OH220989   1.731   0.325   2.177
 7011TIP3    H120990   1.799   0.330   2.109
 7011TIP3    H220991   1.663   0.269   2.138
 7012TIP3   OH220992   3.839   7.714   4.433
 7012TIP3    H120993   3.912   7.676   4.384
 7012TIP3    H220994   3.812   7.790   4.381
 7013TIP3   OH220995   3.938   1.133   2.017
 7013TIP3    H120996   3.872   1.073   1.982
 7013TIP3    H220997   4.009   1.130   1.953
 7014TIP3   OH220998   7.182   7.688   5.032
 7014TIP3    H120999   7.173   7.615   4.971
 7014TIP3    H221000   7.092   7.715   5.051
 7015TIP3   OH221001   4.865   3.287   1.453
 7015TIP3    H121002   4.904   3.241   1.527
 7015TIP3    H221003   4.928   3.357   1.433
 7016TIP3   OH221004   4.970   3.505   1.131
 7016TIP3    H121005   5.052   3.466   1.101
 7016TIP3    H221006   4.912   3.430   1.145
 7017TIP3   OH221007   1.641   3.599   5.893
 7017TIP3    H121008   1.716   3.580   5.837
 7017TIP3    H221009   1.678   3.611   5.980
 7018TIP3   OH221010   3.369   0.550   5.941
 7018TIP3    H121011   3.328   0.494   6.007
 7018TIP3    H221012   3.328   0.525   5.859
 7019TIP3   OH221013   1.330   5.313   5.259
 7019TIP3    H121014   1.263   5.331   5.324
 7019TIP3    H221015   1.413   5.325   5.306
 7020TIP3   OH221016   0.846   4.432   1.312
 7020TIP3    H121017   0.938   4.430   1.287
 7020TIP3    H221018   0.799   4.456   1.232
 7021TIP3   OH221019   6.566   6.512   4.542
 7021TIP3    H121020   6.643   6.511   4.599
 7021TIP3    H221021   6.496   6.546   4.597
 7022TIP3   OH221022   1.898   5.783   4.845
 7022TIP3    H121023   1.954   5.850   4.805
 7022TIP3    H221024   1.907   5.708   4.787
 7023TIP3   OH221025   1.840   1.115   1.305
 7023TIP3    H121026   1.820   1.174   1.232
 7023TIP3    H221027   1.762   1.059   1.312
 7024TIP3   OH221028   6.656   3.779   3.892
 7024TIP3    H121029   6.686   3.701   3.846
 7024TIP3    H221030   6.560   3.771   3.893
 7025TIP3   OH221031   7.283   7.224   2.825
 7025TIP3    H121032   7.243   7.164   2.888
 7025TIP3    H221033   7.235   7.306   2.835
 7026TIP3   OH221034   7.269   1.463   2.795
 7026TIP3    H121035   7.269   1.470   2.699
 7026TIP3    H221036   7.235   1.547   2.825
 7027TIP3   OH221037   5.704   0.068   5.595
 7027TIP3    H121038   5.631   0.077   5.534
 7027TIP3    H221039   5.755  -0.006   5.562
 7028TIP3   OH221040   1.380   6.212   1.767
 7028TIP3    H121041   1.285   6.214   1.776
 7028TIP3    H221042   1.411   6.167   1.846
 7029TIP3   OH221043   6.648   4.658   3.890
 7029TIP3    H121044   6.645   4.744   3.847
 7029TIP3    H221045   6.637   4.678   3.983
 7030TIP3   OH221046   7.223   1.405   5.362
 7030TIP3    H121047   7.180   1.391   5.278
 7030TIP3    H221048   7.259   1.493   5.357
 7031TIP3   OH221049   6.559   6.567   0.714
 7031TIP3    H121050   6.637   6.561   0.658
 7031TIP3    H221051   6.504   6.495   0.685
 7032TIP3   OH221052   3.174   7.599   5.716
 7032TIP3    H121053   3.126   7.517   5.725
 7032TIP3    H221054   3.134   7.642   5.641
 7033TIP3   OH221055   7.430   4.132   4.235
 7033TIP3    H121056   7.414   4.225   4.251
 7033TIP3    H221057   7.524   4.125   4.223
 7034TIP3   OH221058   5.268   5.640   0.377
 7034TIP3    H121059   5.206   5.664   0.308
 7034TIP3    H221060   5.215   5.637   0.457
 7035TIP3   OH221061   3.545   2.152   5.435
 7035TIP3    H121062   3.606   2.158   5.509
 7035TIP3    H221063   3.583   2.085   5.378
 7036TIP3   OH221064   4.797   6.819   6.701
 7036TIP3    H121065   4.798   6.725   6.720
 7036TIP3    H221066   4.870   6.831   6.640
 7037TIP3   OH221067   3.762   5.593   3.255
 7037TIP3    H121068   3.713   5.555   3.327
 7037TIP3    H221069   3.801   5.673   3.291
 7038TIP3   OH221070   6.853   4.809   0.381
 7038TIP3    H121071   6.847   4.776   0.471
 7038TIP3    H221072   6.891   4.896   0.390
 7039TIP3   OH221073   6.529   4.856   2.725
 7039TIP3    H121074   6.594   4.834   2.792
 7039TIP3    H221075   6.446   4.828   2.763
 7040TIP3   OH221076   4.297   4.220   6.127
 7040TIP3    H121077   4.358   4.273   6.076
 7040TIP3    H221078   4.220   4.276   6.138
 7041TIP3   OH221079   3.615   1.404   4.561
 7041TIP3    H121080   3.577   1.345   4.626
 7041TIP3    H221081   3.670   1.348   4.507
 7042TIP3   OH221082   5.624   0.252   5.013
 7042TIP3    H121083   5.544   0.286   5.053
 7042TIP3    H221084   5.637   0.167   5.054
 7043TIP3   OH221085   4.209   5.410   1.269
 7043TIP3    H121086   4.279   5.372   1.323
 7043TIP3    H221087   4.238   5.499   1.250
 7044TIP3   OH221088   5.208   4.638   3.942
 7044TIP3    H121089   5.161   4.668   3.865
 7044TIP3    H221090   5.235   4.719   3.986
 7045TIP3   OH221091   5.712   2.364   1.927
 7045TIP3    H121092   5.737   2.428   1.861
 7045TIP3    H221093   5.773   2.291   1.915
 7046TIP3   OH221094   6.635   0.753   2.327
 7046TIP3    H121095   6.642   0.670   2.278
 7046TIP3    H221096   6.561   0.738   2.387
 7047TIP3   OH221097   0.940   7.545   5.556
 7047TIP3    H121098   1.007   7.564   5.622
 7047TIP3    H221099   0.858   7.575   5.597
 7048TIP3   OH221100   7.201   2.002   5.707
 7048TIP3    H121101   7.274   1.977   5.650
 7048TIP3    H221102   7.196   1.931   5.771
 7049TIP3   OH221103   6.006   2.160   3.592
 7049TIP3    H121104   5.976   2.219   3.661
 7049TIP3    H221105   6.081   2.204   3.553
 7050TIP3   OH221106   5.022   0.780   2.043
 7050TIP3    H121107   4.944   0.834   2.057
 7050TIP3    H221108   5.089   0.819   2.100
 7051TIP3   OH221109   0.218   0.542   1.707
 7051TIP3    H121110   0.148   0.486   1.741
 7051TIP3    H221111   0.299   0.501   1.736
 7052TIP3   OH221112   5.429   4.428   3.856
 7052TIP3    H121113   5.456   4.459   3.942
 7052TIP3    H221114   5.435   4.333   3.862
 7053TIP3   OH221115   7.156   4.863   5.766
 7053TIP3    H121116   7.082   4.813   5.731
 7053TIP3    H221117   7.215   4.874   5.692
 7054TIP3   OH221118   4.320   6.234   1.187
 7054TIP3    H121119   4.260   6.306   1.207
 7054TIP3    H221120   4.263   6.157   1.181
 7055TIP3   OH221121   3.437   4.938   2.677
 7055TIP3    H121122   3.527   4.936   2.709
 7055TIP3    H221123   3.401   4.854   2.705
 7056TIP3   OH221124   4.958   7.744   3.542
 7056TIP3    H121125   5.007   7.810   3.592
 7056TIP3    H221126   4.911   7.694   3.609
 7057TIP3   OH221127   6.252   5.216   5.925
 7057TIP3    H121128   6.281   5.159   5.996
 7057TIP3    H221129   6.301   5.187   5.848
 7058TIP3   OH221130   3.463   2.407  -0.004
 7058TIP3    H121131   3.422   2.372  -0.082
 7058TIP3    H221132   3.393   2.453   0.042
 7059TIP3   OH221133   5.648   7.649   5.503
 7059TIP3    H121134   5.572   7.591   5.498
 7059TIP3    H221135   5.723   7.589   5.509
 7060TIP3   OH221136   2.882   7.376   0.525
 7060TIP3    H121137   2.895   7.367   0.619
 7060TIP3    H221138   2.871   7.470   0.511
 7061TIP3   OH221139   7.792   2.113   1.628
 7061TIP3    H121140   7.824   2.170   1.699
 7061TIP3    H221141   7.697   2.110   1.641
 7062TIP3   OH221142   5.109   4.659   4.463
 7062TIP3    H121143   5.047   4.611   4.408
 7062TIP3    H221144   5.087   4.632   4.553
 7063TIP3   OH221145   1.953   2.904   4.943
 7063TIP3    H121146   2.000   2.890   5.025
 7063TIP3    H221147   1.918   2.993   4.951
 7064TIP3   OH221148   7.216   2.684   4.153
 7064TIP3    H121149   7.230   2.698   4.059
 7064TIP3    H221150   7.123   2.702   4.166
 7065TIP3   OH221151   3.667   0.810  -0.006
 7065TIP3    H121152   3.759   0.813  -0.033
 7065TIP3    H221153   3.619   0.832  -0.085
 7066TIP3   OH221154   0.490   3.581   4.560
 7066TIP3    H121155   0.488   3.670   4.527
 7066TIP3    H221156   0.401   3.547   4.544
 7067TIP3   OH221157   2.013   2.410   4.978
 7067TIP3    H121158   1.942   2.451   5.027
 7067TIP3    H221159   2.059   2.358   5.043
 7068TIP3   OH221160   2.603   6.266   6.777
 7068TIP3    H121161   2.579   6.231   6.691
 7068TIP3    H221162   2.697   6.283   6.770
 7069TIP3   OH221163   1.362   4.650   4.536
 7069TIP3    H121164   1.303   4.684   4.604
 7069TIP3    H221165   1.303   4.619   4.467
 7070TIP3   OH221166   8.234   2.757   0.154
 7070TIP3    H121167   8.186   2.680   0.182
 7070TIP3    H221168   8.167   2.824   0.139
 7071TIP3   OH221169   2.845   2.901   1.121
 7071TIP3    H121170   2.897   2.844   1.064
 7071TIP3    H221171   2.763   2.915   1.074
 7072TIP3   OH221172   0.495   5.484   6.250
 7072TIP3    H121173   0.441   5.472   6.328
 7072TIP3    H221174   0.450   5.434   6.182
 7073TIP3   OH221175   1.159   0.462   1.216
 7073TIP3    H121176   1.081   0.409   1.224
 7073TIP3    H221177   1.127   0.548   1.187
 7074TIP3   OH221178   0.250   0.290   2.042
 7074TIP3    H121179   0.320   0.340   2.085
 7074TIP3    H221180   0.187   0.273   2.112
 7075TIP3   OH221181   2.982   0.458   4.297
 7075TIP3    H121182   3.053   0.501   4.345
 7075TIP3    H221183   3.021   0.437   4.212
 7076TIP3   OH221184   8.248   1.485   3.327
 7076TIP3    H121185   8.256   1.525   3.414
 7076TIP3    H221186   8.215   1.397   3.345
 7077TIP3   OH221187   8.289   3.683   0.513
 7077TIP3    H121188   8.252   3.682   0.602
 7077TIP3    H221189   8.366   3.740   0.520
 7078TIP3   OH221190   5.003   1.503   5.455
 7078TIP3    H121191   5.061   1.571   5.490
 7078TIP3    H221192   4.964   1.543   5.377
 7079TIP3   OH221193   5.862   5.140   0.683
 7079TIP3    H121194   5.847   5.150   0.777
 7079TIP3    H221195   5.937   5.196   0.664
 7080TIP3   OH221196   7.264   6.055   6.570
 7080TIP3    H121197   7.275   5.984   6.507
 7080TIP3    H221198   7.351   6.096   6.575
 7081TIP3   OH221199   6.368   4.439   6.657
 7081TIP3    H121200   6.427   4.513   6.642
 7081TIP3    H221201   6.426   4.363   6.660
 7082TIP3   OH221202   4.177   1.407   1.214
 7082TIP3    H121203   4.174   1.502   1.225
 7082TIP3    H221204   4.187   1.372   1.303
 7083TIP3   OH221205   7.632   0.170   1.970
 7083TIP3    H121206   7.697   0.189   1.903
 7083TIP3    H221207   7.594   0.255   1.992
 7084TIP3   OH221208   2.747   1.708   1.629
 7084TIP3    H121209   2.837   1.712   1.662
 7084TIP3    H221210   2.735   1.793   1.586
 7085TIP3   OH221211   0.628   2.229   0.390
 7085TIP3    H121212   0.624   2.137   0.366
 7085TIP3    H221213   0.702   2.264   0.341
 7086TIP3   OH221214   2.393   5.218   2.496
 7086TIP3    H121215   2.367   5.236   2.587
 7086TIP3    H221216   2.470   5.273   2.482
 7087TIP3   OH221217   1.649   3.418   4.200
 7087TIP3    H121218   1.555   3.411   4.213
 7087TIP3    H221219   1.664   3.381   4.113
 7088TIP3   OH221220   5.590   2.374   1.521
 7088TIP3    H121221   5.523   2.386   1.453
 7088TIP3    H221222   5.541   2.344   1.598
 7089TIP3   OH221223   1.494   5.727   0.302
 7089TIP3    H121224   1.411   5.711   0.257
 7089TIP3    H221225   1.475   5.798   0.364
 7090TIP3   OH221226   1.165   6.261   2.186
 7090TIP3    H121227   1.137   6.301   2.269
 7090TIP3    H221228   1.219   6.186   2.213
 7091TIP3   OH221229   0.475   6.606   6.684
 7091TIP3    H121230   0.490   6.696   6.715
 7091TIP3    H221231   0.402   6.574   6.737
 7092TIP3   OH221232   1.833   5.821   2.543
 7092TIP3    H121233   1.794   5.880   2.479
 7092TIP3    H221234   1.888   5.762   2.491
 7093TIP3   OH221235   4.481   6.286   1.800
 7093TIP3    H121236   4.409   6.270   1.738
 7093TIP3    H221237   4.458   6.368   1.843
 7094TIP3   OH221238   5.024   7.389   3.746
 7094TIP3    H121239   5.095   7.450   3.726
 7094TIP3    H221240   5.062   7.329   3.810
 7095TIP3   OH221241   1.044   2.557   2.214
 7095TIP3    H121242   1.080   2.581   2.300
 7095TIP3    H221243   0.964   2.609   2.206
 7096TIP3   OH221244   3.505   0.830   5.908
 7096TIP3    H121245   3.598   0.818   5.928
 7096TIP3    H221246   3.463   0.751   5.942
 7097TIP3   OH221247   2.337   0.390   5.693
 7097TIP3    H121248   2.377   0.327   5.633
 7097TIP3    H221249   2.263   0.426   5.644
 7098TIP3   OH221250   7.749   0.895   2.830
 7098TIP3    H121251   7.723   0.818   2.779
 7098TIP3    H221252   7.844   0.887   2.836
 7099TIP3   OH221253   7.050   7.027   5.055
 7099TIP3    H121254   7.099   6.987   5.127
 7099TIP3    H221255   7.103   7.008   4.977
 7100TIP3   OH221256   7.443   4.583   2.211
 7100TIP3    H121257   7.519   4.536   2.177
 7100TIP3    H221258   7.370   4.555   2.156
 7101TIP3   OH221259   3.635   7.836   0.343
 7101TIP3    H121260   3.599   7.868   0.260
 7101TIP3    H221261   3.558   7.825   0.399
 7102TIP3   OH221262   7.949   4.476   1.838
 7102TIP3    H121263   8.022   4.485   1.899
 7102TIP3    H221264   7.895   4.553   1.855
 7103TIP3   OH221265   6.780   2.251   0.251
 7103TIP3    H121266   6.849   2.299   0.207
 7103TIP3    H221267   6.823   2.211   0.327
 7104TIP3   OH221268   3.364   4.155   0.264
 7104TIP3    H121269   3.412   4.077   0.291
 7104TIP3    H221270   3.273   4.126   0.260
 7105TIP3   OH221271   4.553   5.129   1.120
 7105TIP3    H121272   4.468   5.092   1.095
 7105TIP3    H221273   4.565   5.204   1.061
 7106TIP3   OH221274   2.129   6.896   3.033
 7106TIP3    H121275   2.217   6.869   3.005
 7106TIP3    H221276   2.080   6.814   3.040
 7107TIP3   OH221277   8.119   4.349   0.733
 7107TIP3    H121278   8.184   4.408   0.696
 7107TIP3    H221279   8.043   4.404   0.750
 7108TIP3   OH221280   3.830   2.709   3.534
 7108TIP3    H121281   3.743   2.740   3.561
 7108TIP3    H221282   3.868   2.673   3.614
 7109TIP3   OH221283   1.791   2.962   0.624
 7109TIP3    H121284   1.781   2.913   0.542
 7109TIP3    H221285   1.786   3.054   0.597
 7110TIP3   OH221286   5.052   7.671   3.895
 7110TIP3    H121287   4.963   7.675   3.858
 7110TIP3    H221288   5.067   7.577   3.909
 7111TIP3   OH221289   7.747   1.937   0.491
 7111TIP3    H121290   7.691   1.873   0.535
 7111TIP3    H221291   7.722   2.021   0.529
 7112TIP3   OH221292   3.765   5.865   3.531
 7112TIP3    H121293   3.786   5.950   3.493
 7112TIP3    H221294   3.686   5.837   3.484
 7113TIP3   OH221295   0.875   1.430   1.337
 7113TIP3    H121296   0.886   1.390   1.251
 7113TIP3    H221297   0.824   1.509   1.320
 7114TIP3   OH221298   1.773   7.798   4.556
 7114TIP3    H121299   1.736   7.876   4.598
 7114TIP3    H221300   1.799   7.742   4.628
 7115TIP3   OH221301   5.583   4.987   5.112
 7115TIP3    H121302   5.518   5.033   5.165
 7115TIP3    H221303   5.642   5.056   5.081
 7116TIP3   OH221304   0.853   2.937   4.600
 7116TIP3    H121305   0.847   2.944   4.695
 7116TIP3    H221306   0.809   3.015   4.567
 7117TIP3   OH221307   5.629   7.399   2.136
 7117TIP3    H121308   5.684   7.361   2.068
 7117TIP3    H221309   5.546   7.418   2.092
 7118TIP3   OH221310   7.519   4.796   4.647
 7118TIP3    H121311   7.570   4.861   4.600
 7118TIP3    H221312   7.467   4.847   4.709
 7119TIP3   OH221313   3.363   3.409   5.090
 7119TIP3    H121314   3.283   3.356   5.081
 7119TIP3    H221315   3.413   3.389   5.011
 7120TIP3   OH221316   1.772   4.978   3.486
 7120TIP3    H121317   1.790   5.026   3.566
 7120TIP3    H221318   1.822   5.024   3.418
 7121TIP3   OH221319   7.026   7.314   4.331
 7121TIP3    H121320   6.943   7.267   4.323
 7121TIP3    H221321   7.093   7.246   4.328
 7122TIP3   OH221322   7.117   7.040   2.149
 7122TIP3    H121323   7.113   6.989   2.230
 7122TIP3    H221324   7.044   7.101   2.155
 7123TIP3   OH221325   3.645   7.668   3.833
 7123TIP3    H121326   3.669   7.701   3.746
 7123TIP3    H221327   3.569   7.613   3.817
 7124TIP3   OH221328   0.623   2.057   1.481
 7124TIP3    H121329   0.606   2.005   1.403
 7124TIP3    H221330   0.546   2.043   1.537
 7125TIP3   OH221331   8.222   5.297   5.222
 7125TIP3    H121332   8.130   5.275   5.215
 7125TIP3    H221333   8.251   5.311   5.132
 7126TIP3   OH221334   5.876   3.167   6.758
 7126TIP3    H121335   5.926   3.248   6.771
 7126TIP3    H221336   5.891   3.144   6.667
 7127TIP3   OH221337   1.323   3.563   6.511
 7127TIP3    H121338   1.383   3.600   6.575
 7127TIP3    H221339   1.279   3.639   6.472
 7128TIP3   OH221340   0.462   2.796   2.122
 7128TIP3    H121341   0.554   2.770   2.113
 7128TIP3    H221342   0.424   2.776   2.037
 7129TIP3   OH221343   6.522   4.117   1.170
 7129TIP3    H121344   6.473   4.136   1.250
 7129TIP3    H221345   6.460   4.069   1.115
 7130TIP3   OH221346   2.184   6.129   3.300
 7130TIP3    H121347   2.101   6.173   3.321
 7130TIP3    H221348   2.159   6.037   3.289
 7131TIP3   OH221349   6.380   0.411   4.132
 7131TIP3    H121350   6.382   0.367   4.217
 7131TIP3    H221351   6.453   0.373   4.084
 7132TIP3   OH221352   0.540   0.790   4.993
 7132TIP3    H121353   0.500   0.875   4.975
 7132TIP3    H221354   0.513   0.769   5.082
 7133TIP3   OH221355   3.581   7.001   5.776
 7133TIP3    H121356   3.488   6.982   5.789
 7133TIP3    H221357   3.590   7.094   5.799
 7134TIP3   OH221358   2.368   4.953   4.563
 7134TIP3    H121359   2.364   5.008   4.485
 7134TIP3    H221360   2.359   4.863   4.530
 7135TIP3   OH221361   5.501   0.910   3.256
 7135TIP3    H121362   5.430   0.953   3.304
 7135TIP3    H221363   5.518   0.829   3.304
 7136TIP3   OH221364   1.615   7.246   5.455
 7136TIP3    H121365   1.576   7.289   5.379
 7136TIP3    H221366   1.709   7.246   5.437
 7137TIP3   OH221367   2.749   0.418   5.031
 7137TIP3    H121368   2.739   0.326   5.008
 7137TIP3    H221369   2.820   0.419   5.095
 7138TIP3   OH221370   5.066   3.478   1.396
 7138TIP3    H121371   5.017   3.499   1.317
 7138TIP3    H221372   5.158   3.497   1.374
 7139TIP3   OH221373   5.315   2.958   2.582
 7139TIP3    H121374   5.221   2.963   2.601
 7139TIP3    H221375   5.320   2.969   2.487
 7140TIP3   OH221376   2.595   5.597   0.363
 7140TIP3    H121377   2.563   5.665   0.304
 7140TIP3    H221378   2.686   5.582   0.336
 7141TIP3   OH221379   6.797   3.498   2.640
 7141TIP3    H121380   6.756   3.542   2.565
 7141TIP3    H221381   6.746   3.526   2.716
 7142TIP3   OH221382   3.999   1.425   5.842
 7142TIP3    H121383   4.020   1.335   5.868
 7142TIP3    H221384   3.947   1.459   5.915
 7143TIP3   OH221385   5.505   6.033   0.646
 7143TIP3    H121386   5.470   5.969   0.584
 7143TIP3    H221387   5.427   6.075   0.683
 7144TIP3   OH221388   1.872   4.802   1.670
 7144TIP3    H121389   1.885   4.786   1.577
 7144TIP3    H221390   1.802   4.741   1.695
 7145TIP3   OH221391   4.150   7.253   2.896
 7145TIP3    H121392   4.197   7.243   2.813
 7145TIP3    H221393   4.189   7.188   2.954
 7146TIP3   OH221394   6.951   7.075   3.336
 7146TIP3    H121395   7.045   7.070   3.355
 7146TIP3    H221396   6.911   7.106   3.418
 7147TIP3   OH221397   6.348   3.987   3.026
 7147TIP3    H121398   6.356   4.044   2.949
 7147TIP3    H221399   6.372   3.900   2.995
 7148TIP3   OH221400   6.358   6.328   4.662
 7148TIP3    H121401   6.310   6.386   4.602
 7148TIP3    H221402   6.323   6.240   4.643
 7149TIP3   OH221403   1.798   7.105   4.953
 7149TIP3    H121404   1.776   7.057   4.874
 7149TIP3    H221405   1.892   7.090   4.965
 7150TIP3   OH221406   7.057   2.437   2.286
 7150TIP3    H121407   7.057   2.441   2.382
 7150TIP3    H221408   7.121   2.503   2.259
 7151TIP3   OH221409   6.794   2.011   4.845
 7151TIP3    H121410   6.870   2.062   4.871
 7151TIP3    H221411   6.829   1.942   4.789
 7152TIP3   OH221412   6.893   3.781   2.602
 7152TIP3    H121413   6.864   3.763   2.691
 7152TIP3    H221414   6.967   3.722   2.589
 7153TIP3   OH221415   5.976   2.775   0.352
 7153TIP3    H121416   5.883   2.787   0.332
 7153TIP3    H221417   6.022   2.810   0.276
 7154TIP3   OH221418   5.570   3.497   4.040
 7154TIP3    H121419   5.584   3.511   3.946
 7154TIP3    H221420   5.565   3.402   4.050
 7155TIP3   OH221421   2.162   5.907   1.582
 7155TIP3    H121422   2.149   5.940   1.494
 7155TIP3    H221423   2.177   5.984   1.636
 7156TIP3   OH221424   7.574   2.577   3.526
 7156TIP3    H121425   7.599   2.629   3.450
 7156TIP3    H221426   7.637   2.505   3.528
 7157TIP3   OH221427   3.234   7.245   5.649
 7157TIP3    H121428   3.257   7.171   5.704
 7157TIP3    H221429   3.147   7.271   5.679
 7158TIP3   OH221430   4.060   1.196   5.997
 7158TIP3    H121431   3.965   1.187   5.993
 7158TIP3    H221432   4.094   1.108   5.981
 7159TIP3   OH221433   0.674   6.255   0.113
 7159TIP3    H121434   0.653   6.194   0.184
 7159TIP3    H221435   0.713   6.330   0.157
 7160TIP3   OH221436   5.693   2.062   4.150
 7160TIP3    H121437   5.725   2.015   4.072
 7160TIP3    H221438   5.759   2.045   4.217
 7161TIP3   OH221439   8.215   2.421   5.398
 7161TIP3    H121440   8.309   2.407   5.392
 7161TIP3    H221441   8.192   2.465   5.316
 7162TIP3   OH221442   0.163   5.189   5.326
 7162TIP3    H121443   0.086   5.238   5.297
 7162TIP3    H221444   0.145   5.167   5.417
 7163TIP3   OH221445   2.681   4.917   3.798
 7163TIP3    H121446   2.680   4.922   3.894
 7163TIP3    H221447   2.774   4.921   3.775
 7164TIP3   OH221448   4.078   1.477   1.686
 7164TIP3    H121449   4.058   1.551   1.630
 7164TIP3    H221450   4.173   1.471   1.687
 7165TIP3   OH221451   6.863   1.461   1.979
 7165TIP3    H121452   6.767   1.456   1.978
 7165TIP3    H221453   6.891   1.398   1.913
 7166TIP3   OH221454   1.142   1.097   0.525
 7166TIP3    H121455   1.098   1.060   0.448
 7166TIP3    H221456   1.210   1.033   0.546
 7167TIP3   OH221457   8.002   5.073   2.503
 7167TIP3    H121458   8.047   4.991   2.525
 7167TIP3    H221459   7.939   5.048   2.435
 7168TIP3   OH221460   8.153   5.741   4.330
 7168TIP3    H121461   8.197   5.754   4.414
 7168TIP3    H221462   8.165   5.823   4.284
 7169TIP3   OH221463   1.315   7.326   3.265
 7169TIP3    H121464   1.283   7.414   3.284
 7169TIP3    H221465   1.391   7.316   3.322
 7170TIP3   OH221466   5.857   5.447   6.755
 7170TIP3    H121467   5.951   5.430   6.753
 7170TIP3    H221468   5.833   5.464   6.664
 7171TIP3   OH221469   1.469   0.235   0.410
 7171TIP3    H121470   1.498   0.299   0.346
 7171TIP3    H221471   1.437   0.288   0.483
 7172TIP3   OH221472   2.248   1.050   6.326
 7172TIP3    H121473   2.248   1.143   6.302
 7172TIP3    H221474   2.157   1.022   6.315
 7173TIP3   OH221475   0.754   1.252   2.273
 7173TIP3    H121476   0.792   1.339   2.263
 7173TIP3    H221477   0.743   1.220   2.183
 7174TIP3   OH221478   2.080   0.311   3.198
 7174TIP3    H121479   2.085   0.215   3.202
 7174TIP3    H221480   1.990   0.332   3.223
 7175TIP3   OH221481   5.482   6.874   6.041
 7175TIP3    H121482   5.498   6.780   6.040
 7175TIP3    H221483   5.507   6.904   5.953
 7176TIP3   OH221484   6.244  -0.004   0.697
 7176TIP3    H121485   6.212   0.073   0.650
 7176TIP3    H221486   6.237   0.019   0.789
 7177TIP3   OH221487   7.840   0.278   0.261
 7177TIP3    H121488   7.836   0.263   0.167
 7177TIP3    H221489   7.794   0.203   0.299
 7178TIP3   OH221490   5.652   7.163   6.699
 7178TIP3    H121491   5.698   7.131   6.778
 7178TIP3    H221492   5.651   7.258   6.709
 7179TIP3   OH221493   2.739   4.367   6.032
 7179TIP3    H121494   2.744   4.285   6.081
 7179TIP3    H221495   2.645   4.386   6.026
 7180TIP3   OH221496   2.017   6.032   2.513
 7180TIP3    H121497   1.988   5.948   2.547
 7180TIP3    H221498   2.094   6.011   2.460
 7181TIP3   OH221499   7.330   4.383   5.694
 7181TIP3    H121500   7.305   4.309   5.750
 7181TIP3    H221501   7.344   4.456   5.754
 7182TIP3   OH221502   0.836   3.000   2.983
 7182TIP3    H121503   0.822   2.933   3.050
 7182TIP3    H221504   0.905   3.056   3.019
 7183TIP3   OH221505   4.708   5.010   5.888
 7183TIP3    H121506   4.618   5.003   5.920
 7183TIP3    H221507   4.730   5.103   5.897
 7184TIP3   OH221508   4.704   0.433   6.071
 7184TIP3    H121509   4.751   0.374   6.131
 7184TIP3    H221510   4.680   0.376   5.997
 7185TIP3   OH221511   0.896   2.997   6.609
 7185TIP3    H121512   0.824   2.950   6.568
 7185TIP3    H221513   0.955   3.019   6.537
 7186TIP3   OH221514   3.895   6.555   2.986
 7186TIP3    H121515   3.860   6.561   3.075
 7186TIP3    H221516   3.876   6.465   2.958
 7187TIP3   OH221517   4.013   0.105   2.673
 7187TIP3    H121518   4.053   0.079   2.756
 7187TIP3    H221519   4.045   0.041   2.610
 7188TIP3   OH221520   5.136   0.333   1.023
 7188TIP3    H121521   5.058   0.310   0.973
 7188TIP3    H221522   5.202   0.269   0.995
 7189TIP3   OH221523   4.741   5.266   5.854
 7189TIP3    H121524   4.689   5.332   5.900
 7189TIP3    H221525   4.721   5.280   5.762
 7190TIP3   OH221526   5.884   1.297   0.917
 7190TIP3    H121527   5.826   1.236   0.962
 7190TIP3    H221528   5.935   1.243   0.857
 7191TIP3   OH221529   3.259   2.916   4.164
 7191TIP3    H121530   3.175   2.951   4.193
 7191TIP3    H221531   3.241   2.825   4.139
 7192TIP3   OH221532   4.160   4.624   0.182
 7192TIP3    H121533   4.090   4.647   0.243
 7192TIP3    H221534   4.116   4.612   0.098
 7193TIP3   OH221535   3.299   6.569   1.865
 7193TIP3    H121536   3.278   6.656   1.900
 7193TIP3    H221537   3.216   6.522   1.865
 7194TIP3   OH221538   4.765   4.647   5.369
 7194TIP3    H121539   4.752   4.597   5.289
 7194TIP3    H221540   4.844   4.611   5.408
 7195TIP3   OH221541   4.906   0.405   0.123
 7195TIP3    H121542   4.814   0.427   0.135
 7195TIP3    H221543   4.930   0.360   0.205
 7196TIP3   OH221544   5.637   7.228   3.155
 7196TIP3    H121545   5.557   7.277   3.174
 7196TIP3    H221546   5.657   7.249   3.064
 7197TIP3   OH221547   3.614   2.316   4.981
 7197TIP3    H121548   3.518   2.318   4.972
 7197TIP3    H221549   3.630   2.252   5.050
 7198TIP3   OH221550   4.564   0.693   0.591
 7198TIP3    H121551   4.516   0.774   0.573
 7198TIP3    H221552   4.592   0.701   0.682
 7199TIP3   OH221553   5.473   6.295   0.277
 7199TIP3    H121554   5.556   6.265   0.313
 7199TIP3    H221555   5.408   6.275   0.345
 7200TIP3   OH221556   5.508   0.400   2.157
 7200TIP3    H121557   5.448   0.382   2.085
 7200TIP3    H221558   5.584   0.440   2.115
 7201TIP3   OH221559   5.212   0.226   3.557
 7201TIP3    H121560   5.123   0.212   3.588
 7201TIP3    H221561   5.204   0.299   3.495
 7202TIP3   OH221562   5.112   6.313   4.828
 7202TIP3    H121563   5.107   6.396   4.781
 7202TIP3    H221564   5.186   6.323   4.887
 7203TIP3   OH221565   4.473   7.492   4.500
 7203TIP3    H121566   4.547   7.437   4.528
 7203TIP3    H221567   4.396   7.438   4.515
 7204TIP3   OH221568   0.398   0.261   4.759
 7204TIP3    H121569   0.397   0.357   4.761
 7204TIP3    H221570   0.307   0.236   4.743
 7205TIP3   OH221571   5.107   2.169   3.729
 7205TIP3    H121572   5.109   2.180   3.634
 7205TIP3    H221573   5.162   2.240   3.763
 7206TIP3   OH221574   5.373   1.879   2.285
 7206TIP3    H121575   5.460   1.876   2.245
 7206TIP3    H221576   5.325   1.808   2.243
 7207TIP3   OH221577   6.617   6.324   3.847
 7207TIP3    H121578   6.527   6.351   3.828
 7207TIP3    H221579   6.630   6.246   3.793
 7208TIP3   OH221580   2.105   3.297   2.311
 7208TIP3    H121581   2.011   3.299   2.295
 7208TIP3    H221582   2.124   3.205   2.332
 7209TIP3   OH221583   6.878   5.469   1.110
 7209TIP3    H121584   6.783   5.476   1.111
 7209TIP3    H221585   6.896   5.375   1.123
 7210TIP3   OH221586   0.414   6.954   0.327
 7210TIP3    H121587   0.356   6.946   0.251
 7210TIP3    H221588   0.447   7.044   0.323
 7211TIP3   OH221589   5.216   3.408   1.015
 7211TIP3    H121590   5.220   3.414   0.920
 7211TIP3    H221591   5.266   3.330   1.036
 7212TIP3   OH221592   4.869   4.177   3.981
 7212TIP3    H121593   4.898   4.268   3.989
 7212TIP3    H221594   4.773   4.182   3.981
 7213TIP3   OH221595   6.258   3.869   0.274
 7213TIP3    H121596   6.321   3.884   0.345
 7213TIP3    H221597   6.311   3.874   0.194
 7214TIP3   OH221598   1.862   4.266   2.771
 7214TIP3    H121599   1.923   4.263   2.697
 7214TIP3    H221600   1.881   4.350   2.814
 7215TIP3   OH221601   6.231   1.313   6.533
 7215TIP3    H121602   6.195   1.280   6.450
 7215TIP3    H221603   6.161   1.299   6.597
 7216TIP3   OH221604   7.481   7.270   0.266
 7216TIP3    H121605   7.443   7.219   0.195
 7216TIP3    H221606   7.415   7.268   0.336
 7217TIP3   OH221607   2.748   3.466   1.139
 7217TIP3    H121608   2.711   3.380   1.160
 7217TIP3    H221609   2.731   3.519   1.218
 7218TIP3   OH221610   7.293   4.325   3.181
 7218TIP3    H121611   7.266   4.411   3.147
 7218TIP3    H221612   7.388   4.330   3.185
 7219TIP3   OH221613   5.599   3.531   4.667
 7219TIP3    H121614   5.603   3.622   4.635
 7219TIP3    H221615   5.563   3.539   4.756
 7220TIP3   OH221616   2.592   3.732   0.676
 7220TIP3    H121617   2.533   3.763   0.744
 7220TIP3    H221618   2.566   3.642   0.659
 7221TIP3   OH221619   2.299   1.378   6.255
 7221TIP3    H121620   2.384   1.334   6.253
 7221TIP3    H221621   2.296   1.420   6.341
 7222TIP3   OH221622   0.685   4.997   3.360
 7222TIP3    H121623   0.745   4.938   3.407
 7222TIP3    H221624   0.725   5.006   3.273
 7223TIP3   OH221625   6.015   1.147   0.711
 7223TIP3    H121626   6.090   1.146   0.651
 7223TIP3    H221627   5.948   1.095   0.666
 7224TIP3   OH221628   3.233   5.811   5.245
 7224TIP3    H121629   3.200   5.810   5.335
 7224TIP3    H221630   3.155   5.806   5.190
 7225TIP3   OH221631   1.018   0.767   3.546
 7225TIP3    H121632   0.986   0.690   3.499
 7225TIP3    H221633   1.072   0.730   3.616
 7226TIP3   OH221634   3.563   7.621   2.743
 7226TIP3    H121635   3.593   7.659   2.661
 7226TIP3    H221636   3.598   7.680   2.811
 7227TIP3   OH221637   2.837   3.663   2.689
 7227TIP3    H121638   2.862   3.647   2.779
 7227TIP3    H221639   2.811   3.756   2.687
 7228TIP3   OH221640   5.925   1.333   3.461
 7228TIP3    H121641   5.888   1.420   3.478
 7228TIP3    H221642   5.848   1.277   3.448
 7229TIP3   OH221643   7.010   2.353   1.220
 7229TIP3    H121644   7.071   2.418   1.255
 7229TIP3    H221645   6.968   2.316   1.298
 7230TIP3   OH221646   6.098   5.735   4.416
 7230TIP3    H121647   6.187   5.767   4.406
 7230TIP3    H221648   6.065   5.781   4.494
 7231TIP3   OH221649   2.056   5.876   3.221
 7231TIP3    H121650   2.000   5.799   3.207
 7231TIP3    H221651   2.116   5.874   3.147
 7232TIP3   OH221652   5.007   3.338   5.856
 7232TIP3    H121653   4.967   3.323   5.770
 7232TIP3    H221654   4.995   3.256   5.903
 7233TIP3   OH221655   4.477   0.627   3.595
 7233TIP3    H121656   4.432   0.662   3.672
 7233TIP3    H221657   4.490   0.534   3.616
 7234TIP3   OH221658   6.579   6.869   1.765
 7234TIP3    H121659   6.619   6.867   1.852
 7234TIP3    H221660   6.486   6.853   1.781
 7235TIP3   OH221661   5.046   1.853   5.257
 7235TIP3    H121662   5.058   1.889   5.169
 7235TIP3    H221663   4.981   1.784   5.246
 7236TIP3   OH221664   0.387   2.996   2.286
 7236TIP3    H121665   0.393   2.940   2.209
 7236TIP3    H221666   0.319   3.059   2.265
 7237TIP3   OH221667   3.478   7.243   0.238
 7237TIP3    H121668   3.471   7.332   0.203
 7237TIP3    H221669   3.519   7.193   0.168
 7238TIP3   OH221670   1.144   3.932   2.272
 7238TIP3    H121671   1.117   3.960   2.185
 7238TIP3    H221672   1.122   3.839   2.276
 7239TIP3   OH221673   3.840   3.980   2.383
 7239TIP3    H121674   3.794   3.938   2.455
 7239TIP3    H221675   3.833   4.074   2.402
 7240TIP3   OH221676   2.955   2.673   5.867
 7240TIP3    H121677   2.901   2.608   5.823
 7240TIP3    H221678   2.991   2.626   5.943
 7241TIP3   OH221679   3.427   1.064   6.427
 7241TIP3    H121680   3.426   1.151   6.467
 7241TIP3    H221681   3.341   1.026   6.449
 7242TIP3   OH221682   5.465   4.536   1.666
 7242TIP3    H121683   5.478   4.441   1.655
 7242TIP3    H221684   5.375   4.544   1.696
 7243TIP3   OH221685   5.272   6.757   1.811
 7243TIP3    H121686   5.367   6.771   1.815
 7243TIP3    H221687   5.251   6.713   1.893
 7244TIP3   OH221688   0.303   5.075   2.533
 7244TIP3    H121689   0.352   5.007   2.581
 7244TIP3    H221690   0.217   5.076   2.574
 7245TIP3   OH221691   6.117   3.741   1.321
 7245TIP3    H121692   6.082   3.824   1.290
 7245TIP3    H221693   6.183   3.716   1.256
 7246TIP3   OH221694   5.900   3.139   3.071
 7246TIP3    H121695   5.975   3.099   3.026
 7246TIP3    H221696   5.832   3.143   3.004
 7247TIP3   OH221697   5.719   0.120   2.888
 7247TIP3    H121698   5.705   0.213   2.870
 7247TIP3    H221699   5.654   0.075   2.834
 7248TIP3   OH221700   5.757   3.385   5.262
 7248TIP3    H121701   5.757   3.480   5.271
 7248TIP3    H221702   5.775   3.353   5.351
 7249TIP3   OH221703   4.447   5.377   4.831
 7249TIP3    H121704   4.402   5.397   4.749
 7249TIP3    H221705   4.406   5.435   4.895
 7250TIP3   OH221706   5.957   1.171   0.143
 7250TIP3    H121707   5.863   1.167   0.159
 7250TIP3    H221708   5.968   1.248   0.087
 7251TIP3   OH221709   7.217   1.689   1.704
 7251TIP3    H121710   7.143   1.672   1.762
 7251TIP3    H221711   7.240   1.603   1.668
 7252TIP3   OH221712   4.715   6.653   6.197
 7252TIP3    H121713   4.660   6.579   6.174
 7252TIP3    H221714   4.736   6.640   6.289
 7253TIP3   OH221715   4.022   3.809   3.994
 7253TIP3    H121716   3.999   3.792   3.903
 7253TIP3    H221717   3.939   3.829   4.037
 7254TIP3   OH221718   4.125   7.656   6.210
 7254TIP3    H121719   4.182   7.705   6.151
 7254TIP3    H221720   4.145   7.564   6.192
 7255TIP3   OH221721   6.224   4.604   0.515
 7255TIP3    H121722   6.319   4.616   0.508
 7255TIP3    H221723   6.204   4.627   0.605
 7256TIP3   OH221724   2.694   0.133   0.483
 7256TIP3    H121725   2.606   0.121   0.446
 7256TIP3    H221726   2.737   0.049   0.470
 7257TIP3   OH221727   3.186   5.466   6.246
 7257TIP3    H121728   3.235   5.476   6.327
 7257TIP3    H221729   3.095   5.456   6.274
 7258TIP3   OH221730   5.738   0.388   3.463
 7258TIP3    H121731   5.729   0.470   3.511
 7258TIP3    H221732   5.798   0.409   3.391
 7259TIP3   OH221733   7.858   1.477   0.521
 7259TIP3    H121734   7.904   1.560   0.515
 7259TIP3    H221735   7.787   1.485   0.457
 7260TIP3   OH221736   5.486   4.036   3.092
 7260TIP3    H121737   5.481   3.960   3.035
 7260TIP3    H221738   5.398   4.044   3.129
 7261TIP3   OH221739   2.477   3.773   4.636
 7261TIP3    H121740   2.516   3.820   4.562
 7261TIP3    H221741   2.528   3.803   4.712
 7262TIP3   OH221742   0.246   2.920   0.376
 7262TIP3    H121743   0.182   2.849   0.380
 7262TIP3    H221744   0.270   2.934   0.468
 7263TIP3   OH221745   7.880   6.687   2.889
 7263TIP3    H121746   7.909   6.776   2.909
 7263TIP3    H221747   7.794   6.698   2.849
 7264TIP3   OH221748   2.028   3.516   2.794
 7264TIP3    H121749   2.072   3.436   2.824
 7264TIP3    H221750   2.065   3.585   2.849
 7265TIP3   OH221751   8.409   4.343   5.357
 7265TIP3    H121752   8.406   4.415   5.295
 7265TIP3    H221753   8.333   4.356   5.414
 7266TIP3   OH221754   4.996   5.857   0.651
 7266TIP3    H121755   4.967   5.857   0.559
 7266TIP3    H221756   5.067   5.793   0.654
 7267TIP3   OH221757   6.572   0.946   3.944
 7267TIP3    H121758   6.495   0.994   3.975
 7267TIP3    H221759   6.601   0.895   4.020
 7268TIP3   OH221760   7.759   2.841   3.497
 7268TIP3    H121761   7.765   2.853   3.591
 7268TIP3    H221762   7.714   2.920   3.466
 7269TIP3   OH221763   6.020   3.281   6.078
 7269TIP3    H121764   6.041   3.201   6.125
 7269TIP3    H221765   6.102   3.307   6.036
 7270TIP3   OH221766   7.508   3.156   5.836
 7270TIP3    H121767   7.546   3.152   5.923
 7270TIP3    H221768   7.513   3.066   5.802
 7271TIP3   OH221769   5.391   0.276   2.867
 7271TIP3    H121770   5.321   0.331   2.903
 7271TIP3    H221771   5.444   0.336   2.814
 7272TIP3   OH221772   2.953   1.896   5.731
 7272TIP3    H121773   3.008   1.973   5.723
 7272TIP3    H221774   2.975   1.858   5.816
 7273TIP3   OH221775   7.239   2.780   3.354
 7273TIP3    H121776   7.217   2.751   3.265
 7273TIP3    H221777   7.154   2.791   3.397
 7274TIP3   OH221778   3.224   4.206   4.951
 7274TIP3    H121779   3.211   4.260   4.873
 7274TIP3    H221780   3.310   4.166   4.938
 7275TIP3   OH221781   1.423   2.538   2.144
 7275TIP3    H121782   1.414   2.446   2.119
 7275TIP3    H221783   1.501   2.541   2.198
 7276TIP3   OH221784   1.839   2.686   4.388
 7276TIP3    H121785   1.867   2.626   4.319
 7276TIP3    H221786   1.767   2.735   4.350
 7277TIP3   OH221787   5.042   1.982   1.174
 7277TIP3    H121788   4.983   1.945   1.241
 7277TIP3    H221789   5.127   1.945   1.194
 7278TIP3   OH221790   0.259   5.011   6.184
 7278TIP3    H121791   0.353   5.006   6.166
 7278TIP3    H221792   0.241   5.104   6.190
 7279TIP3   OH221793   3.223   1.428   3.782
 7279TIP3    H121794   3.257   1.448   3.695
 7279TIP3    H221795   3.193   1.337   3.776
 7280TIP3   OH221796   0.851   2.645   4.629
 7280TIP3    H121797   0.850   2.622   4.721
 7280TIP3    H221798   0.835   2.739   4.627
 7281TIP3   OH221799   6.796   7.304   2.885
 7281TIP3    H121800   6.709   7.344   2.891
 7281TIP3    H221801   6.779   7.211   2.870
 7282TIP3   OH221802   2.669   2.701   1.664
 7282TIP3    H121803   2.639   2.747   1.743
 7282TIP3    H221804   2.763   2.688   1.678
 7283TIP3   OH221805   5.350   4.760   5.623
 7283TIP3    H121806   5.391   4.735   5.540
 7283TIP3    H221807   5.268   4.802   5.598
 7284TIP3   OH221808   1.809   0.229   1.685
 7284TIP3    H121809   1.832   0.157   1.744
 7284TIP3    H221810   1.755   0.189   1.618
 7285TIP3   OH221811   2.946   2.332   3.576
 7285TIP3    H121812   2.937   2.294   3.488
 7285TIP3    H221813   3.037   2.315   3.600
 7286TIP3   OH221814   4.472   3.614   5.733
 7286TIP3    H121815   4.451   3.701   5.765
 7286TIP3    H221816   4.458   3.618   5.638
 7287TIP3   OH221817   1.773   7.098   3.222
 7287TIP3    H121818   1.800   7.173   3.169
 7287TIP3    H221819   1.843   7.088   3.286
 7288TIP3   OH221820   7.670   2.193   0.628
 7288TIP3    H121821   7.604   2.225   0.689
 7288TIP3    H221822   7.677   2.261   0.561
 7289TIP3   OH221823   6.489   5.935   3.468
 7289TIP3    H121824   6.407   5.983   3.458
 7289TIP3    H221825   6.533   5.943   3.384
 7290TIP3   OH221826   4.102   0.165   0.217
 7290TIP3    H121827   4.034   0.132   0.157
 7290TIP3    H221828   4.144   0.086   0.252
 7291TIP3   OH221829   4.746   0.135   2.998
 7291TIP3    H121830   4.830   0.178   2.979
 7291TIP3    H221831   4.726   0.087   2.918
 7292TIP3   OH221832   8.198   7.522   2.106
 7292TIP3    H121833   8.184   7.511   2.012
 7292TIP3    H221834   8.110   7.524   2.144
 7293TIP3   OH221835   5.964   2.236   3.132
 7293TIP3    H121836   5.939   2.251   3.224
 7293TIP3    H221837   5.987   2.144   3.128
 7294TIP3   OH221838   1.834   0.502   5.119
 7294TIP3    H121839   1.907   0.540   5.168
 7294TIP3    H221840   1.821   0.562   5.045
 7295TIP3   OH221841   6.549   4.219   6.691
 7295TIP3    H121842   6.540   4.222   6.787
 7295TIP3    H221843   6.630   4.172   6.676
 7296TIP3   OH221844   4.783   6.411   2.557
 7296TIP3    H121845   4.847   6.437   2.491
 7296TIP3    H221846   4.792   6.476   2.626
 7297TIP3   OH221847   2.768   3.742   3.481
 7297TIP3    H121848   2.792   3.665   3.431
 7297TIP3    H221849   2.677   3.759   3.457
 7298TIP3   OH221850   7.260   7.405   5.430
 7298TIP3    H121851   7.293   7.316   5.442
 7298TIP3    H221852   7.239   7.411   5.337
 7299TIP3   OH221853   1.678   4.101   1.978
 7299TIP3    H121854   1.641   4.124   1.892
 7299TIP3    H221855   1.770   4.130   1.973
 7300TIP3   OH221856   0.776   2.825   5.126
 7300TIP3    H121857   0.757   2.732   5.116
 7300TIP3    H221858   0.720   2.853   5.199
 7301TIP3   OH221859   7.470   0.214   0.258
 7301TIP3    H121860   7.545   0.168   0.297
 7301TIP3    H221861   7.487   0.306   0.276
 7302TIP3   OH221862   4.240   1.913   6.090
 7302TIP3    H121863   4.191   1.960   6.022
 7302TIP3    H221864   4.195   1.934   6.171
 7303TIP3   OH221865   1.989   3.795   4.878
 7303TIP3    H121866   2.019   3.886   4.874
 7303TIP3    H221867   1.962   3.774   4.789
 7304TIP3   OH221868   5.424   0.326   6.201
 7304TIP3    H121869   5.365   0.314   6.275
 7304TIP3    H221870   5.367   0.334   6.125
 7305TIP3   OH221871   4.433   4.990   2.021
 7305TIP3    H121872   4.356   4.939   1.999
 7305TIP3    H221873   4.399   5.073   2.055
 7306TIP3   OH221874   2.638   5.773   1.531
 7306TIP3    H121875   2.548   5.741   1.519
 7306TIP3    H221876   2.654   5.828   1.454
 7307TIP3   OH221877   2.272   3.265   6.344
 7307TIP3    H121878   2.257   3.171   6.334
 7307TIP3    H221879   2.365   3.276   6.325
 7308TIP3   OH221880   2.636   3.324   5.279
 7308TIP3    H121881   2.662   3.411   5.311
 7308TIP3    H221882   2.713   3.270   5.295
 7309TIP3   OH221883   4.156   1.853   6.618
 7309TIP3    H121884   4.161   1.758   6.607
 7309TIP3    H221885   4.083   1.867   6.678
 7310TIP3   OH221886   0.224   2.718   6.279
 7310TIP3    H121887   0.305   2.679   6.312
 7310TIP3    H221888   0.248   2.807   6.254
 7311TIP3   OH221889   4.553   0.546   2.536
 7311TIP3    H121890   4.512   0.462   2.558
 7311TIP3    H221891   4.495   0.585   2.472
 7312TIP3   OH221892   7.790   6.494   3.780
 7312TIP3    H121893   7.834   6.570   3.742
 7312TIP3    H221894   7.748   6.528   3.859
 7313TIP3   OH221895   2.514   2.318   1.341
 7313TIP3    H121896   2.432   2.365   1.330
 7313TIP3    H221897   2.540   2.335   1.431
 7314TIP3   OH221898   2.053   6.696   6.019
 7314TIP3    H121899   2.081   6.652   5.939
 7314TIP3    H221900   1.966   6.661   6.036
 7315TIP3   OH221901   0.486   4.807   0.252
 7315TIP3    H121902   0.540   4.732   0.277
 7315TIP3    H221903   0.458   4.845   0.335
 7316TIP3   OH221904   6.580   4.649   4.829
 7316TIP3    H121905   6.673   4.628   4.829
 7316TIP3    H221906   6.537   4.567   4.852
 7317TIP3   OH221907   1.884   2.474   0.675
 7317TIP3    H121908   1.930   2.479   0.759
 7317TIP3    H221909   1.791   2.474   0.700
 7318TIP3   OH221910   0.698   2.465   6.541
 7318TIP3    H121911   0.637   2.437   6.610
 7318TIP3    H221912   0.648   2.458   6.460
 7319TIP3   OH221913   1.469   7.752   3.498
 7319TIP3    H121914   1.431   7.792   3.420
 7319TIP3    H221915   1.394   7.714   3.544
 7320TIP3   OH221916   4.491   5.893   1.582
 7320TIP3    H121917   4.429   5.858   1.519
 7320TIP3    H221918   4.566   5.920   1.530
 7321TIP3   OH221919   7.490   6.293   6.004
 7321TIP3    H121920   7.508   6.355   5.934
 7321TIP3    H221921   7.545   6.322   6.077
 7322TIP3   OH221922   3.684   5.196   1.253
 7322TIP3    H121923   3.766   5.246   1.254
 7322TIP3    H221924   3.707   5.116   1.205
 7323TIP3   OH221925   4.674   3.982   1.802
 7323TIP3    H121926   4.644   3.921   1.735
 7323TIP3    H221927   4.646   4.068   1.770
 7324TIP3   OH221928   7.260   5.023   1.302
 7324TIP3    H121929   7.260   4.941   1.352
 7324TIP3    H221930   7.196   5.008   1.233
 7325TIP3   OH221931   2.964   7.676   5.006
 7325TIP3    H121932   2.989   7.609   5.069
 7325TIP3    H221933   3.038   7.737   5.004
 7326TIP3   OH221934   7.801   6.759   6.615
 7326TIP3    H121935   7.782   6.719   6.530
 7326TIP3    H221936   7.837   6.845   6.594
 7327TIP3   OH221937   1.749   3.731   0.471
 7327TIP3    H121938   1.841   3.758   0.463
 7327TIP3    H221939   1.711   3.746   0.385
 7328TIP3   OH221940   4.669   0.123   4.337
 7328TIP3    H121941   4.642   0.048   4.390
 7328TIP3    H221942   4.595   0.184   4.344
 7329TIP3   OH221943   5.643   3.201   2.546
 7329TIP3    H121944   5.589   3.252   2.485
 7329TIP3    H221945   5.614   3.111   2.533
 7330TIP3   OH221946   0.230   4.033   4.915
 7330TIP3    H121947   0.213   3.976   4.839
 7330TIP3    H221948   0.278   3.977   4.976
 7331TIP3   OH221949   4.591   0.432   0.565
 7331TIP3    H121950   4.579   0.527   0.562
 7331TIP3    H221951   4.516   0.400   0.614
 7332TIP3   OH221952   4.489   0.886   0.904
 7332TIP3    H121953   4.517   0.973   0.875
 7332TIP3    H221954   4.409   0.902   0.954
 7333TIP3   OH221955   6.339   3.958   4.700
 7333TIP3    H121956   6.337   3.877   4.649
 7333TIP3    H221957   6.415   3.948   4.758
 7334TIP3   OH221958   0.774   3.189   4.874
 7334TIP3    H121959   0.781   3.094   4.862
 7334TIP3    H221960   0.750   3.222   4.788
 7335TIP3   OH221961   5.328   6.104   5.702
 7335TIP3    H121962   5.307   6.094   5.795
 7335TIP3    H221963   5.372   6.023   5.678
 7336TIP3   OH221964   0.162   7.586   2.123
 7336TIP3    H121965   0.069   7.569   2.107
 7336TIP3    H221966   0.184   7.527   2.196
 7337TIP3   OH221967   1.404   3.748   0.908
 7337TIP3    H121968   1.482   3.749   0.962
 7337TIP3    H221969   1.436   3.732   0.819
 7338TIP3   OH221970   5.254   1.669   6.056
 7338TIP3    H121971   5.327   1.693   6.112
 7338TIP3    H221972   5.214   1.594   6.099
 7339TIP3   OH221973   7.628   2.698   6.077
 7339TIP3    H121974   7.688   2.731   6.011
 7339TIP3    H221975   7.558   2.655   6.028
 7340TIP3   OH221976   6.712   5.929   6.567
 7340TIP3    H121977   6.769   5.979   6.509
 7340TIP3    H221978   6.696   5.986   6.641
 7341TIP3   OH221979   5.966   4.194   6.288
 7341TIP3    H121980   5.895   4.160   6.234
 7341TIP3    H221981   6.044   4.187   6.232
 7342TIP3   OH221982   7.727   6.539   1.679
 7342TIP3    H121983   7.704   6.631   1.669
 7342TIP3    H221984   7.765   6.533   1.766
 7343TIP3   OH221985   8.277   0.615   1.545
 7343TIP3    H121986   8.272   0.547   1.478
 7343TIP3    H221987   8.356   0.594   1.595
 7344TIP3   OH221988   4.562   6.624   0.324
 7344TIP3    H121989   4.488   6.605   0.265
 7344TIP3    H221990   4.573   6.719   0.317
 7345TIP3   OH221991   5.384   4.235   5.404
 7345TIP3    H121992   5.338   4.318   5.415
 7345TIP3    H221993   5.369   4.211   5.313
 7346TIP3   OH221994   2.230   2.364   1.278
 7346TIP3    H121995   2.215   2.411   1.195
 7346TIP3    H221996   2.178   2.284   1.270
 7347TIP3   OH221997   1.960   1.394   6.577
 7347TIP3    H121998   1.889   1.360   6.523
 7347TIP3    H221999   1.917   1.455   6.637
 7348TIP3   OH222000   3.646   6.344   6.693
 7348TIP3    H122001   3.664   6.401   6.618
 7348TIP3    H222002   3.672   6.396   6.769
 7349TIP3   OH222003   3.187   4.991   5.021
 7349TIP3    H122004   3.262   4.995   4.961
 7349TIP3    H222005   3.111   5.006   4.964
 7350TIP3   OH222006   2.577   4.641   3.762
 7350TIP3    H122007   2.517   4.640   3.837
 7350TIP3    H222008   2.613   4.729   3.761
 7351TIP3   OH222009   7.343   2.437   2.600
 7351TIP3    H122010   7.313   2.354   2.562
 7351TIP3    H222011   7.308   2.436   2.689
 7352TIP3   OH222012   2.228   5.186   2.266
 7352TIP3    H122013   2.259   5.183   2.357
 7352TIP3    H222014   2.304   5.212   2.215
 7353TIP3   OH222015   2.751   6.879   6.254
 7353TIP3    H122016   2.831   6.873   6.202
 7353TIP3    H222017   2.710   6.793   6.244
 7354TIP3   OH222018   7.256   7.139   0.139
 7354TIP3    H122019   7.187   7.080   0.169
 7354TIP3    H222020   7.215   7.193   0.072
 7355TIP3   OH222021   6.400   2.998   2.570
 7355TIP3    H122022   6.333   2.938   2.539
 7355TIP3    H222023   6.456   2.946   2.627
 7356TIP3   OH222024   0.473   3.969   0.132
 7356TIP3    H122025   0.564   3.988   0.155
 7356TIP3    H222026   0.473   3.960   0.037
 7357TIP3   OH222027   5.560   0.378   3.762
 7357TIP3    H122028   5.548   0.311   3.695
 7357TIP3    H222029   5.472   0.410   3.781
 7358TIP3   OH222030   5.168   2.034   2.818
 7358TIP3    H122031   5.187   1.949   2.777
 7358TIP3    H222032   5.109   2.077   2.756
 7359TIP3   OH222033   3.351   5.211   3.429
 7359TIP3    H122034   3.386   5.144   3.371
 7359TIP3    H222035   3.427   5.260   3.459
 7360TIP3   OH222036   1.587   2.418   6.121
 7360TIP3    H122037   1.613   2.402   6.212
 7360TIP3    H222038   1.663   2.459   6.081
 7361TIP3   OH222039   4.906   4.719   0.817
 7361TIP3    H122040   4.892   4.813   0.815
 7361TIP3    H222041   4.939   4.701   0.905
 7362TIP3   OH222042   1.206   4.105   3.627
 7362TIP3    H122043   1.143   4.170   3.594
 7362TIP3    H222044   1.287   4.154   3.639
 7363TIP3   OH222045   6.635   3.047   0.782
 7363TIP3    H122046   6.719   3.038   0.736
 7363TIP3    H222047   6.590   2.964   0.767
 7364TIP3   OH222048   3.838   7.547   1.291
 7364TIP3    H122049   3.884   7.558   1.208
 7364TIP3    H222050   3.821   7.636   1.321
 7365TIP3   OH222051   2.923   6.303   3.144
 7365TIP3    H122052   2.847   6.246   3.156
 7365TIP3    H222053   2.888   6.392   3.150
 7366TIP3   OH222054   3.387   3.058   3.231
 7366TIP3    H122055   3.405   3.050   3.138
 7366TIP3    H222056   3.299   3.022   3.242
 7367TIP3   OH222057   3.481   4.750   3.296
 7367TIP3    H122058   3.454   4.717   3.210
 7367TIP3    H222059   3.480   4.673   3.353
 7368TIP3   OH222060   0.279   1.218   3.370
 7368TIP3    H122061   0.375   1.215   3.368
 7368TIP3    H222062   0.257   1.194   3.460
 7369TIP3   OH222063   7.913   4.523   0.766
 7369TIP3    H122064   7.906   4.616   0.786
 7369TIP3    H222065   7.836   4.483   0.806
 7370TIP3   OH222066   5.969   0.256   6.069
 7370TIP3    H122067   5.996   0.174   6.112
 7370TIP3    H222068   5.874   0.251   6.066
 7371TIP3   OH222069   7.892   7.611   3.461
 7371TIP3    H122070   7.945   7.616   3.541
 7371TIP3    H222071   7.910   7.693   3.416
 7372TIP3   OH222072   8.187   0.523   0.693
 7372TIP3    H122073   8.177   0.476   0.776
 7372TIP3    H222074   8.144   0.607   0.708
 7373TIP3   OH222075   6.235   7.011   4.838
 7373TIP3    H122076   6.160   7.034   4.894
 7373TIP3    H222077   6.201   6.942   4.781
 7374TIP3   OH222078   5.440   2.307   1.740
 7374TIP3    H122079   5.441   2.345   1.828
 7374TIP3    H222080   5.353   2.328   1.706
 7375TIP3   OH222081   7.428   2.609   5.880
 7375TIP3    H122082   7.463   2.613   5.791
 7375TIP3    H222083   7.360   2.676   5.883
 7376TIP3   OH222084   5.982   7.099   3.731
 7376TIP3    H122085   6.004   7.091   3.824
 7376TIP3    H222086   5.918   7.170   3.727
 7377TIP3   OH222087   0.226   3.282   1.392
 7377TIP3    H122088   0.169   3.352   1.358
 7377TIP3    H222089   0.285   3.262   1.320
 7378TIP3   OH222090   5.069   0.632   0.202
 7378TIP3    H122091   5.023   0.573   0.143
 7378TIP3    H222092   5.114   0.575   0.264
 7379TIP3   OH222093   7.883   6.014   4.815
 7379TIP3    H122094   7.950   6.077   4.789
 7379TIP3    H222095   7.801   6.062   4.811
 7380TIP3   OH222096   0.176   4.797   4.869
 7380TIP3    H122097   0.134   4.715   4.843
 7380TIP3    H222098   0.222   4.826   4.790
 7381TIP3   OH222099   4.074   4.838   2.464
 7381TIP3    H122100   4.101   4.798   2.547
 7381TIP3    H222101   4.132   4.798   2.399
 7382TIP3   OH222102   5.742   1.338   4.630
 7382TIP3    H122103   5.728   1.365   4.540
 7382TIP3    H222104   5.810   1.397   4.662
 7383TIP3   OH222105   8.185   1.034   5.913
 7383TIP3    H122106   8.151   1.109   5.963
 7383TIP3    H222107   8.154   0.957   5.960
 7384TIP3   OH222108   7.676   4.301   5.211
 7384TIP3    H122109   7.597   4.272   5.166
 7384TIP3    H222110   7.702   4.226   5.264
 7385TIP3   OH222111   1.560   6.511   5.412
 7385TIP3    H122112   1.524   6.589   5.371
 7385TIP3    H222113   1.489   6.446   5.408
 7386TIP3   OH222114   5.768   2.422   4.507
 7386TIP3    H122115   5.718   2.340   4.497
 7386TIP3    H222116   5.701   2.490   4.515
 7387TIP3   OH222117   6.813   6.301   3.554
 7387TIP3    H122118   6.767   6.273   3.633
 7387TIP3    H222119   6.871   6.228   3.533
 7388TIP3   OH222120   7.266   6.827   5.520
 7388TIP3    H122121   7.342   6.791   5.474
 7388TIP3    H222122   7.292   6.915   5.545
 7389TIP3   OH222123   7.345   5.514   6.512
 7389TIP3    H122124   7.412   5.535   6.446
 7389TIP3    H222125   7.275   5.472   6.462
 7390TIP3   OH222126   3.015   3.539   1.211
 7390TIP3    H122127   3.071   3.466   1.185
 7390TIP3    H222128   2.928   3.500   1.222
 7391TIP3   OH222129   1.327   6.143   0.058
 7391TIP3    H122130   1.328   6.102  -0.029
 7391TIP3    H222131   1.416   6.176   0.070
 7392TIP3   OH222132   8.151   0.358   0.911
 7392TIP3    H122133   8.120   0.378   1.000
 7392TIP3    H222134   8.161   0.263   0.911
 7393TIP3   OH222135   6.241   5.414   6.211
 7393TIP3    H122136   6.316   5.448   6.260
 7393TIP3    H222137   6.226   5.327   6.248
 7394TIP3   OH222138   7.191   5.297   6.268
 7394TIP3    H122139   7.262   5.232   6.265
 7394TIP3    H222140   7.140   5.273   6.346
 7395TIP3   OH222141   6.293   0.856   5.417
 7395TIP3    H122142   6.247   0.785   5.372
 7395TIP3    H222143   6.277   0.839   5.510
 7396TIP3   OH222144   4.461   2.408   2.297
 7396TIP3    H122145   4.542   2.437   2.256
 7396TIP3    H222146   4.465   2.312   2.293
 7397TIP3   OH222147   1.305   0.750   6.658
 7397TIP3    H122148   1.388   0.766   6.613
 7397TIP3    H222149   1.240   0.798   6.606
 7398TIP3   OH222150   0.742   2.182   4.905
 7398TIP3    H122151   0.678   2.126   4.859
 7398TIP3    H222152   0.754   2.139   4.990
 7399TIP3   OH222153   3.547   2.995   4.144
 7399TIP3    H122154   3.599   3.020   4.221
 7399TIP3    H222155   3.463   2.965   4.180
 7400TIP3   OH222156   1.397   1.529   5.167
 7400TIP3    H122157   1.389   1.516   5.261
 7400TIP3    H222158   1.322   1.481   5.130
 7401TIP3   OH222159   5.485   2.015   4.841
 7401TIP3    H122160   5.466   2.107   4.822
 7401TIP3    H222161   5.451   2.001   4.930
 7402TIP3   OH222162   4.247   4.868   4.494
 7402TIP3    H122163   4.330   4.824   4.513
 7402TIP3    H222164   4.243   4.871   4.399
 7403TIP3   OH222165   2.253   0.433   5.135
 7403TIP3    H122166   2.328   0.381   5.110
 7403TIP3    H222167   2.186   0.412   5.070
 7404TIP3   OH222168   2.946   1.348   1.905
 7404TIP3    H122169   2.925   1.255   1.898
 7404TIP3    H222170   2.993   1.368   1.824
 7405TIP3   OH222171   1.690   3.300   5.455
 7405TIP3    H122172   1.751   3.367   5.425
 7405TIP3    H222173   1.712   3.289   5.548
 7406TIP3   OH222174   5.549   0.044   0.358
 7406TIP3    H122175   5.620   0.108   0.353
 7406TIP3    H222176   5.534   0.018   0.266
 7407TIP3   OH222177   2.851   1.136   6.023
 7407TIP3    H122178   2.894   1.113   5.940
 7407TIP3    H222179   2.867   1.060   6.080
 7408TIP3   OH222180   7.260   1.787   2.551
 7408TIP3    H122181   7.306   1.729   2.490
 7408TIP3    H222182   7.320   1.795   2.625
 7409TIP3   OH222183   7.679   7.411   1.065
 7409TIP3    H122184   7.732   7.415   1.145
 7409TIP3    H222185   7.737   7.443   0.996
 7410TIP3   OH222186   4.633   3.374   0.733
 7410TIP3    H122187   4.635   3.447   0.671
 7410TIP3    H222188   4.696   3.311   0.698
 7411TIP3   OH222189   0.943   2.649   4.892
 7411TIP3    H122190   1.029   2.607   4.892
 7411TIP3    H222191   0.955   2.727   4.946
 7412TIP3   OH222192   1.047   3.080   6.387
 7412TIP3    H122193   1.021   3.057   6.298
 7412TIP3    H222194   1.046   3.176   6.388
 7413TIP3   OH222195   1.901   4.723   1.400
 7413TIP3    H122196   1.951   4.676   1.333
 7413TIP3    H222197   1.810   4.696   1.385
 7414TIP3   OH222198   0.204   1.633   1.545
 7414TIP3    H122199   0.259   1.571   1.594
 7414TIP3    H222200   0.152   1.677   1.612
 7415TIP3   OH222201   0.852   6.599   3.067
 7415TIP3    H122202   0.777   6.574   3.122
 7415TIP3    H222203   0.814   6.646   2.994
 7416TIP3   OH222204   4.921   2.631   1.162
 7416TIP3    H122205   4.867   2.704   1.132
 7416TIP3    H222206   4.886   2.609   1.248
 7417TIP3   OH222207   6.941   4.056   0.455
 7417TIP3    H122208   6.946   3.971   0.498
 7417TIP3    H222209   6.920   4.036   0.363
 7418TIP3   OH222210   1.262   3.076   0.630
 7418TIP3    H122211   1.280   3.009   0.697
 7418TIP3    H222212   1.170   3.097   0.642
 7419TIP3   OH222213   3.552   7.758   6.488
 7419TIP3    H122214   3.591   7.732   6.571
 7419TIP3    H222215   3.550   7.854   6.491
 7420TIP3   OH222216   5.538   1.078   0.719
 7420TIP3    H122217   5.563   1.163   0.682
 7420TIP3    H222218   5.458   1.054   0.672
 7421TIP3   OH222219   6.556   5.175   0.767
 7421TIP3    H122220   6.509   5.251   0.734
 7421TIP3    H222221   6.648   5.200   0.765
 7422TIP3   OH222222   5.627   7.179   4.384
 7422TIP3    H122223   5.662   7.137   4.306
 7422TIP3    H222224   5.675   7.262   4.390
 7423TIP3   OH222225   3.228   3.306   3.713
 7423TIP3    H122226   3.268   3.261   3.788
 7423TIP3    H222227   3.214   3.237   3.648
 7424TIP3   OH222228   6.854   7.735   1.169
 7424TIP3    H122229   6.785   7.675   1.196
 7424TIP3    H222230   6.809   7.803   1.118
 7425TIP3   OH222231   7.272   7.218   2.307
 7425TIP3    H122232   7.210   7.168   2.253
 7425TIP3    H222233   7.347   7.232   2.250
 7426TIP3   OH222234   2.830   2.527   0.330
 7426TIP3    H122235   2.791   2.513   0.417
 7426TIP3    H222236   2.791   2.609   0.299
 7427TIP3   OH222237   7.782   0.496   2.323
 7427TIP3    H122238   7.808   0.465   2.236
 7427TIP3    H222239   7.824   0.582   2.331
 7428TIP3   OH222240   7.758   6.209   1.806
 7428TIP3    H122241   7.669   6.189   1.779
 7428TIP3    H222242   7.755   6.301   1.833
 7429TIP3   OH222243   3.988   1.163   5.590
 7429TIP3    H122244   3.909   1.197   5.631
 7429TIP3    H222245   3.964   1.152   5.498
 7430TIP3   OH222246   2.461   4.629   1.260
 7430TIP3    H122247   2.416   4.647   1.177
 7430TIP3    H222248   2.479   4.716   1.297
 7431TIP3   OH222249   2.808   0.919   6.535
 7431TIP3    H122250   2.885   0.917   6.592
 7431TIP3    H222251   2.770   0.831   6.543
 7432TIP3   OH222252   6.696   2.357   3.813
 7432TIP3    H122253   6.788   2.380   3.805
 7432TIP3    H222254   6.682   2.290   3.746
 7433TIP3   OH222255   8.046   1.442   1.694
 7433TIP3    H122256   7.953   1.433   1.676
 7433TIP3    H222257   8.078   1.503   1.627
 7434TIP3   OH222258   7.638   1.605   1.186
 7434TIP3    H122259   7.652   1.562   1.270
 7434TIP3    H222260   7.587   1.542   1.135
 7435TIP3   OH222261   6.133   1.305   1.599
 7435TIP3    H122262   6.078   1.276   1.672
 7435TIP3    H222263   6.072   1.343   1.536
 7436TIP3   OH222264   2.550   7.508   0.492
 7436TIP3    H122265   2.628   7.525   0.439
 7436TIP3    H222266   2.582   7.458   0.567
 7437TIP3   OH222267   2.076   2.460   5.280
 7437TIP3    H122268   1.995   2.495   5.243
 7437TIP3    H222269   2.137   2.534   5.278
 7438TIP3   OH222270   7.982   5.021   1.147
 7438TIP3    H122271   8.062   4.968   1.145
 7438TIP3    H222272   8.012   5.110   1.129
 7439TIP3   OH222273   5.020   4.302   5.535
 7439TIP3    H122274   5.076   4.261   5.601
 7439TIP3    H222275   4.933   4.269   5.552
 7440TIP3   OH222276   0.797   0.391   3.882
 7440TIP3    H122277   0.838   0.305   3.894
 7440TIP3    H222278   0.756   0.410   3.967
 7441TIP3   OH222279   0.053   5.871   2.469
 7441TIP3    H122280  -0.009   5.930   2.512
 7441TIP3    H222281   0.131   5.925   2.457
 7442TIP3   OH222282   5.441   5.400   3.105
 7442TIP3    H122283   5.521   5.411   3.157
 7442TIP3    H222284   5.458   5.322   3.052
 7443TIP3   OH222285   6.927   0.761   6.093
 7443TIP3    H122286   6.840   0.780   6.127
 7443TIP3    H222287   6.925   0.669   6.069
 7444TIP3   OH222288   4.358   5.699   4.015
 7444TIP3    H122289   4.389   5.611   4.037
 7444TIP3    H222290   4.279   5.711   4.069
 7445TIP3   OH222291   1.389   0.941   2.323
 7445TIP3    H122292   1.414   1.024   2.283
 7445TIP3    H222293   1.468   0.887   2.319
 7446TIP3   OH222294   0.615   2.140   2.221
 7446TIP3    H122295   0.677   2.100   2.282
 7446TIP3    H222296   0.561   2.068   2.190
 7447TIP3   OH222297   7.586   7.278   0.618
 7447TIP3    H122298   7.631   7.196   0.638
 7447TIP3    H222299   7.640   7.319   0.550
 7448TIP3   OH222300   0.403   7.841   6.260
 7448TIP3    H122301   0.377   7.846   6.352
 7448TIP3    H222302   0.499   7.839   6.262
 7449TIP3   OH222303   3.750   6.907   3.392
 7449TIP3    H122304   3.758   6.999   3.416
 7449TIP3    H222305   3.755   6.860   3.476
 7450TIP3   OH222306   6.524   0.151   0.039
 7450TIP3    H122307   6.575   0.081  -0.001
 7450TIP3    H222308   6.434   0.119   0.036
 7451TIP3   OH222309   0.524   1.269   1.334
 7451TIP3    H122310   0.430   1.261   1.350
 7451TIP3    H222311   0.551   1.181   1.307
 7452TIP3   OH222312   0.431   1.687   4.237
 7452TIP3    H122313   0.369   1.700   4.308
 7452TIP3    H222314   0.470   1.601   4.256
 7453TIP3   OH222315   3.208   2.356   1.646
 7453TIP3    H122316   3.230   2.270   1.682
 7453TIP3    H222317   3.175   2.405   1.721
 7454TIP3   OH222318   6.121   0.401   4.818
 7454TIP3    H122319   6.189   0.352   4.865
 7454TIP3    H222320   6.042   0.390   4.871
 7455TIP3   OH222321   4.585   4.213   6.750
 7455TIP3    H122322   4.675   4.188   6.727
 7455TIP3    H222323   4.530   4.152   6.701
 7456TIP3   OH222324   3.541   6.035   5.222
 7456TIP3    H122325   3.450   6.036   5.249
 7456TIP3    H222326   3.576   6.118   5.254
 7457TIP3   OH222327   2.842   3.133   4.316
 7457TIP3    H122328   2.928   3.150   4.354
 7457TIP3    H222329   2.853   3.154   4.223
 7458TIP3   OH222330   7.609   2.373   6.693
 7458TIP3    H122331   7.601   2.417   6.609
 7458TIP3    H222332   7.690   2.408   6.731
 7459TIP3   OH222333   7.585   7.006   2.035
 7459TIP3    H122334   7.556   7.093   2.062
 7459TIP3    H222335   7.614   6.964   2.116
 7460TIP3   OH222336   4.914   7.116   5.199
 7460TIP3    H122337   4.996   7.160   5.224
 7460TIP3    H222338   4.924   7.027   5.234
 7461TIP3   OH222339   2.700   7.725   4.937
 7461TIP3    H122340   2.713   7.816   4.909
 7461TIP3    H222341   2.785   7.699   4.973
 7462TIP3   OH222342   0.982   1.854   1.527
 7462TIP3    H122343   1.029   1.910   1.589
 7462TIP3    H222344   1.022   1.872   1.442
 7463TIP3   OH222345   3.485   2.900   6.010
 7463TIP3    H122346   3.395   2.881   5.982
 7463TIP3    H222347   3.495   2.851   6.091
 7464TIP3   OH222348   3.654   1.319   4.126
 7464TIP3    H122349   3.726   1.348   4.070
 7464TIP3    H222350   3.576   1.358   4.086
 7465TIP3   OH222351   1.953   4.980   1.188
 7465TIP3    H122352   1.924   4.933   1.110
 7465TIP3    H222353   1.874   4.988   1.241
 7466TIP3   OH222354   3.940   0.556   1.137
 7466TIP3    H122355   3.975   0.610   1.066
 7466TIP3    H222356   3.859   0.520   1.102
 7467TIP3   OH222357   6.493   3.352   0.128
 7467TIP3    H122358   6.453   3.344   0.214
 7467TIP3    H222359   6.464   3.274   0.080
 7468TIP3   OH222360   7.437   5.494   5.707
 7468TIP3    H122361   7.353   5.447   5.696
 7468TIP3    H222362   7.452   5.494   5.801
 7469TIP3   OH222363   0.663   2.311   4.090
 7469TIP3    H122364   0.710   2.232   4.115
 7469TIP3    H222365   0.654   2.360   4.172
 7470TIP3   OH222366   5.039   0.919   4.228
 7470TIP3    H122367   5.124   0.924   4.186
 7470TIP3    H222368   5.011   1.010   4.239
 7471TIP3   OH222369   3.306   2.829   6.697
 7471TIP3    H122370   3.283   2.736   6.695
 7471TIP3    H222371   3.334   2.845   6.787
 7472TIP3   OH222372   6.015   1.601   1.903
 7472TIP3    H122373   6.067   1.527   1.873
 7472TIP3    H222374   6.025   1.667   1.834
 7473TIP3   OH222375   6.966   1.141   4.666
 7473TIP3    H122376   6.922   1.159   4.583
 7473TIP3    H222377   6.999   1.052   4.658
 7474TIP3   OH222378   1.507   7.220   1.455
 7474TIP3    H122379   1.559   7.264   1.387
 7474TIP3    H222380   1.542   7.132   1.459
 7475TIP3   OH222381   1.560   4.466   1.906
 7475TIP3    H122382   1.571   4.562   1.909
 7475TIP3    H222383   1.466   4.453   1.919
 7476TIP3   OH222384   4.914   7.010   1.164
 7476TIP3    H122385   4.904   6.976   1.074
 7476TIP3    H222386   4.963   7.091   1.154
 7477TIP3   OH222387   1.759   1.119   4.130
 7477TIP3    H122388   1.706   1.059   4.077
 7477TIP3    H222389   1.849   1.090   4.117
 7478TIP3   OH222390   7.081   5.893   1.566
 7478TIP3    H122391   7.121   5.806   1.571
 7478TIP3    H222392   7.006   5.881   1.508
 7479TIP3   OH222393   7.193   7.114   3.079
 7479TIP3    H122394   7.211   7.046   3.145
 7479TIP3    H222395   7.101   7.136   3.093
 7480TIP3   OH222396   7.906   6.827   0.636
 7480TIP3    H122397   7.846   6.775   0.689
 7480TIP3    H222398   7.992   6.809   0.674
 7481TIP3   OH222399   5.327   6.861   3.180
 7481TIP3    H122400   5.264   6.873   3.251
 7481TIP3    H222401   5.331   6.767   3.167
 7482TIP3   OH222402   1.346   7.637   1.675
 7482TIP3    H122403   1.256   7.615   1.653
 7482TIP3    H222404   1.396   7.558   1.655
 7483TIP3   OH222405   3.391   0.594   4.852
 7483TIP3    H122406   3.422   0.601   4.762
 7483TIP3    H222407   3.357   0.681   4.872
 7484TIP3   OH222408   7.098   4.123   1.678
 7484TIP3    H122409   7.005   4.121   1.698
 7484TIP3    H222410   7.104   4.094   1.588
 7485TIP3   OH222411   6.905   1.002   3.285
 7485TIP3    H122412   6.866   1.051   3.357
 7485TIP3    H222413   6.846   1.015   3.211
 7486TIP3   OH222414   5.071   7.243   0.375
 7486TIP3    H122415   5.120   7.168   0.407
 7486TIP3    H222416   4.980   7.213   0.371
 7487TIP3   OH222417   4.430   3.992   2.657
 7487TIP3    H122418   4.361   4.051   2.628
 7487TIP3    H222419   4.460   3.948   2.577
 7488TIP3   OH222420   6.662   2.319   4.286
 7488TIP3    H122421   6.754   2.343   4.289
 7488TIP3    H222422   6.657   2.239   4.339
 7489TIP3   OH222423   3.436   1.958   0.288
 7489TIP3    H122424   3.439   2.006   0.371
 7489TIP3    H222425   3.517   1.906   0.288
 7490TIP3   OH222426   4.278   2.099   3.578
 7490TIP3    H122427   4.257   2.111   3.671
 7490TIP3    H222428   4.362   2.052   3.579
 7491TIP3   OH222429   2.152   3.592   5.263
 7491TIP3    H122430   2.180   3.651   5.193
 7491TIP3    H222431   2.146   3.506   5.221
 7492TIP3   OH222432   4.786   4.100   1.057
 7492TIP3    H122433   4.874   4.138   1.057
 7492TIP3    H222434   4.736   4.155   0.997
 7493TIP3   OH222435   6.374   3.425   0.852
 7493TIP3    H122436   6.283   3.400   0.838
 7493TIP3    H222437   6.398   3.384   0.935
 7494TIP3   OH222438   5.767   7.015   1.722
 7494TIP3    H122439   5.718   6.933   1.716
 7494TIP3    H222440   5.817   7.019   1.640
 7495TIP3   OH222441   8.265   6.388   3.686
 7495TIP3    H122442   8.238   6.347   3.604
 7495TIP3    H222443   8.183   6.401   3.734
 7496TIP3   OH222444   1.772   7.344   0.026
 7496TIP3    H122445   1.749   7.437   0.025
 7496TIP3    H222446   1.841   7.337   0.092
 7497TIP3   OH222447   4.324   0.688   1.991
 7497TIP3    H122448   4.280   0.768   2.020
 7497TIP3    H222449   4.252   0.629   1.968
 7498TIP3   OH222450   7.019   2.101   6.005
 7498TIP3    H122451   6.983   2.080   5.919
 7498TIP3    H222452   6.980   2.186   6.027
 7499TIP3   OH222453   3.226   5.907   3.853
 7499TIP3    H122454   3.318   5.936   3.854
 7499TIP3    H222455   3.183   5.960   3.919
 7500TIP3   OH222456   2.546   2.311   5.054
 7500TIP3    H122457   2.624   2.352   5.091
 7500TIP3    H222458   2.540   2.227   5.100
 7501TIP3   OH222459   2.698   1.270   0.909
 7501TIP3    H122460   2.680   1.190   0.959
 7501TIP3    H222461   2.769   1.313   0.957
 7502TIP3   OH222462  -0.027   2.602   1.926
 7502TIP3    H122463   0.009   2.521   1.963
 7502TIP3    H222464   0.029   2.620   1.850
 7503TIP3   OH222465   6.672   6.462   5.403
 7503TIP3    H122466   6.656   6.547   5.444
 7503TIP3    H222467   6.627   6.399   5.460
 7504TIP3   OH222468   1.592   6.350   6.041
 7504TIP3    H122469   1.537   6.427   6.056
 7504TIP3    H222470   1.530   6.280   6.018
 7505TIP3   OH222471   4.390   4.345   2.785
 7505TIP3    H122472   4.435   4.421   2.822
 7505TIP3    H222473   4.381   4.284   2.859
 7506TIP3   OH222474   3.696   3.501   2.359
 7506TIP3    H122475   3.707   3.551   2.440
 7506TIP3    H222476   3.783   3.466   2.341
 7507TIP3   OH222477   6.368   2.795   4.536
 7507TIP3    H122478   6.410   2.858   4.478
 7507TIP3    H222479   6.439   2.762   4.591
 7508TIP3   OH222480   7.524   4.453   4.205
 7508TIP3    H122481   7.445   4.484   4.249
 7508TIP3    H222482   7.503   4.457   4.112
 7509TIP3   OH222483   2.198   3.814   4.433
 7509TIP3    H122484   2.146   3.854   4.502
 7509TIP3    H222485   2.165   3.852   4.352
 7510TIP3   OH222486   7.565   4.964   6.064
 7510TIP3    H122487   7.619   4.971   6.142
 7510TIP3    H222488   7.610   4.899   6.010
 7511TIP3   OH222489   3.611   2.924   1.825
 7511TIP3    H122490   3.579   2.992   1.764
 7511TIP3    H222491   3.544   2.920   1.893
 7512TIP3   OH222492   2.003   1.759   5.750
 7512TIP3    H122493   2.042   1.823   5.691
 7512TIP3    H222494   1.999   1.803   5.835
 7513TIP3   OH222495   3.968   1.512   5.294
 7513TIP3    H122496   3.915   1.586   5.264
 7513TIP3    H222497   3.977   1.527   5.388
 7514TIP3   OH222498   1.937   4.976   0.867
 7514TIP3    H122499   2.011   4.929   0.906
 7514TIP3    H222500   1.977   5.051   0.823
 7515TIP3   OH222501   4.400   7.787   4.598
 7515TIP3    H122502   4.424   7.763   4.508
 7515TIP3    H222503   4.419   7.708   4.649
 7516TIP3   OH222504   0.427   6.562   2.802
 7516TIP3    H122505   0.416   6.651   2.769
 7516TIP3    H222506   0.463   6.513   2.727
 7517TIP3   OH222507   3.049   7.348   1.180
 7517TIP3    H122508   3.090   7.265   1.154
 7517TIP3    H222509   3.102   7.415   1.138
 7518TIP3   OH222510   1.657   3.655   3.940
 7518TIP3    H122511   1.691   3.709   3.868
 7518TIP3    H222512   1.721   3.665   4.010
 7519TIP3   OH222513   6.193   4.960   6.537
 7519TIP3    H122514   6.240   5.027   6.586
 7519TIP3    H222515   6.243   4.879   6.551
 7520TIP3   OH222516   4.511   3.536   5.982
 7520TIP3    H122517   4.516   3.442   5.966
 7520TIP3    H222518   4.478   3.572   5.900
 7521TIP3   OH222519   3.716   5.662   2.877
 7521TIP3    H122520   3.625   5.638   2.898
 7521TIP3    H222521   3.768   5.587   2.907
 7522TIP3   OH222522   8.208   2.399   3.953
 7522TIP3    H122523   8.244   2.400   4.042
 7522TIP3    H222524   8.117   2.371   3.964
 7523TIP3   OH222525   7.124   3.973   1.895
 7523TIP3    H122526   7.204   3.921   1.880
 7523TIP3    H222527   7.089   3.989   1.808
 7524TIP3   OH222528   2.281   5.044   0.403
 7524TIP3    H122529   2.192   5.033   0.370
 7524TIP3    H222530   2.312   4.954   0.417
 7525TIP3   OH222531   4.495   5.676   2.483
 7525TIP3    H122532   4.587   5.699   2.472
 7525TIP3    H222533   4.460   5.669   2.395
 7526TIP3   OH222534   0.210   0.498   4.653
 7526TIP3    H122535   0.148   0.460   4.714
 7526TIP3    H222536   0.258   0.563   4.704
 7527TIP3   OH222537   2.900   3.881   4.775
 7527TIP3    H122538   2.850   3.932   4.711
 7527TIP3    H222539   2.991   3.894   4.749
 7528TIP3   OH222540   0.021   5.286   4.948
 7528TIP3    H122541   0.090   5.222   4.967
 7528TIP3    H222542   0.067   5.363   4.917
 7529TIP3   OH222543   1.657   6.546   0.009
 7529TIP3    H122544   1.750   6.526   0.011
 7529TIP3    H222545   1.650   6.632   0.051
 7530TIP3   OH222546   5.407   3.563   0.765
 7530TIP3    H122547   5.329   3.536   0.717
 7530TIP3    H222548   5.448   3.482   0.795
 7531TIP3   OH222549   3.360   7.771   5.852
 7531TIP3    H122550   3.432   7.719   5.888
 7531TIP3    H222551   3.287   7.710   5.846
 7532TIP3   OH222552   5.888   7.651   6.588
 7532TIP3    H122553   5.926   7.625   6.672
 7532TIP3    H222554   5.849   7.737   6.606
 7533TIP3   OH222555   0.003   3.529   5.456
 7533TIP3    H122556  -0.013   3.436   5.438
 7533TIP3    H222557   0.084   3.549   5.409
 7534TIP3   OH222558   1.000   4.836   3.933
 7534TIP3    H122559   0.963   4.802   4.014
 7534TIP3    H222560   0.989   4.930   3.939
 7535TIP3   OH222561   7.375   5.677   2.666
 7535TIP3    H122562   7.330   5.709   2.588
 7535TIP3    H222563   7.433   5.608   2.633
 7536TIP3   OH222564   6.778   7.215   5.969
 7536TIP3    H122565   6.806   7.249   6.054
 7536TIP3    H222566   6.853   7.166   5.936
 7537TIP3   OH222567   3.023   7.055   2.436
 7537TIP3    H122568   2.976   7.018   2.511
 7537TIP3    H222569   2.995   7.004   2.361
 7538TIP3   OH222570   1.369   5.721   5.311
 7538TIP3    H122571   1.412   5.693   5.392
 7538TIP3    H222572   1.423   5.794   5.280
 7539TIP3   OH222573   7.539   3.083   1.701
 7539TIP3    H122574   7.539   3.126   1.787
 7539TIP3    H222575   7.632   3.083   1.676
 7540TIP3   OH222576   4.893   4.396   0.611
 7540TIP3    H122577   4.909   4.307   0.578
 7540TIP3    H222578   4.863   4.445   0.534
 7541TIP3   OH222579   4.487   1.476   1.096
 7541TIP3    H122580   4.517   1.541   1.032
 7541TIP3    H222581   4.450   1.527   1.168
 7542TIP3   OH222582   4.007   3.811   1.408
 7542TIP3    H122583   4.062   3.754   1.356
 7542TIP3    H222584   3.926   3.820   1.357
 7543TIP3   OH222585   4.220   3.942   3.625
 7543TIP3    H122586   4.291   4.006   3.622
 7543TIP3    H222587   4.226   3.902   3.711
 7544TIP3   OH222588   4.092   4.664   4.250
 7544TIP3    H122589   4.130   4.586   4.208
 7544TIP3    H222590   4.133   4.738   4.204
 7545TIP3   OH222591   3.447   3.957   1.925
 7545TIP3    H122592   3.458   3.869   1.888
 7545TIP3    H222593   3.373   3.948   1.986
 7546TIP3   OH222594   4.877   0.062   2.405
 7546TIP3    H122595   4.949   0.077   2.343
 7546TIP3    H222596   4.892  -0.026   2.439
 7547TIP3   OH222597   0.146   2.156   1.951
 7547TIP3    H122598   0.151   2.240   1.906
 7547TIP3    H222599   0.109   2.096   1.887
 7548TIP3   OH222600   7.243   3.847   0.853
 7548TIP3    H122601   7.338   3.850   0.865
 7548TIP3    H222602   7.221   3.934   0.818
 7549TIP3   OH222603   0.037   4.589   5.635
 7549TIP3    H122604  -0.020   4.517   5.608
 7549TIP3    H222605   0.015   4.603   5.727
 7550TIP3   OH222606   4.518   0.648   6.334
 7550TIP3    H122607   4.517   0.559   6.370
 7550TIP3    H222608   4.591   0.691   6.379
 7551TIP3   OH222609   8.048   3.127   3.752
 7551TIP3    H122610   8.046   3.173   3.835
 7551TIP3    H222611   8.049   3.034   3.775
 7552TIP3   OH222612   3.388   5.357   2.740
 7552TIP3    H122613   3.409   5.340   2.648
 7552TIP3    H222614   3.306   5.311   2.755
 7553TIP3   OH222615   1.899   3.832   5.577
 7553TIP3    H122616   1.893   3.926   5.557
 7553TIP3    H222617   1.811   3.799   5.561
 7554TIP3   OH222618   2.934   1.330   5.065
 7554TIP3    H122619   2.976   1.359   5.146
 7554TIP3    H222620   2.996   1.268   5.027
 7555TIP3   OH222621   3.717   0.790   1.213
 7555TIP3    H122622   3.671   0.803   1.131
 7555TIP3    H222623   3.648   0.766   1.276
 7556TIP3   OH222624   3.421   4.306   3.941
 7556TIP3    H122625   3.415   4.222   3.895
 7556TIP3    H222626   3.351   4.303   4.006
 7557TIP3   OH222627   2.269   0.647   1.780
 7557TIP3    H122628   2.215   0.589   1.834
 7557TIP3    H222629   2.205   0.704   1.737
 7558TIP3   OH222630   4.680   1.751   4.310
 7558TIP3    H122631   4.707   1.809   4.239
 7558TIP3    H222632   4.605   1.796   4.350
 7559TIP3   OH222633   5.067   2.638   3.958
 7559TIP3    H122634   5.043   2.701   3.890
 7559TIP3    H222635   5.017   2.559   3.935
 7560TIP3   OH222636   5.010   3.207   4.791
 7560TIP3    H122637   5.039   3.238   4.877
 7560TIP3    H222638   5.084   3.156   4.757
 7561TIP3   OH222639   3.302   2.732   4.461
 7561TIP3    H122640   3.266   2.696   4.380
 7561TIP3    H222641   3.256   2.816   4.473
 7562TIP3   OH222642   1.699   6.334   5.201
 7562TIP3    H122643   1.636   6.340   5.272
 7562TIP3    H222644   1.687   6.414   5.150
 7563TIP3   OH222645   6.390   5.666   3.556
 7563TIP3    H122646   6.308   5.683   3.601
 7563TIP3    H222647   6.421   5.752   3.528
 7564TIP3   OH222648   0.380   3.130   1.160
 7564TIP3    H122649   0.471   3.146   1.187
 7564TIP3    H222650   0.351   3.060   1.218
 7565TIP3   OH222651   4.003   3.081   4.603
 7565TIP3    H122652   3.992   3.034   4.520
 7565TIP3    H222653   4.041   3.016   4.662
 7566TIP3   OH222654   3.565   5.250   0.561
 7566TIP3    H122655   3.505   5.298   0.505
 7566TIP3    H222656   3.509   5.188   0.609
 7567TIP3   OH222657   4.767   7.697   2.976
 7567TIP3    H122658   4.728   7.737   3.054
 7567TIP3    H222659   4.808   7.617   3.008
 7568TIP3   OH222660   6.034   4.075   0.430
 7568TIP3    H122661   6.088   4.154   0.428
 7568TIP3    H222662   6.044   4.041   0.519
 7569TIP3   OH222663   7.998   2.825   3.019
 7569TIP3    H122664   8.034   2.737   3.011
 7569TIP3    H222665   8.072   2.884   3.007
 7570TIP3   OH222666   4.274  -0.040   6.548
 7570TIP3    H122667   4.206   0.020   6.579
 7570TIP3    H222668   4.328   0.013   6.490
 7571TIP3   OH222669   3.665   5.144   3.841
 7571TIP3    H122670   3.696   5.055   3.857
 7571TIP3    H222671   3.577   5.145   3.878
 7572TIP3   OH222672   0.478   5.615   1.428
 7572TIP3    H122673   0.425   5.552   1.476
 7572TIP3    H222674   0.549   5.637   1.488
 7573TIP3   OH222675   6.831   5.030   2.614
 7573TIP3    H122676   6.754   5.077   2.647
 7573TIP3    H222677   6.797   4.943   2.592
 7574TIP3   OH222678   7.483   4.553   0.683
 7574TIP3    H122679   7.512   4.521   0.769
 7574TIP3    H222680   7.505   4.482   0.623
 7575TIP3   OH222681   6.687   3.771   0.842
 7575TIP3    H122682   6.695   3.817   0.925
 7575TIP3    H222683   6.600   3.730   0.846
 7576TIP3   OH222684   3.872   4.990   5.010
 7576TIP3    H122685   3.883   5.019   5.101
 7576TIP3    H222686   3.874   4.894   5.015
 7577TIP3   OH222687   6.059   7.020   5.289
 7577TIP3    H122688   6.100   6.933   5.286
 7577TIP3    H222689   6.090   7.058   5.370
 7578TIP3   OH222690   7.969   7.244   2.124
 7578TIP3    H122691   7.956   7.236   2.218
 7578TIP3    H222692   7.912   7.316   2.098
 7579TIP3   OH222693   2.670   0.160   4.987
 7579TIP3    H122694   2.633   0.087   4.938
 7579TIP3    H222695   2.703   0.122   5.068
 7580TIP3   OH222696   3.234   1.144   2.149
 7580TIP3    H122697   3.250   1.180   2.236
 7580TIP3    H222698   3.317   1.153   2.103
 7581TIP3   OH222699   4.468   3.037   3.456
 7581TIP3    H122700   4.396   3.098   3.474
 7581TIP3    H222701   4.490   2.999   3.541
 7582TIP3   OH222702   7.823   4.693   2.023
 7582TIP3    H122703   7.742   4.719   1.979
 7582TIP3    H222704   7.884   4.764   2.004
 7583TIP3   OH222705   2.979   4.270   3.109
 7583TIP3    H122706   3.064   4.270   3.067
 7583TIP3    H222707   2.998   4.260   3.203
 7584TIP3   OH222708   5.551   2.283   6.541
 7584TIP3    H122709   5.491   2.233   6.596
 7584TIP3    H222710   5.509   2.368   6.531
 7585TIP3   OH222711   5.669   3.206   2.933
 7585TIP3    H122712   5.618   3.287   2.937
 7585TIP3    H222713   5.609   3.140   2.900
 7586TIP3   OH222714   1.308   5.794   4.038
 7586TIP3    H122715   1.275   5.883   4.052
 7586TIP3    H222716   1.262   5.764   3.959
 7587TIP3   OH222717   2.607   7.796   5.844
 7587TIP3    H122718   2.597   7.781   5.750
 7587TIP3    H222719   2.524   7.766   5.882
 7588TIP3   OH222720   4.525   0.964   3.786
 7588TIP3    H122721   4.450   0.977   3.728
 7588TIP3    H222722   4.587   0.914   3.732
 7589TIP3   OH222723   2.067   2.211   5.200
 7589TIP3    H122724   1.995   2.162   5.241
 7589TIP3    H222725   2.079   2.287   5.257
 7590TIP3   OH222726   5.480   1.264   6.157
 7590TIP3    H122727   5.507   1.330   6.222
 7590TIP3    H222728   5.489   1.308   6.073
 7591TIP3   OH222729   6.306   6.522   5.384
 7591TIP3    H122730   6.373   6.563   5.329
 7591TIP3    H222731   6.348   6.443   5.417
 7592TIP3   OH222732   2.601   5.467   5.150
 7592TIP3    H122733   2.581   5.478   5.056
 7592TIP3    H222734   2.598   5.373   5.164
 7593TIP3   OH222735   4.572   1.271   0.160
 7593TIP3    H122736   4.588   1.209   0.088
 7593TIP3    H222737   4.588   1.357   0.121
 7594TIP3   OH222738   1.463   5.293   4.187
 7594TIP3    H122739   1.404   5.352   4.234
 7594TIP3    H222740   1.422   5.280   4.102
 7595TIP3   OH222741   4.674   0.615   2.086
 7595TIP3    H122742   4.644   0.600   1.996
 7595TIP3    H222743   4.684   0.527   2.123
 7596TIP3   OH222744   4.574   1.292   1.775
 7596TIP3    H122745   4.548   1.261   1.861
 7596TIP3    H222746   4.578   1.213   1.721
 7597TIP3   OH222747   1.696   2.908   0.288
 7597TIP3    H122748   1.641   2.902   0.210
 7597TIP3    H222749   1.755   2.833   0.282
 7598TIP3   OH222750   5.035   5.604   4.915
 7598TIP3    H122751   5.013   5.559   4.997
 7598TIP3    H222752   5.018   5.539   4.847
 7599TIP3   OH222753   7.856   4.253   4.847
 7599TIP3    H122754   7.812   4.268   4.764
 7599TIP3    H222755   7.891   4.164   4.839
 7600TIP3   OH222756   5.811   4.444   3.401
 7600TIP3    H122757   5.730   4.448   3.451
 7600TIP3    H222758   5.857   4.367   3.436
 7601TIP3   OH222759   7.877   0.844   4.398
 7601TIP3    H122760   7.829   0.796   4.464
 7601TIP3    H222761   7.809   0.883   4.342
 7602TIP3   OH222762   7.262   5.790   5.217
 7602TIP3    H122763   7.346   5.829   5.239
 7602TIP3    H222764   7.279   5.696   5.214
 7603TIP3   OH222765   2.906   3.554   2.440
 7603TIP3    H122766   2.852   3.504   2.378
 7603TIP3    H222767   2.849   3.565   2.516
 7604TIP3   OH222768   6.397   3.974   4.343
 7604TIP3    H122769   6.391   3.975   4.438
 7604TIP3    H222770   6.465   3.910   4.324
 7605TIP3   OH222771   2.717   3.449   3.729
 7605TIP3    H122772   2.678   3.424   3.813
 7605TIP3    H222773   2.726   3.366   3.681
 7606TIP3   OH222774   3.192   7.504   0.326
 7606TIP3    H122775   3.164   7.520   0.416
 7606TIP3    H222776   3.166   7.414   0.308
 7607TIP3   OH222777   5.330   2.104   1.041
 7607TIP3    H122778   5.330   2.011   1.066
 7607TIP3    H222779   5.303   2.104   0.950
 7608TIP3   OH222780   0.207   5.073   1.281
 7608TIP3    H122781   0.145   5.127   1.330
 7608TIP3    H222782   0.180   5.080   1.190
 7609TIP3   OH222783   5.863   3.086   4.298
 7609TIP3    H122784   5.950   3.053   4.274
 7609TIP3    H222785   5.880   3.147   4.369
 7610TIP3   OH222786   4.246   3.975   4.990
 7610TIP3    H122787   4.242   4.034   4.915
 7610TIP3    H222788   4.304   3.904   4.962
 7611TIP3   OH222789   6.211   3.039   2.195
 7611TIP3    H122790   6.256   3.101   2.137
 7611TIP3    H222791   6.245   3.060   2.282
 7612TIP3   OH222792   2.999   3.979   6.670
 7612TIP3    H122793   2.935   4.030   6.720
 7612TIP3    H222794   2.978   3.997   6.578
 7613TIP3   OH222795   1.703   5.658   5.695
 7613TIP3    H122796   1.796   5.646   5.671
 7613TIP3    H222797   1.704   5.673   5.789
 7614TIP3   OH222798   1.445   0.045   6.136
 7614TIP3    H122799   1.383   0.071   6.204
 7614TIP3    H222800   1.451   0.121   6.079
 7615TIP3   OH222801   4.711   3.566   0.147
 7615TIP3    H122802   4.756   3.531   0.070
 7615TIP3    H222803   4.624   3.591   0.114
 7616TIP3   OH222804   8.095   6.742   6.219
 7616TIP3    H122805   8.023   6.712   6.164
 7616TIP3    H222806   8.061   6.821   6.262
 7617TIP3   OH222807   5.483   6.179   5.965
 7617TIP3    H122808   5.402   6.132   5.986
 7617TIP3    H222809   5.526   6.124   5.899
 7618TIP3   OH222810   7.475   1.790   2.750
 7618TIP3    H122811   7.453   1.760   2.838
 7618TIP3    H222812   7.494   1.884   2.760
 7619TIP3   OH222813   7.520   7.621   4.031
 7619TIP3    H122814   7.425   7.630   4.043
 7619TIP3    H222815   7.535   7.527   4.035
 7620TIP3   OH222816   3.648   4.934   6.668
 7620TIP3    H122817   3.584   4.866   6.688
 7620TIP3    H222818   3.645   4.943   6.572
 7621TIP3   OH222819   8.244   3.560   5.098
 7621TIP3    H122820   8.302   3.606   5.037
 7621TIP3    H222821   8.302   3.528   5.167
 7622TIP3   OH222822   0.313   2.256  -0.001
 7622TIP3    H122823   0.402   2.259   0.035
 7622TIP3    H222824   0.275   2.177   0.038
 7623TIP3   OH222825   3.468   6.916   2.048
 7623TIP3    H122826   3.452   6.979   1.978
 7623TIP3    H222827   3.382   6.877   2.066
 7624TIP3   OH222828   5.779   4.381   6.718
 7624TIP3    H122829   5.813   4.453   6.771
 7624TIP3    H222830   5.855   4.346   6.672
 7625TIP3   OH222831   7.359   5.353   2.355
 7625TIP3    H122832   7.321   5.279   2.402
 7625TIP3    H222833   7.370   5.322   2.266
 7626TIP3   OH222834   3.041   4.389   2.475
 7626TIP3    H122835   3.132   4.362   2.487
 7626TIP3    H222836   2.992   4.332   2.534
 7627TIP3   OH222837   0.338   7.006   0.909
 7627TIP3    H122838   0.303   6.923   0.876
 7627TIP3    H222839   0.426   7.011   0.872
 7628TIP3   OH222840   8.032   6.737   5.790
 7628TIP3    H122841   8.128   6.735   5.784
 7628TIP3    H222842   8.003   6.683   5.716
 7629TIP3   OH222843   2.152   3.545   0.943
 7629TIP3    H122844   2.167   3.478   0.877
 7629TIP3    H222845   2.165   3.628   0.897
 7630TIP3   OH222846   2.363   1.719   6.189
 7630TIP3    H122847   2.279   1.674   6.200
 7630TIP3    H222848   2.420   1.677   6.253
 7631TIP3   OH222849   6.180   2.650   0.983
 7631TIP3    H122850   6.113   2.589   0.954
 7631TIP3    H222851   6.132   2.729   1.008
 7632TIP3   OH222852   2.691   2.379   3.266
 7632TIP3    H122853   2.653   2.424   3.341
 7632TIP3    H222854   2.741   2.307   3.304
 7633TIP3   OH222855   6.097   7.497   6.458
 7633TIP3    H122856   6.037   7.566   6.488
 7633TIP3    H222857   6.039   7.430   6.421
 7634TIP3   OH222858   3.592   1.649   6.277
 7634TIP3    H122859   3.673   1.626   6.321
 7634TIP3    H222860   3.596   1.744   6.266
 7635TIP3   OH222861   2.308   7.376   3.435
 7635TIP3    H122862   2.269   7.436   3.372
 7635TIP3    H222863   2.352   7.310   3.381
 7636TIP3   OH222864   6.040   0.619   4.634
 7636TIP3    H122865   5.960   0.655   4.672
 7636TIP3    H222866   6.052   0.535   4.679
 7637TIP3   OH222867   5.853   0.883   1.864
 7637TIP3    H122868   5.892   0.962   1.826
 7637TIP3    H222869   5.834   0.828   1.788
 7638TIP3   OH222870   5.736   4.639   3.189
 7638TIP3    H122871   5.713   4.727   3.157
 7638TIP3    H222872   5.652   4.602   3.217
 7639TIP3   OH222873   5.910   7.177   0.015
 7639TIP3    H122874   5.854   7.215   0.083
 7639TIP3    H222875   5.906   7.239  -0.058
 7640TIP3   OH222876   0.884   4.561   1.574
 7640TIP3    H122877   0.827   4.610   1.633
 7640TIP3    H222878   0.826   4.524   1.508
 7641TIP3   OH222879   6.676   3.434   5.687
 7641TIP3    H122880   6.629   3.353   5.706
 7641TIP3    H222881   6.628   3.473   5.614
 7642TIP3   OH222882   3.354   7.726   0.320
 7642TIP3    H122883   3.391   7.736   0.233
 7642TIP3    H222884   3.302   7.645   0.315
 7643TIP3   OH222885   1.330   2.453   4.580
 7643TIP3    H122886   1.292   2.367   4.562
 7643TIP3    H222887   1.398   2.436   4.645
 7644TIP3   OH222888   5.771   1.749   4.656
 7644TIP3    H122889   5.773   1.733   4.750
 7644TIP3    H222890   5.690   1.708   4.627
 7645TIP3   OH222891   1.423   7.457   6.783
 7645TIP3    H122892   1.351   7.494   6.731
 7645TIP3    H222893   1.385   7.380   6.825
 7646TIP3   OH222894   1.801   5.854   1.193
 7646TIP3    H122895   1.855   5.779   1.172
 7646TIP3    H222896   1.737   5.821   1.256
 7647TIP3   OH222897   3.402   2.149   6.231
 7647TIP3    H122898   3.426   2.142   6.324
 7647TIP3    H222899   3.310   2.176   6.233
 7648TIP3   OH222900   7.160   6.742   1.811
 7648TIP3    H122901   7.238   6.795   1.792
 7648TIP3    H222902   7.170   6.664   1.757
 7649TIP3   OH222903   5.757   4.498   5.960
 7649TIP3    H122904   5.727   4.437   5.892
 7649TIP3    H222905   5.677   4.539   5.992
 7650TIP3   OH222906   0.580   2.484   6.282
 7650TIP3    H122907   0.587   2.580   6.286
 7650TIP3    H222908   0.615   2.462   6.195
 7651TIP3   OH222909   6.504   1.788   6.548
 7651TIP3    H122910   6.525   1.880   6.565
 7651TIP3    H222911   6.589   1.747   6.530
 7652TIP3   OH222912   4.783   2.888   5.951
 7652TIP3    H122913   4.799   2.798   5.977
 7652TIP3    H222914   4.691   2.904   5.974
 7653TIP3   OH222915   3.345   3.228   6.183
 7653TIP3    H122916   3.425   3.261   6.225
 7653TIP3    H222917   3.370   3.219   6.090
 7654TIP3   OH222918   6.211   7.774   0.207
 7654TIP3    H122919   6.135   7.757   0.151
 7654TIP3    H222920   6.227   7.690   0.251
 7655TIP3   OH222921   1.587   0.466   1.373
 7655TIP3    H122922   1.538   0.396   1.416
 7655TIP3    H222923   1.531   0.494   1.301
 7656TIP3   OH222924   2.605   0.548   0.629
 7656TIP3    H122925   2.614   0.483   0.559
 7656TIP3    H222926   2.581   0.629   0.584
 7657TIP3   OH222927   0.643   3.284   1.265
 7657TIP3    H122928   0.688   3.296   1.182
 7657TIP3    H222929   0.603   3.370   1.283
 7658TIP3   OH222930   7.276   1.204   2.899
 7658TIP3    H122931   7.218   1.180   2.827
 7658TIP3    H222932   7.290   1.298   2.889
 7659TIP3   OH222933   0.182   3.770   0.801
 7659TIP3    H122934   0.163   3.839   0.865
 7659TIP3    H222935   0.204   3.817   0.721
 7660TIP3   OH222936   5.090   4.207   2.136
 7660TIP3    H122937   5.141   4.140   2.092
 7660TIP3    H222938   5.069   4.169   2.222
 7661TIP3   OH222939   6.204   3.473   4.300
 7661TIP3    H122940   6.128   3.458   4.244
 7661TIP3    H222941   6.170   3.467   4.389
 7662TIP3   OH222942   2.950   7.363   4.101
 7662TIP3    H122943   2.988   7.445   4.070
 7662TIP3    H222944   2.948   7.306   4.024
 7663TIP3   OH222945   3.000   3.128   0.208
 7663TIP3    H122946   3.073   3.067   0.211
 7663TIP3    H222947   3.023   3.195   0.272
 7664TIP3   OH222948   5.008   6.997   3.816
 7664TIP3    H122949   5.068   6.992   3.742
 7664TIP3    H222950   5.057   6.959   3.889
 7665TIP3   OH222951   2.889   5.199   0.222
 7665TIP3    H122952   2.800   5.209   0.187
 7665TIP3    H222953   2.884   5.237   0.309
 7666TIP3   OH222954   1.232   2.965   3.834
 7666TIP3    H122955   1.251   2.880   3.872
 7666TIP3    H222956   1.182   3.012   3.901
 7667TIP3   OH222957   0.014   1.815   6.420
 7667TIP3    H122958   0.096   1.862   6.435
 7667TIP3    H222959   0.025   1.733   6.468
 7668TIP3   OH222960   8.222   6.284   0.636
 7668TIP3    H122961   8.157   6.288   0.566
 7668TIP3    H222962   8.306   6.273   0.591
 7669TIP3   OH222963   8.210   4.481   4.318
 7669TIP3    H122964   8.126   4.480   4.272
 7669TIP3    H222965   8.187   4.463   4.410
 7670TIP3   OH222966   4.109   2.318   0.190
 7670TIP3    H122967   4.097   2.350   0.101
 7670TIP3    H222968   4.051   2.372   0.244
 7671TIP3   OH222969   4.311   7.519   2.300
 7671TIP3    H122970   4.388   7.560   2.340
 7671TIP3    H222971   4.283   7.454   2.365
 7672TIP3   OH222972   2.940   4.388   4.811
 7672TIP3    H122973   2.915   4.358   4.898
 7672TIP3    H222974   2.978   4.312   4.768
 7673TIP3   OH222975   5.133   4.411   4.226
 7673TIP3    H122976   5.226   4.425   4.246
 7673TIP3    H222977   5.099   4.365   4.303
 7674TIP3   OH222978   5.748   7.635   1.401
 7674TIP3    H122979   5.777   7.706   1.344
 7674TIP3    H222980   5.711   7.679   1.478
 7675TIP3   OH222981   7.360   2.097   2.022
 7675TIP3    H122982   7.330   2.018   1.977
 7675TIP3    H222983   7.352   2.077   2.115
 7676TIP3   OH222984   6.262   4.977   5.062
 7676TIP3    H122985   6.336   4.935   5.018
 7676TIP3    H222986   6.297   5.058   5.097
 7677TIP3   OH222987   2.381   2.983   4.295
 7677TIP3    H122988   2.290   2.989   4.322
 7677TIP3    H222989   2.377   2.983   4.199
 7678TIP3   OH222990   7.839   0.210   2.420
 7678TIP3    H122991   7.861   0.222   2.327
 7678TIP3    H222992   7.863   0.292   2.462
 7679TIP3   OH222993   1.268   1.488   0.802
 7679TIP3    H122994   1.192   1.450   0.757
 7679TIP3    H222995   1.230   1.549   0.865
 7680TIP3   OH222996   2.313   5.159   1.938
 7680TIP3    H122997   2.370   5.202   2.002
 7680TIP3    H222998   2.263   5.095   1.989
 7681TIP3   OH222999   2.402   2.621   1.812
 7681TIP3    H123000   2.439   2.629   1.900
 7681TIP3    H223001   2.440   2.539   1.778
 7682TIP3   OH223002   8.204   3.145   4.442
 7682TIP3    H123003   8.264   3.183   4.378
 7682TIP3    H223004   8.185   3.058   4.409
 7683TIP3   OH223005   6.332   7.109   1.901
 7683TIP3    H123006   6.359   7.191   1.859
 7683TIP3    H223007   6.412   7.073   1.939
 7684TIP3   OH223008   4.203   7.418   1.318
 7684TIP3    H123009   4.270   7.357   1.286
 7684TIP3    H223010   4.239   7.505   1.298
 7685TIP3   OH223011   3.557   3.818   2.448
 7685TIP3    H123012   3.491   3.789   2.384
 7685TIP3    H223013   3.540   3.912   2.457
 7686TIP3   OH223014   5.017   5.959   1.908
 7686TIP3    H123015   5.096   5.906   1.919
 7686TIP3    H223016   5.017   6.018   1.983
 7687TIP3   OH223017   4.292   4.945   4.851
 7687TIP3    H123018   4.210   4.895   4.846
 7687TIP3    H223019   4.275   5.010   4.920
 7688TIP3   OH223020   5.637   6.053   5.113
 7688TIP3    H123021   5.620   6.012   5.198
 7688TIP3    H223022   5.553   6.049   5.067
 7689TIP3   OH223023   5.218   4.362   6.644
 7689TIP3    H123024   5.289   4.317   6.599
 7689TIP3    H223025   5.155   4.383   6.575
 7690TIP3   OH223026   4.052   6.795   5.673
 7690TIP3    H123027   4.050   6.784   5.768
 7690TIP3    H223028   4.001   6.720   5.640
 7691TIP3   OH223029   3.765   5.545   0.170
 7691TIP3    H123030   3.782   5.460   0.212
 7691TIP3    H223031   3.671   5.544   0.152
 7692TIP3   OH223032   2.973   1.438   1.640
 7692TIP3    H123033   3.027   1.422   1.563
 7692TIP3    H223034   2.988   1.531   1.660
 7693TIP3   OH223035   7.857   3.281   0.118
 7693TIP3    H123036   7.764   3.303   0.124
 7693TIP3    H223037   7.859   3.208   0.056
 7694TIP3   OH223038   3.984   1.353   6.305
 7694TIP3    H123039   3.982   1.394   6.219
 7694TIP3    H223040   3.937   1.414   6.362
 7695TIP3   OH223041   3.821   2.326   1.821
 7695TIP3    H123042   3.862   2.412   1.810
 7695TIP3    H223043   3.730   2.346   1.845
 7696TIP3   OH223044   5.347   1.497   0.650
 7696TIP3    H123045   5.332   1.562   0.719
 7696TIP3    H223046   5.349   1.548   0.569
 7697TIP3   OH223047   6.508   4.039   4.079
 7697TIP3    H123048   6.485   3.989   4.001
 7697TIP3    H223049   6.476   3.987   4.152
 7698TIP3   OH223050   3.450   4.205   1.755
 7698TIP3    H123051   3.506   4.274   1.792
 7698TIP3    H223052   3.391   4.182   1.826
 7699TIP3   OH223053   6.633   1.153   4.698
 7699TIP3    H123054   6.636   1.240   4.659
 7699TIP3    H223055   6.700   1.155   4.766
 7700TIP3   OH223056   5.947   6.145   2.268
 7700TIP3    H123057   6.036   6.179   2.278
 7700TIP3    H223058   5.927   6.158   2.176
 7701TIP3   OH223059   6.814   6.452   3.137
 7701TIP3    H123060   6.741   6.419   3.190
 7701TIP3    H223061   6.778   6.460   3.049
 7702TIP3   OH223062   8.291   5.756   6.653
 7702TIP3    H123063   8.235   5.705   6.594
 7702TIP3    H223064   8.230   5.813   6.701
 7703TIP3   OH223065   4.106   6.744   6.667
 7703TIP3    H123066   4.083   6.652   6.657
 7703TIP3    H223067   4.170   6.761   6.598
 7704TIP3   OH223068   6.071   2.738   6.178
 7704TIP3    H123069   6.076   2.709   6.269
 7704TIP3    H223070   5.981   2.720   6.152
 7705TIP3   OH223071   3.306   5.498   3.149
 7705TIP3    H123072   3.279   5.407   3.159
 7705TIP3    H223073   3.227   5.543   3.119
 7706TIP3   OH223074   4.294   5.746   4.399
 7706TIP3    H123075   4.303   5.773   4.491
 7706TIP3    H223076   4.383   5.729   4.370
 7707TIP3   OH223077   6.990   0.583   3.513
 7707TIP3    H123078   7.002   0.489   3.499
 7707TIP3    H223079   7.061   0.624   3.464
 7708TIP3   OH223080   6.159   2.528   6.478
 7708TIP3    H123081   6.226   2.538   6.409
 7708TIP3    H223082   6.184   2.592   6.545
 7709TIP3   OH223083   0.258   3.059   1.891
 7709TIP3    H123084   0.271   3.119   1.818
 7709TIP3    H223085   0.347   3.035   1.919
 7710TIP3   OH223086   0.627   1.338   5.145
 7710TIP3    H123087   0.605   1.350   5.237
 7710TIP3    H223088   0.640   1.244   5.135
 7711TIP3   OH223089   7.071   3.696   1.061
 7711TIP3    H123090   7.155   3.741   1.067
 7711TIP3    H223091   7.032   3.727   0.979
 7712TIP3   OH223092   6.151   6.558   4.621
 7712TIP3    H123093   6.178   6.550   4.713
 7712TIP3    H223094   6.090   6.485   4.609
 7713TIP3   OH223095   5.340   3.643   4.048
 7713TIP3    H123096   5.426   3.602   4.050
 7713TIP3    H223097   5.323   3.660   3.955
 7714TIP3   OH223098   0.891   6.434   6.336
 7714TIP3    H123099   0.868   6.523   6.363
 7714TIP3    H223100   0.807   6.388   6.329
 7715TIP3   OH223101   3.279   1.677   1.586
 7715TIP3    H123102   3.274   1.661   1.492
 7715TIP3    H223103   3.358   1.730   1.597
 7716TIP3   OH223104   2.465   1.264   4.435
 7716TIP3    H123105   2.393   1.211   4.401
 7716TIP3    H223106   2.527   1.199   4.469
 7717TIP3   OH223107   7.609   4.346   5.592
 7717TIP3    H123108   7.515   4.343   5.578
 7717TIP3    H223109   7.642   4.404   5.524
 7718TIP3   OH223110   7.302   3.548   1.272
 7718TIP3    H123111   7.253   3.505   1.202
 7718TIP3    H223112   7.308   3.483   1.341
 7719TIP3   OH223113   4.374   3.951   1.529
 7719TIP3    H123114   4.383   3.917   1.440
 7719TIP3    H223115   4.428   3.893   1.583
 7720TIP3   OH223116   2.939   7.383   6.270
 7720TIP3    H123117   2.960   7.476   6.264
 7720TIP3    H223118   2.845   7.378   6.249
 7721TIP3   OH223119   2.422   2.618   0.709
 7721TIP3    H123120   2.340   2.642   0.751
 7721TIP3    H223121   2.473   2.576   0.779
 7722TIP3   OH223122   5.442   4.362   0.020
 7722TIP3    H123123   5.381   4.384   0.091
 7722TIP3    H223124   5.413   4.276  -0.009
 7723TIP3   OH223125   1.063   5.143   3.374
 7723TIP3    H123126   1.137   5.088   3.402
 7723TIP3    H223127   0.996   5.080   3.346
 7724TIP3   OH223128   7.402   6.620   0.385
 7724TIP3    H123129   7.361   6.537   0.360
 7724TIP3    H223130   7.335   6.665   0.437
 7725TIP3   OH223131   3.132   3.707   3.934
 7725TIP3    H123132   3.142   3.641   4.003
 7725TIP3    H223133   3.077   3.664   3.868
 7726TIP3   OH223134   6.581   2.757   4.752
 7726TIP3    H123135   6.581   2.848   4.783
 7726TIP3    H223136   6.602   2.705   4.830
 7727TIP3   OH223137   2.405   7.643   0.163
 7727TIP3    H123138   2.488   7.619   0.122
 7727TIP3    H223139   2.347   7.568   0.147
 7728TIP3   OH223140   1.939   5.794   4.463
 7728TIP3    H123141   1.950   5.876   4.415
 7728TIP3    H223142   2.027   5.775   4.497
 7729TIP3   OH223143   0.004   2.587   2.486
 7729TIP3    H123144   0.048   2.541   2.414
 7729TIP3    H223145   0.022   2.533   2.563
 7730TIP3   OH223146   0.629   0.135   5.993
 7730TIP3    H123147   0.628   0.175   5.906
 7730TIP3    H223148   0.611   0.043   5.977
 7731TIP3   OH223149   5.582   0.427   1.803
 7731TIP3    H123150   5.492   0.395   1.812
 7731TIP3    H223151   5.636   0.347   1.800
 7732TIP3   OH223152   0.182   3.881   0.540
 7732TIP3    H123153   0.151   3.959   0.586
 7732TIP3    H223154   0.221   3.914   0.459
 7733TIP3   OH223155   4.863   4.969   1.754
 7733TIP3    H123156   4.794   5.022   1.714
 7733TIP3    H223157   4.816   4.904   1.807
 7734TIP3   OH223158   3.912   5.974   0.410
 7734TIP3    H123159   3.840   5.944   0.354
 7734TIP3    H223160   3.965   5.896   0.424
 7735TIP3   OH223161   4.550   2.099   5.823
 7735TIP3    H123162   4.485   2.093   5.893
 7735TIP3    H223163   4.516   2.042   5.754
 7736TIP3   OH223164   4.282   2.231   6.642
 7736TIP3    H123165   4.335   2.309   6.663
 7736TIP3    H223166   4.339   2.178   6.587
 7737TIP3   OH223167   1.958   2.308   3.396
 7737TIP3    H123168   1.916   2.256   3.327
 7737TIP3    H223169   2.048   2.277   3.398
 7738TIP3   OH223170   5.983   7.723   4.166
 7738TIP3    H123171   5.996   7.816   4.186
 7738TIP3    H223172   5.898   7.702   4.205
 7739TIP3   OH223173   3.678   1.859   2.491
 7739TIP3    H123174   3.637   1.918   2.555
 7739TIP3    H223175   3.612   1.849   2.422
 7740TIP3   OH223176   4.463   6.049   0.314
 7740TIP3    H123177   4.545   6.012   0.346
 7740TIP3    H223178   4.428   5.982   0.255
 7741TIP3   OH223179   2.064   6.432   1.192
 7741TIP3    H123180   2.140   6.419   1.134
 7741TIP3    H223181   2.001   6.366   1.165
 7742TIP3   OH223182   0.163   3.947   3.169
 7742TIP3    H123183   0.071   3.927   3.188
 7742TIP3    H223184   0.195   3.989   3.249
 7743TIP3   OH223185   4.255   7.293   0.825
 7743TIP3    H123186   4.235   7.287   0.919
 7743TIP3    H223187   4.227   7.382   0.801
 7744TIP3   OH223188   4.730   7.523   0.884
 7744TIP3    H123189   4.664   7.569   0.833
 7744TIP3    H223190   4.707   7.541   0.975
 7745TIP3   OH223191   7.193   5.656   1.487
 7745TIP3    H123192   7.139   5.635   1.411
 7745TIP3    H223193   7.282   5.635   1.460
 7746TIP3   OH223194   5.031   2.921   2.631
 7746TIP3    H123195   5.016   2.849   2.571
 7746TIP3    H223196   4.958   2.917   2.693
 7747TIP3   OH223197   6.549   1.796   5.777
 7747TIP3    H123198   6.469   1.781   5.826
 7747TIP3    H223199   6.537   1.882   5.736
 7748TIP3   OH223200   2.562   1.659   5.443
 7748TIP3    H123201   2.579   1.596   5.512
 7748TIP3    H223202   2.481   1.703   5.469
 7749TIP3   OH223203   6.132   3.134   1.026
 7749TIP3    H123204   6.063   3.199   1.042
 7749TIP3    H223205   6.102   3.086   0.949
 7750TIP3   OH223206   0.699   1.301   3.148
 7750TIP3    H123207   0.755   1.367   3.189
 7750TIP3    H223208   0.648   1.349   3.084
 7751TIP3   OH223209   7.865   7.781   5.576
 7751TIP3    H123210   7.925   7.775   5.501
 7751TIP3    H223211   7.791   7.832   5.542
 7752TIP3   OH223212   3.188   0.358   0.641
 7752TIP3    H123213   3.094   0.361   0.663
 7752TIP3    H223214   3.214   0.450   0.640
 7753TIP3   OH223215   4.579   1.335   2.857
 7753TIP3    H123216   4.574   1.259   2.800
 7753TIP3    H223217   4.495   1.338   2.901
 7754TIP3   OH223218   3.845   0.710   3.555
 7754TIP3    H123219   3.808   0.741   3.473
 7754TIP3    H223220   3.939   0.701   3.537
 7755TIP3   OH223221   5.388   5.632   5.299
 7755TIP3    H123222   5.365   5.603   5.211
 7755TIP3    H223223   5.366   5.558   5.355
 7756TIP3   OH223224   2.123   2.474   0.514
 7756TIP3    H123225   2.095   2.470   0.422
 7756TIP3    H223226   2.042   2.474   0.564
 7757TIP3   OH223227   1.121   5.381   2.418
 7757TIP3    H123228   1.084   5.416   2.499
 7757TIP3    H223229   1.075   5.299   2.404
 7758TIP3   OH223230   8.137   1.862   4.510
 7758TIP3    H123231   8.054   1.895   4.543
 7758TIP3    H223232   8.131   1.871   4.415
 7759TIP3   OH223233   0.804   2.124   1.699
 7759TIP3    H123234   0.798   2.060   1.628
 7759TIP3    H223235   0.796   2.072   1.779
 7760TIP3   OH223236   5.406   7.599   6.357
 7760TIP3    H123237   5.500   7.590   6.369
 7760TIP3    H223238   5.377   7.652   6.432
 7761TIP3   OH223239   5.003   5.067   3.381
 7761TIP3    H123240   5.088   5.035   3.411
 7761TIP3    H223241   5.024   5.146   3.331
 7762TIP3   OH223242   6.997   4.104   4.432
 7762TIP3    H123243   6.970   4.179   4.486
 7762TIP3    H223244   6.930   4.097   4.364
 7763TIP3   OH223245   7.220   5.695   2.191
 7763TIP3    H123246   7.180   5.688   2.104
 7763TIP3    H223247   7.177   5.627   2.243
 7764TIP3   OH223248   2.165   1.839   4.113
 7764TIP3    H123249   2.077   1.801   4.104
 7764TIP3    H223250   2.222   1.776   4.069
 7765TIP3   OH223251   6.892   1.060   0.692
 7765TIP3    H123252   6.961   1.043   0.629
 7765TIP3    H223253   6.888   0.981   0.746
 7766TIP3   OH223254   1.168   6.694   1.476
 7766TIP3    H123255   1.147   6.750   1.551
 7766TIP3    H223256   1.243   6.738   1.434
 7767TIP3   OH223257   2.134   0.392   4.441
 7767TIP3    H123258   2.228   0.372   4.436
 7767TIP3    H223259   2.130   0.475   4.489
 7768TIP3   OH223260   2.490   5.654   6.033
 7768TIP3    H123261   2.543   5.723   5.993
 7768TIP3    H223262   2.409   5.654   5.983
 7769TIP3   OH223263   8.019   3.419   5.036
 7769TIP3    H123264   8.095   3.474   5.054
 7769TIP3    H223265   8.049   3.330   5.054
 7770TIP3   OH223266   5.248   0.402   4.716
 7770TIP3    H123267   5.222   0.311   4.699
 7770TIP3    H223268   5.342   0.397   4.734
 7771TIP3   OH223269   3.390   1.904   1.236
 7771TIP3    H123270   3.430   1.849   1.169
 7771TIP3    H223271   3.401   1.993   1.203
 7772TIP3   OH223272   4.626   1.601   5.574
 7772TIP3    H123273   4.581   1.588   5.491
 7772TIP3    H223274   4.585   1.538   5.634
 7773TIP3   OH223275   4.081   1.987   5.501
 7773TIP3    H123276   4.168   2.018   5.476
 7773TIP3    H223277   4.091   1.893   5.511
 7774TIP3   OH223278   1.971   5.973   0.934
 7774TIP3    H123279   1.944   5.884   0.957
 7774TIP3    H223280   1.978   5.972   0.838
 7775TIP3   OH223281   2.140   6.868   0.284
 7775TIP3    H123282   2.121   6.947   0.233
 7775TIP3    H223283   2.157   6.901   0.372
 7776TIP3   OH223284   2.744   5.347   3.350
 7776TIP3    H123285   2.829   5.374   3.315
 7776TIP3    H223286   2.681   5.368   3.281
 7777TIP3   OH223287   3.218   4.479   4.810
 7777TIP3    H123288   3.133   4.503   4.846
 7777TIP3    H223289   3.280   4.539   4.852
 7778TIP3   OH223290   3.795   1.769   4.468
 7778TIP3    H123291   3.840   1.843   4.428
 7778TIP3    H223292   3.832   1.692   4.425
 7779TIP3   OH223293   5.207   3.266   2.933
 7779TIP3    H123294   5.144   3.245   2.864
 7779TIP3    H223295   5.157   3.318   2.996
 7780TIP3   OH223296   5.776   4.022   3.410
 7780TIP3    H123297   5.830   4.061   3.341
 7780TIP3    H223298   5.768   4.091   3.476
 7781TIP3   OH223299   5.246   7.587   5.388
 7781TIP3    H123300   5.250   7.683   5.388
 7781TIP3    H223301   5.304   7.561   5.459
 7782TIP3   OH223302   5.817   7.508   0.362
 7782TIP3    H123303   5.770   7.567   0.420
 7782TIP3    H223304   5.909   7.514   0.389
 7783TIP3   OH223305   0.784   0.992   5.599
 7783TIP3    H123306   0.747   0.920   5.548
 7783TIP3    H223307   0.851   0.952   5.653
 7784TIP3   OH223308   0.808   7.341   2.800
 7784TIP3    H123309   0.733   7.358   2.743
 7784TIP3    H223310   0.810   7.416   2.860
 7785TIP3   OH223311   3.058   7.650   1.484
 7785TIP3    H123312   3.107   7.659   1.566
 7785TIP3    H223313   3.125   7.632   1.418
 7786TIP3   OH223314   6.432   7.756   5.326
 7786TIP3    H123315   6.507   7.712   5.365
 7786TIP3    H223316   6.402   7.697   5.258
 7787TIP3   OH223317   6.641   7.169   1.375
 7787TIP3    H123318   6.559   7.217   1.389
 7787TIP3    H223319   6.665   7.137   1.462
 7788TIP3   OH223320   7.943   4.867   6.483
 7788TIP3    H123321   8.037   4.852   6.476
 7788TIP3    H223322   7.919   4.830   6.567
 7789TIP3   OH223323   1.785   0.884   3.308
 7789TIP3    H123324   1.735   0.876   3.389
 7789TIP3    H223325   1.764   0.805   3.259
 7790TIP3   OH223326   1.368   0.307   1.368
 7790TIP3    H123327   1.331   0.312   1.280
 7790TIP3    H223328   1.363   0.214   1.390
 7791TIP3   OH223329   7.903   3.670   1.417
 7791TIP3    H123330   7.810   3.650   1.402
 7791TIP3    H223331   7.922   3.742   1.357
 7792TIP3   OH223332   6.517   7.446   2.348
 7792TIP3    H123333   6.439   7.449   2.293
 7792TIP3    H223334   6.483   7.445   2.438
 7793TIP3   OH223335   1.269   2.339   6.394
 7793TIP3    H123336   1.227   2.405   6.339
 7793TIP3    H223337   1.215   2.261   6.382
 7794TIP3   OH223338   5.583   5.852   5.289
 7794TIP3    H123339   5.607   5.761   5.307
 7794TIP3    H223340   5.487   5.851   5.287
 7795TIP3   OH223341   6.873   1.567   1.597
 7795TIP3    H123342   6.912   1.638   1.647
 7795TIP3    H223343   6.935   1.550   1.526
 7796TIP3   OH223344   2.821   5.632   6.694
 7796TIP3    H123345   2.782   5.677   6.770
 7796TIP3    H223346   2.781   5.675   6.618
 7797TIP3   OH223347   5.691   2.639   2.621
 7797TIP3    H123348   5.618   2.623   2.561
 7797TIP3    H223349   5.766   2.655   2.565
 7798TIP3   OH223350   5.011   0.517   6.357
 7798TIP3    H123351   5.059   0.553   6.283
 7798TIP3    H223352   5.048   0.561   6.433
 7799TIP3   OH223353   0.492   6.134   2.040
 7799TIP3    H123354   0.534   6.072   1.981
 7799TIP3    H223355   0.513   6.220   2.003
 7800TIP3   OH223356   3.109   4.707   0.054
 7800TIP3    H123357   3.132   4.637   0.116
 7800TIP3    H223358   3.037   4.754   0.096
 7801TIP3   OH223359   8.274   7.313   3.178
 7801TIP3    H123360   8.310   7.226   3.164
 7801TIP3    H223361   8.293   7.361   3.097
 7802TIP3   OH223362   1.451   7.577   3.930
 7802TIP3    H123363   1.379   7.521   3.903
 7802TIP3    H223364   1.408   7.653   3.970
 7803TIP3   OH223365   5.624   3.371   1.242
 7803TIP3    H123366   5.620   3.420   1.159
 7803TIP3    H223367   5.650   3.436   1.307
 7804TIP3   OH223368   1.498   5.757   6.652
 7804TIP3    H123369   1.532   5.741   6.564
 7804TIP3    H223370   1.415   5.711   6.655
 7805TIP3   OH223371   8.165   1.846   4.193
 7805TIP3    H123372   8.088   1.881   4.148
 7805TIP3    H223373   8.134   1.766   4.235
 7806TIP3   OH223374   4.689   1.902   2.653
 7806TIP3    H123375   4.612   1.941   2.612
 7806TIP3    H223376   4.713   1.830   2.595
 7807TIP3   OH223377   1.310   4.622   6.472
 7807TIP3    H123378   1.295   4.536   6.511
 7807TIP3    H223379   1.224   4.649   6.439
 7808TIP3   OH223380   2.117   7.608   2.882
 7808TIP3    H123381   2.038   7.641   2.925
 7808TIP3    H223382   2.163   7.687   2.854
 7809TIP3   OH223383   2.892   0.408   3.763
 7809TIP3    H123384   2.858   0.376   3.679
 7809TIP3    H223385   2.987   0.416   3.748
 7810TIP3   OH223386   5.946   2.437   5.975
 7810TIP3    H123387   5.953   2.374   6.047
 7810TIP3    H223388   6.010   2.408   5.910
 7811TIP3   OH223389   5.815   3.584   3.571
 7811TIP3    H123390   5.858   3.669   3.572
 7811TIP3    H223391   5.868   3.531   3.512
 7812TIP3   OH223392   4.101   2.796   2.052
 7812TIP3    H123393   4.133   2.882   2.025
 7812TIP3    H223394   4.180   2.741   2.055
 7813TIP3   OH223395   0.339   5.718   6.299
 7813TIP3    H123396   0.377   5.738   6.214
 7813TIP3    H223397   0.346   5.623   6.308
 7814TIP3   OH223398   4.390   0.902   6.651
 7814TIP3    H123399   4.388   0.811   6.623
 7814TIP3    H223400   4.480   0.930   6.635
 7815TIP3   OH223401   7.392   4.195   2.136
 7815TIP3    H123402   7.485   4.206   2.158
 7815TIP3    H223403   7.368   4.112   2.176
 7816TIP3   OH223404   4.239   0.967   1.012
 7816TIP3    H123405   4.164   1.022   0.993
 7816TIP3    H223406   4.278   1.005   1.091
 7817TIP3   OH223407   7.774   6.674   2.102
 7817TIP3    H123408   7.840   6.726   2.146
 7817TIP3    H223409   7.698   6.733   2.095
 7818TIP3   OH223410   7.943   2.957   6.384
 7818TIP3    H123411   7.953   2.925   6.473
 7818TIP3    H223412   7.890   3.037   6.393
 7819TIP3   OH223413   2.227   5.454   3.955
 7819TIP3    H123414   2.190   5.468   3.868
 7819TIP3    H223415   2.193   5.369   3.982
 7820TIP3   OH223416   3.044   0.248   4.477
 7820TIP3    H123417   3.068   0.184   4.410
 7820TIP3    H223418   3.030   0.329   4.428
 7821TIP3   OH223419   1.456   7.508   2.911
 7821TIP3    H123420   1.404   7.485   2.835
 7821TIP3    H223421   1.478   7.425   2.952
 7822TIP3   OH223422   1.673   6.908   0.593
 7822TIP3    H123423   1.733   6.922   0.520
 7822TIP3    H223424   1.627   6.827   0.570
 7823TIP3   OH223425   4.233   1.251   5.525
 7823TIP3    H123426   4.265   1.161   5.530
 7823TIP3    H223427   4.158   1.254   5.584
 7824TIP3   OH223428   7.934   0.487   5.142
 7824TIP3    H123429   7.855   0.485   5.197
 7824TIP3    H223430   8.003   0.453   5.198
 7825TIP3   OH223431   3.025   4.322   2.747
 7825TIP3    H123432   3.107   4.274   2.758
 7825TIP3    H223433   2.973   4.298   2.824
 7826TIP3   OH223434   0.150   7.118   3.990
 7826TIP3    H123435   0.163   7.157   4.077
 7826TIP3    H223436   0.171   7.026   4.001
 7827TIP3   OH223437   4.186   0.560   6.094
 7827TIP3    H123438   4.110   0.615   6.113
 7827TIP3    H223439   4.182   0.490   6.158
 7828TIP3   OH223440   3.213   3.035   3.614
 7828TIP3    H123441   3.159   2.966   3.577
 7828TIP3    H223442   3.203   3.026   3.709
 7829TIP3   OH223443   2.899   0.935   2.086
 7829TIP3    H123444   2.829   0.876   2.116
 7829TIP3    H223445   2.928   0.979   2.166
 7830TIP3   OH223446   2.862   6.210   1.177
 7830TIP3    H123447   2.861   6.293   1.130
 7830TIP3    H223448   2.803   6.153   1.127
 7831TIP3   OH223449   4.112   3.870   0.900
 7831TIP3    H123450   4.114   3.793   0.957
 7831TIP3    H223451   4.186   3.923   0.929
 7832TIP3   OH223452   6.908   5.785   6.204
 7832TIP3    H123453   6.868   5.713   6.156
 7832TIP3    H223454   6.835   5.834   6.241
 7833TIP3   OH223455   4.735   3.318   4.791
 7833TIP3    H123456   4.821   3.290   4.823
 7833TIP3    H223457   4.685   3.338   4.870
 7834TIP3   OH223458   7.656   3.189   4.976
 7834TIP3    H123459   7.747   3.165   4.988
 7834TIP3    H223460   7.611   3.107   4.959
 7835TIP3   OH223461   0.265   5.555   6.731
 7835TIP3    H123462   0.322   5.594   6.797
 7835TIP3    H223463   0.196   5.620   6.716
 7836TIP3   OH223464   8.093   4.382   4.901
 7836TIP3    H123465   8.004   4.348   4.893
 7836TIP3    H223466   8.135   4.326   4.966
 7837TIP3   OH223467   2.605   5.373   2.407
 7837TIP3    H123468   2.684   5.323   2.384
 7837TIP3    H223469   2.627   5.413   2.491
 7838TIP3   OH223470   7.776   0.661   3.017
 7838TIP3    H123471   7.788   0.566   3.025
 7838TIP3    H223472   7.685   0.671   2.990
 7839TIP3   OH223473   2.643   3.495   0.296
 7839TIP3    H123474   2.558   3.464   0.328
 7839TIP3    H223475   2.626   3.586   0.270
 7840TIP3   OH223476   5.087   0.629   6.601
 7840TIP3    H123477   5.045   0.563   6.656
 7840TIP3    H223478   5.053   0.712   6.633
 7841TIP3   OH223479   6.735   5.838   4.383
 7841TIP3    H123480   6.829   5.855   4.389
 7841TIP3    H223481   6.715   5.845   4.290
 7842TIP3   OH223482   2.980   3.831   0.613
 7842TIP3    H123483   3.018   3.919   0.604
 7842TIP3    H223484   2.896   3.837   0.567
 7843TIP3   OH223485   1.814   4.772   0.429
 7843TIP3    H123486   1.828   4.860   0.464
 7843TIP3    H223487   1.771   4.725   0.500
 7844TIP3   OH223488   6.328   3.289   4.709
 7844TIP3    H123489   6.360   3.379   4.701
 7844TIP3    H223490   6.263   3.281   4.640
 7845TIP3   OH223491   6.900   1.050   5.210
 7845TIP3    H123492   6.825   1.087   5.163
 7845TIP3    H223493   6.886   1.075   5.301
 7846TIP3   OH223494   1.320   2.933   6.414
 7846TIP3    H123495   1.345   3.022   6.391
 7846TIP3    H223496   1.225   2.933   6.412
 7847TIP3   OH223497   4.510   7.847   0.944
 7847TIP3    H123498   4.446   7.782   0.972
 7847TIP3    H223499   4.469   7.889   0.868
 7848TIP3   OH223500   2.097   4.566   3.074
 7848TIP3    H123501   2.020   4.542   3.023
 7848TIP3    H223502   2.108   4.495   3.137
 7849TIP3   OH223503   6.104   4.789   4.288
 7849TIP3    H123504   6.187   4.793   4.241
 7849TIP3    H223505   6.070   4.701   4.271
 7850TIP3   OH223506   8.035   2.811   1.603
 7850TIP3    H123507   8.014   2.773   1.518
 7850TIP3    H223508   8.015   2.741   1.666
 7851TIP3   OH223509   2.137   6.466   3.600
 7851TIP3    H123510   2.148   6.377   3.634
 7851TIP3    H223511   2.047   6.489   3.622
 7852TIP3   OH223512   2.418   6.241   6.236
 7852TIP3    H123513   2.358   6.213   6.306
 7852TIP3    H223514   2.453   6.159   6.201
 7853TIP3   OH223515   1.771   6.222   3.636
 7853TIP3    H123516   1.733   6.300   3.595
 7853TIP3    H223517   1.696   6.176   3.673
 7854TIP3   OH223518   4.503   2.665   2.167
 7854TIP3    H123519   4.482   2.757   2.151
 7854TIP3    H223520   4.439   2.637   2.233
 7855TIP3   OH223521   1.203   5.312   3.121
 7855TIP3    H123522   1.189   5.344   3.210
 7855TIP3    H223523   1.234   5.388   3.072
 7856TIP3   OH223524   5.323   4.469   2.205
 7856TIP3    H123525   5.343   4.386   2.249
 7856TIP3    H223526   5.405   4.494   2.163
 7857TIP3   OH223527   3.612   6.654   2.556
 7857TIP3    H123528   3.591   6.568   2.521
 7857TIP3    H223529   3.527   6.695   2.575
 7858TIP3   OH223530   2.358   4.585   5.961
 7858TIP3    H123531   2.425   4.557   5.899
 7858TIP3    H223532   2.397   4.570   6.047
 7859TIP3   OH223533   7.665   4.507   3.870
 7859TIP3    H123534   7.689   4.427   3.916
 7859TIP3    H223535   7.570   4.502   3.861
 7860TIP3   OH223536   6.508   4.634   1.701
 7860TIP3    H123537   6.475   4.678   1.623
 7860TIP3    H223538   6.562   4.563   1.668
 7861TIP3   OH223539   4.940   3.871   5.219
 7861TIP3    H123540   4.970   3.806   5.282
 7861TIP3    H223541   4.846   3.881   5.237
 7862TIP3   OH223542   1.902   3.106   0.898
 7862TIP3    H123543   1.885   3.184   0.845
 7862TIP3    H223544   1.833   3.044   0.873
 7863TIP3   OH223545   6.810   2.736   5.773
 7863TIP3    H123546   6.742   2.719   5.838
 7863TIP3    H223547   6.800   2.829   5.753
 7864TIP3   OH223548   5.231   7.140   1.158
 7864TIP3    H123549   5.258   7.060   1.203
 7864TIP3    H223550   5.258   7.127   1.067
 7865TIP3   OH223551   7.519   5.992   6.726
 7865TIP3    H123552   7.534   5.971   6.818
 7865TIP3    H223553   7.606   6.001   6.689
 7866TIP3   OH223554   1.262   6.873   5.370
 7866TIP3    H123555   1.225   6.792   5.406
 7866TIP3    H223556   1.265   6.933   5.445
 7867TIP3   OH223557   1.319   0.990   0.909
 7867TIP3    H123558   1.393   1.002   0.969
 7867TIP3    H223559   1.315   1.072   0.860
 7868TIP3   OH223560   7.432   6.934   2.935
 7868TIP3    H123561   7.370   6.866   2.907
 7868TIP3    H223562   7.381   7.015   2.932
 7869TIP3   OH223563   4.645   4.525   3.303
 7869TIP3    H123564   4.694   4.491   3.378
 7869TIP3    H223565   4.575   4.461   3.289
 7870TIP3   OH223566   3.373   5.935   0.958
 7870TIP3    H123567   3.418   5.882   1.023
 7870TIP3    H223568   3.442   5.987   0.917
 7871TIP3   OH223569   7.069   0.175   5.416
 7871TIP3    H123570   7.113   0.092   5.437
 7871TIP3    H223571   6.988   0.172   5.466
 7872TIP3   OH223572   4.622   2.671   3.564
 7872TIP3    H123573   4.560   2.598   3.577
 7872TIP3    H223574   4.595   2.711   3.481
 7873TIP3   OH223575   1.997   5.842   1.796
 7873TIP3    H123576   2.019   5.890   1.715
 7873TIP3    H223577   1.940   5.901   1.844
 7874TIP3   OH223578   0.952   2.472   0.953
 7874TIP3    H123579   0.897   2.479   1.031
 7874TIP3    H223580   1.010   2.399   0.971
 7875TIP3   OH223581   1.369   2.224   6.713
 7875TIP3    H123582   1.369   2.180   6.798
 7875TIP3    H223583   1.305   2.176   6.661
 7876TIP3   OH223584   4.444   4.675   5.673
 7876TIP3    H123585   4.524   4.727   5.673
 7876TIP3    H223586   4.465   4.598   5.619
 7877TIP3   OH223587   4.141   7.316   3.875
 7877TIP3    H123588   4.048   7.313   3.855
 7877TIP3    H223589   4.145   7.338   3.968
 7878TIP3   OH223590   0.603   5.857   3.609
 7878TIP3    H123591   0.549   5.779   3.607
 7878TIP3    H223592   0.671   5.841   3.543
 7879TIP3   OH223593   6.079   5.493   3.687
 7879TIP3    H123594   6.118   5.579   3.675
 7879TIP3    H223595   6.024   5.480   3.609
 7880TIP3   OH223596   6.186   6.303   4.412
 7880TIP3    H123597   6.250   6.249   4.366
 7880TIP3    H223598   6.112   6.244   4.428
 7881TIP3   OH223599   7.596   7.529   0.245
 7881TIP3    H123600   7.525   7.471   0.218
 7881TIP3    H223601   7.570   7.616   0.216
 7882TIP3   OH223602   2.970   7.136   0.408
 7882TIP3    H123603   3.065   7.147   0.404
 7882TIP3    H223604   2.937   7.218   0.445
 7883TIP3   OH223605   6.730   1.215   5.396
 7883TIP3    H123606   6.639   1.208   5.368
 7883TIP3    H223607   6.726   1.205   5.491
 7884TIP3   OH223608   0.124   3.425   3.281
 7884TIP3    H123609   0.126   3.330   3.296
 7884TIP3    H223610   0.158   3.436   3.192
 7885TIP3   OH223611   0.556   4.933   6.515
 7885TIP3    H123612   0.473   4.976   6.494
 7885TIP3    H223613   0.599   4.920   6.430
 7886TIP3   OH223614   5.560   1.441   1.038
 7886TIP3    H123615   5.628   1.376   1.056
 7886TIP3    H223616   5.478   1.392   1.041
 7887TIP3   OH223617   7.203   7.193   6.362
 7887TIP3    H123618   7.219   7.123   6.299
 7887TIP3    H223619   7.183   7.148   6.444
 7888TIP3   OH223620   0.503   5.317   3.115
 7888TIP3    H123621   0.437   5.386   3.110
 7888TIP3    H223622   0.586   5.364   3.110
 7889TIP3   OH223623   6.657   4.729   0.218
 7889TIP3    H123624   6.728   4.783   0.251
 7889TIP3    H223625   6.685   4.639   0.234
 7890TIP3   OH223626   3.691   1.483   1.192
 7890TIP3    H123627   3.772   1.436   1.174
 7890TIP3    H223628   3.644   1.483   1.108
 7891TIP3   OH223629   2.449   4.054   5.942
 7891TIP3    H123630   2.543   4.054   5.924
 7891TIP3    H223631   2.419   3.967   5.917
 7892TIP3   OH223632   5.365   1.610   2.600
 7892TIP3    H123633   5.327   1.698   2.606
 7892TIP3    H223634   5.457   1.626   2.577
 7893TIP3   OH223635   6.016   3.732   2.377
 7893TIP3    H123636   6.007   3.640   2.351
 7893TIP3    H223637   6.037   3.729   2.470
 7894TIP3   OH223638   5.632   1.819   0.666
 7894TIP3    H123639   5.640   1.884   0.736
 7894TIP3    H223640   5.662   1.738   0.706
 7895TIP3   OH223641   1.338   0.381   4.923
 7895TIP3    H123642   1.364   0.327   4.997
 7895TIP3    H223643   1.420   0.400   4.877
 7896TIP3   OH223644   6.652   4.245   3.603
 7896TIP3    H123645   6.651   4.302   3.527
 7896TIP3    H223646   6.740   4.256   3.640
 7897TIP3   OH223647   2.652   7.807   3.364
 7897TIP3    H123648   2.734   7.814   3.314
 7897TIP3    H223649   2.593   7.869   3.323
 7898TIP3   OH223650   6.602   5.844   0.686
 7898TIP3    H123651   6.558   5.858   0.602
 7898TIP3    H223652   6.648   5.761   0.676
 7899TIP3   OH223653   3.479   2.136   1.067
 7899TIP3    H123654   3.504   2.207   1.126
 7899TIP3    H223655   3.562   2.091   1.049
 7900TIP3   OH223656   7.110   2.672   1.032
 7900TIP3    H123657   7.071   2.667   1.119
 7900TIP3    H223658   7.185   2.731   1.042
 7901TIP3   OH223659   1.377   2.780   0.327
 7901TIP3    H123660   1.424   2.776   0.411
 7901TIP3    H223661   1.389   2.870   0.297
 7902TIP3   OH223662   3.745   3.468   0.531
 7902TIP3    H123663   3.786   3.433   0.452
 7902TIP3    H223664   3.656   3.434   0.529
 7903TIP3   OH223665   6.880   5.344   5.128
 7903TIP3    H123666   6.934   5.378   5.057
 7903TIP3    H223667   6.915   5.385   5.207
 7904TIP3   OH223668   2.932   3.755   1.803
 7904TIP3    H123669   2.856   3.814   1.800
 7904TIP3    H223670   2.894   3.668   1.796
 7905TIP3   OH223671   6.185   7.290   5.892
 7905TIP3    H123672   6.271   7.311   5.929
 7905TIP3    H223673   6.188   7.325   5.803
 7906TIP3   OH223674   4.382   4.806   1.170
 7906TIP3    H123675   4.385   4.865   1.095
 7906TIP3    H223676   4.466   4.820   1.215
 7907TIP3   OH223677   6.899   1.083   2.019
 7907TIP3    H123678   6.807   1.067   2.037
 7907TIP3    H223679   6.922   1.155   2.077
 7908TIP3   OH223680   5.302   3.526   1.655
 7908TIP3    H123681   5.324   3.619   1.657
 7908TIP3    H223682   5.385   3.482   1.637
 7909TIP3   OH223683   7.050   4.053   2.687
 7909TIP3    H123684   7.106   3.976   2.677
 7909TIP3    H223685   7.004   4.060   2.603
 7910TIP3   OH223686   2.650   6.753   0.273
 7910TIP3    H123687   2.687   6.780   0.189
 7910TIP3    H223688   2.718   6.771   0.337
 7911TIP3   OH223689   6.587   0.220   5.514
 7911TIP3    H123690   6.491   0.218   5.518
 7911TIP3    H223691   6.611   0.300   5.560
 7912TIP3   OH223692   3.654   3.844   1.304
 7912TIP3    H123693   3.701   3.793   1.239
 7912TIP3    H223694   3.662   3.794   1.385
 7913TIP3   OH223695   4.495   6.819   4.669
 7913TIP3    H123696   4.559   6.836   4.600
 7913TIP3    H223697   4.414   6.797   4.621
 7914TIP3   OH223698   7.605   6.023   6.355
 7914TIP3    H123699   7.541   6.064   6.297
 7914TIP3    H223700   7.594   6.069   6.438
 7915TIP3   OH223701   0.785   6.806   5.107
 7915TIP3    H123702   0.804   6.824   5.015
 7915TIP3    H223703   0.824   6.880   5.154
 7916TIP3   OH223704   4.785   7.712   3.795
 7916TIP3    H123705   4.703   7.663   3.785
 7916TIP3    H223706   4.762   7.802   3.773
 7917TIP3   OH223707   6.657   1.157   5.664
 7917TIP3    H123708   6.712   1.120   5.733
 7917TIP3    H223709   6.574   1.110   5.671
 7918TIP3   OH223710   5.285   6.252   6.627
 7918TIP3    H123711   5.267   6.174   6.575
 7918TIP3    H223712   5.369   6.284   6.594
 7919TIP3   OH223713   7.858   5.482   1.950
 7919TIP3    H123714   7.900   5.520   1.874
 7919TIP3    H223715   7.925   5.481   2.018
 7920TIP3   OH223716   6.210   5.221   0.541
 7920TIP3    H123717   6.201   5.202   0.635
 7920TIP3    H223718   6.171   5.146   0.497
 7921TIP3   OH223719   2.602   0.843   0.501
 7921TIP3    H123720   2.539   0.811   0.436
 7921TIP3    H223721   2.620   0.933   0.475
 7922TIP3   OH223722   5.599   3.102   1.322
 7922TIP3    H123723   5.589   3.178   1.264
 7922TIP3    H223724   5.608   3.140   1.410
 7923TIP3   OH223725   6.841   7.382   3.670
 7923TIP3    H123726   6.894   7.329   3.730
 7923TIP3    H223727   6.882   7.370   3.584
 7924TIP3   OH223728   3.712   0.443   2.663
 7924TIP3    H123729   3.738   0.392   2.587
 7924TIP3    H223730   3.701   0.532   2.629
 7925TIP3   OH223731   0.710   7.124   1.106
 7925TIP3    H123732   0.799   7.092   1.124
 7925TIP3    H223733   0.667   7.125   1.192
 7926TIP3   OH223734   5.564   0.640   3.371
 7926TIP3    H123735   5.629   0.675   3.432
 7926TIP3    H223736   5.522   0.569   3.420
 7927TIP3   OH223737   0.497   6.728   6.256
 7927TIP3    H123738   0.577   6.780   6.243
 7927TIP3    H223739   0.442   6.783   6.312
 7928TIP3   OH223740   6.220   5.840   2.444
 7928TIP3    H123741   6.196   5.748   2.459
 7928TIP3    H223742   6.139   5.882   2.418
 7929TIP3   OH223743   1.686   7.484   3.796
 7929TIP3    H123744   1.596   7.493   3.828
 7929TIP3    H223745   1.737   7.547   3.847
 7930TIP3   OH223746   3.998   2.295   4.067
 7930TIP3    H123747   3.925   2.357   4.065
 7930TIP3    H223748   4.057   2.326   3.998
 7931TIP3   OH223749   6.004   0.082   2.961
 7931TIP3    H123750   6.031  -0.004   2.928
 7931TIP3    H223751   5.928   0.105   2.908
 7932TIP3   OH223752   3.916   7.686   5.775
 7932TIP3    H123753   3.894   7.618   5.839
 7932TIP3    H223754   3.877   7.766   5.812
 7933TIP3   OH223755   0.815   6.602   6.622
 7933TIP3    H123756   0.881   6.555   6.572
 7933TIP3    H223757   0.803   6.552   6.702
 7934TIP3   OH223758   1.331   1.799   1.569
 7934TIP3    H123759   1.313   1.847   1.489
 7934TIP3    H223760   1.410   1.748   1.550
 7935TIP3   OH223761   2.056   1.845   5.306
 7935TIP3    H123762   2.071   1.899   5.384
 7935TIP3    H223763   2.139   1.845   5.259
 7936TIP3   OH223764   5.869   2.902   3.494
 7936TIP3    H123765   5.803   2.969   3.513
 7936TIP3    H223766   5.861   2.887   3.400
 7937TIP3   OH223767   4.343   3.741   1.727
 7937TIP3    H123768   4.293   3.812   1.769
 7937TIP3    H223769   4.282   3.705   1.662
 7938TIP3   OH223770   5.546   6.943   5.790
 7938TIP3    H123771   5.563   7.033   5.818
 7938TIP3    H223772   5.530   6.950   5.695
 7939TIP3   OH223773   1.203   3.382   0.307
 7939TIP3    H123774   1.257   3.450   0.348
 7939TIP3    H223775   1.125   3.377   0.362
 7940TIP3   OH223776   4.121   3.408   2.270
 7940TIP3    H123777   4.062   3.338   2.296
 7940TIP3    H223778   4.077   3.488   2.300
 7941TIP3   OH223779   3.367   0.164   0.675
 7941TIP3    H123780   3.301   0.233   0.670
 7941TIP3    H223781   3.360   0.119   0.590
 7942TIP3   OH223782   5.195   4.443   5.789
 7942TIP3    H123783   5.180   4.452   5.883
 7942TIP3    H223784   5.206   4.533   5.758
 7943TIP3   OH223785   1.256   5.096   1.398
 7943TIP3    H123786   1.179   5.152   1.390
 7943TIP3    H223787   1.320   5.135   1.339
 7944TIP3   OH223788   1.458   0.340   0.700
 7944TIP3    H123789   1.493   0.349   0.788
 7944TIP3    H223790   1.524   0.378   0.643
 7945TIP3   OH223791   0.779   2.389   0.721
 7945TIP3    H123792   0.738   2.305   0.743
 7945TIP3    H223793   0.839   2.406   0.793
 7946TIP3   OH223794   3.539   1.960   2.702
 7946TIP3    H123795   3.544   1.886   2.763
 7946TIP3    H223796   3.448   1.990   2.706
 7947TIP3   OH223797   5.351   1.816   4.688
 7947TIP3    H123798   5.402   1.882   4.735
 7947TIP3    H223799   5.319   1.861   4.610
 7948TIP3   OH223800   7.516   3.080   2.356
 7948TIP3    H123801   7.585   3.094   2.421
 7948TIP3    H223802   7.435   3.082   2.408
 7949TIP3   OH223803   7.523   2.481   3.782
 7949TIP3    H123804   7.563   2.395   3.797
 7949TIP3    H223805   7.548   2.503   3.692
 7950TIP3   OH223806   6.351   2.980   3.572
 7950TIP3    H123807   6.421   3.043   3.563
 7950TIP3    H223808   6.272   3.026   3.542
 7951TIP3   OH223809   2.469   2.141   2.457
 7951TIP3    H123810   2.439   2.167   2.544
 7951TIP3    H223811   2.426   2.202   2.398
 7952TIP3   OH223812  -0.005   6.797   5.488
 7952TIP3    H123813   0.089   6.800   5.470
 7952TIP3    H223814  -0.040   6.734   5.425
 7953TIP3   OH223815   1.651   3.998   3.826
 7953TIP3    H123816   1.677   4.087   3.804
 7953TIP3    H223817   1.656   3.994   3.922
 7954TIP3   OH223818   1.765   1.011   0.488
 7954TIP3    H123819   1.728   1.072   0.552
 7954TIP3    H223820   1.745   0.924   0.523
 7955TIP3   OH223821   4.559   0.859   2.525
 7955TIP3    H123822   4.561   0.831   2.433
 7955TIP3    H223823   4.466   0.872   2.543
 7956TIP3   OH223824   6.394   1.547   1.116
 7956TIP3    H123825   6.345   1.520   1.194
 7956TIP3    H223826   6.465   1.484   1.109
 7957TIP3   OH223827   5.187   4.447   1.724
 7957TIP3    H123828   5.244   4.373   1.741
 7957TIP3    H223829   5.127   4.450   1.798
 7958TIP3   OH223830   3.094   4.351   1.431
 7958TIP3    H123831   3.180   4.388   1.416
 7958TIP3    H223832   3.036   4.399   1.372
 7959TIP3   OH223833   6.687   1.253   2.730
 7959TIP3    H123834   6.596   1.260   2.701
 7959TIP3    H223835   6.714   1.344   2.745
 7960TIP3   OH223836   7.910   4.500   1.229
 7960TIP3    H123837   7.858   4.538   1.157
 7960TIP3    H223838   7.922   4.573   1.290
 7961TIP3   OH223839   1.504   6.982   1.824
 7961TIP3    H123840   1.531   7.003   1.734
 7961TIP3    H223841   1.533   6.892   1.837
 7962TIP3   OH223842   7.632   7.471   1.780
 7962TIP3    H123843   7.541   7.449   1.799
 7962TIP3    H223844   7.638   7.565   1.799
 7963TIP3   OH223845   7.719   1.459   6.724
 7963TIP3    H123846   7.804   1.496   6.747
 7963TIP3    H223847   7.720   1.454   6.629
 7964TIP3   OH223848   5.366   3.940   5.143
 7964TIP3    H123849   5.361   4.035   5.156
 7964TIP3    H223850   5.279   3.916   5.111
 7965TIP3   OH223851   5.776   6.841   1.992
 7965TIP3    H123852   5.800   6.792   2.071
 7965TIP3    H223853   5.706   6.899   2.022
 7966TIP3   OH223854   3.651   6.252   3.543
 7966TIP3    H123855   3.661   6.233   3.636
 7966TIP3    H223856   3.618   6.342   3.541
 7967TIP3   OH223857   7.049   4.626   5.220
 7967TIP3    H123858   7.024   4.694   5.157
 7967TIP3    H223859   7.080   4.554   5.166
 7968TIP3   OH223860   0.793   4.758   1.745
 7968TIP3    H123861   0.714   4.807   1.722
 7968TIP3    H223862   0.772   4.717   1.829
 7969TIP3   OH223863   3.217   5.551   0.143
 7969TIP3    H123864   3.127   5.539   0.112
 7969TIP3    H223865   3.209   5.607   0.220
 7970TIP3   OH223866   3.346   1.070   5.940
 7970TIP3    H123867   3.390   0.995   5.898
 7970TIP3    H223868   3.310   1.033   6.021
 7971TIP3   OH223869   5.786   4.026   1.967
 7971TIP3    H123870   5.881   4.016   1.956
 7971TIP3    H223871   5.759   3.946   2.013
 7972TIP3   OH223872   7.339   1.173   0.116
 7972TIP3    H123873   7.417   1.207   0.071
 7972TIP3    H223874   7.270   1.178   0.050
 7973TIP3   OH223875   1.480   4.125   2.184
 7973TIP3    H123876   1.558   4.094   2.229
 7973TIP3    H223877   1.489   4.094   2.094
 7974TIP3   OH223878   0.424   1.359   3.752
 7974TIP3    H123879   0.331   1.350   3.774
 7974TIP3    H223880   0.427   1.428   3.686
 7975TIP3   OH223881   3.676   7.536   6.387
 7975TIP3    H123882   3.752   7.546   6.329
 7975TIP3    H223883   3.638   7.624   6.392
 7976TIP3   OH223884   1.061   6.049   3.286
 7976TIP3    H123885   0.994   6.117   3.282
 7976TIP3    H223886   1.144   6.095   3.277
 7977TIP3   OH223887   7.898   6.989   3.846
 7977TIP3    H123888   7.810   6.965   3.815
 7977TIP3    H223889   7.954   6.975   3.769
 7978TIP3   OH223890   1.655   0.589   6.220
 7978TIP3    H123891   1.725   0.604   6.283
 7978TIP3    H223892   1.631   0.677   6.189
 7979TIP3   OH223893   8.135   2.155   3.237
 7979TIP3    H123894   8.198   2.085   3.255
 7979TIP3    H223895   8.089   2.167   3.320
 7980TIP3   OH223896   7.484   2.940   2.088
 7980TIP3    H123897   7.518   2.954   2.176
 7980TIP3    H223898   7.402   2.990   2.086
 7981TIP3   OH223899   0.626   6.494   3.211
 7981TIP3    H123900   0.593   6.538   3.289
 7981TIP3    H223901   0.561   6.427   3.191
 7982TIP3   OH223902   4.990   6.976   0.771
 7982TIP3    H123903   4.925   6.965   0.840
 7982TIP3    H223904   5.002   6.888   0.735
 7983TIP3   OH223905   0.213   6.541   1.413
 7983TIP3    H123906   0.163   6.557   1.333
 7983TIP3    H223907   0.227   6.446   1.414
 7984TIP3   OH223908   6.282   1.422   0.747
 7984TIP3    H123909   6.272   1.349   0.687
 7984TIP3    H223910   6.374   1.420   0.773
 7985TIP3   OH223911   0.898   6.135   2.115
 7985TIP3    H123912   0.937   6.221   2.132
 7985TIP3    H223913   0.919   6.117   2.023
 7986TIP3   OH223914   0.434   0.553   4.822
 7986TIP3    H123915   0.467   0.622   4.879
 7986TIP3    H223916   0.513   0.509   4.789
 7987TIP3   OH223917   2.583   4.835   2.715
 7987TIP3    H123918   2.556   4.846   2.806
 7987TIP3    H223919   2.508   4.866   2.663
 7988TIP3   OH223920   4.817   0.945   0.950
 7988TIP3    H123921   4.834   0.948   0.855
 7988TIP3    H223922   4.869   1.017   0.985
 7989TIP3   OH223923   0.852   6.630   1.190
 7989TIP3    H123924   0.837   6.546   1.234
 7989TIP3    H223925   0.767   6.655   1.156
 7990TIP3   OH223926   6.751   0.612   5.171
 7990TIP3    H123927   6.824   0.582   5.117
 7990TIP3    H223928   6.737   0.702   5.143
 7991TIP3   OH223929   0.707   1.208   5.753
 7991TIP3    H123930   0.726   1.146   5.682
 7991TIP3    H223931   0.616   1.191   5.776
 7992TIP3   OH223932   7.614   6.517   4.331
 7992TIP3    H123933   7.533   6.484   4.370
 7992TIP3    H223934   7.682   6.497   4.394
 7993TIP3   OH223935   2.177   7.150   6.231
 7993TIP3    H123936   2.246   7.162   6.165
 7993TIP3    H223937   2.099   7.190   6.192
 7994TIP3   OH223938   8.144   6.378   0.187
 7994TIP3    H123939   8.085   6.322   0.136
 7994TIP3    H223940   8.158   6.331   0.268
 7995TIP3   OH223941   7.069   4.992   2.491
 7995TIP3    H123942   7.000   5.024   2.550
 7995TIP3    H223943   7.022   4.939   2.426
 7996TIP3   OH223944   1.197   4.070   5.147
 7996TIP3    H123945   1.220   4.053   5.238
 7996TIP3    H223946   1.200   3.983   5.106
 7997TIP3   OH223947   4.905   2.234   1.436
 7997TIP3    H123948   4.931   2.156   1.486
 7997TIP3    H223949   4.853   2.286   1.499
 7998TIP3   OH223950   2.163   0.065   6.129
 7998TIP3    H123951   2.103   0.139   6.141
 7998TIP3    H223952   2.146   0.035   6.040
 7999TIP3   OH223953   7.404   0.439   3.817
 7999TIP3    H123954   7.475   0.377   3.800
 7999TIP3    H223955   7.408   0.455   3.911
 8000TIP3   OH223956   8.231   4.091   4.987
 8000TIP3    H123957   8.319   4.105   4.954
 8000TIP3    H223958   8.214   4.165   5.046
 8001TIP3   OH223959   7.645   5.855   2.957
 8001TIP3    H123960   7.621   5.887   2.870
 8001TIP3    H223961   7.643   5.759   2.949
 8002TIP3   OH223962   2.983   3.634   6.119
 8002TIP3    H123963   3.038   3.565   6.081
 8002TIP3    H223964   2.969   3.606   6.210
 8003TIP3   OH223965   7.658   5.522   6.052
 8003TIP3    H123966   7.572   5.500   6.088
 8003TIP3    H223967   7.639   5.583   5.980
 8004TIP3   OH223968   1.983   0.233   4.272
 8004TIP3    H123969   2.041   0.280   4.333
 8004TIP3    H223970   2.041   0.173   4.226
 8005TIP3   OH223971   6.128   5.432   5.792
 8005TIP3    H123972   6.165   5.355   5.836
 8005TIP3    H223973   6.183   5.505   5.822
 8006TIP3   OH223974   8.252   3.379   0.015
 8006TIP3    H123975   8.253   3.462  -0.032
 8006TIP3    H223976   8.290   3.317  -0.047
 8007TIP3   OH223977   0.262   5.147   2.983
 8007TIP3    H123978   0.319   5.221   3.004
 8007TIP3    H223979   0.173   5.182   2.986
 8008TIP3   OH223980   6.291   3.343   6.762
 8008TIP3    H123981   6.277   3.437   6.752
 8008TIP3    H223982   6.385   3.331   6.749
 8009TIP3   OH223983   3.594   7.591   5.927
 8009TIP3    H123984   3.558   7.512   5.968
 8009TIP3    H223985   3.687   7.589   5.949
 8010TIP3   OH223986   2.072   1.128   0.174
 8010TIP3    H123987   2.039   1.199   0.119
 8010TIP3    H223988   2.122   1.173   0.243
 8011TIP3   OH223989   7.820   1.112   2.545
 8011TIP3    H123990   7.757   1.152   2.605
 8011TIP3    H223991   7.788   1.023   2.532
 8012TIP3   OH223992   6.875   5.822   1.386
 8012TIP3    H123993   6.856   5.907   1.345
 8012TIP3    H223994   6.789   5.783   1.400
 8013TIP3   OH223995   6.803   2.447   6.323
 8013TIP3    H123996   6.767   2.420   6.408
 8013TIP3    H223997   6.858   2.374   6.296
 8014TIP3   OH223998   3.165   0.730   2.399
 8014TIP3    H123999   3.163   0.654   2.340
 8014TIP3    H224000   3.106   0.705   2.471
 8015TIP3   OH224001   6.214   6.879   3.572
 8015TIP3    H124002   6.183   6.942   3.507
 8015TIP3    H224003   6.297   6.847   3.538
 8016TIP3   OH224004   7.463   4.098   2.445
 8016TIP3    H124005   7.464   4.193   2.441
 8016TIP3    H224006   7.527   4.070   2.379
 8017TIP3   OH224007   0.727   2.162   3.780
 8017TIP3    H124008   0.704   2.235   3.838
 8017TIP3    H224009   0.725   2.085   3.836
 8018TIP3   OH224010   4.573   6.018   1.813
 8018TIP3    H124011   4.530   6.103   1.809
 8018TIP3    H224012   4.539   5.970   1.738
 8019TIP3   OH224013   4.890   7.291   1.359
 8019TIP3    H124014   4.955   7.245   1.413
 8019TIP3    H224015   4.926   7.288   1.271
 8020TIP3   OH224016   3.866   2.207   0.802
 8020TIP3    H124017   3.923   2.177   0.731
 8020TIP3    H224018   3.832   2.126   0.840
 8021TIP3   OH224019   6.417   4.280   2.475
 8021TIP3    H124020   6.467   4.235   2.542
 8021TIP3    H224021   6.423   4.373   2.498
 8022TIP3   OH224022   5.339   4.026   2.183
 8022TIP3    H124023   5.424   3.988   2.164
 8022TIP3    H224024   5.282   3.997   2.112
 8023TIP3   OH224025   6.008   0.412   5.195
 8023TIP3    H124026   5.971   0.375   5.115
 8023TIP3    H224027   5.935   0.411   5.257
 8024TIP3   OH224028   6.062   0.245   6.380
 8024TIP3    H124029   6.065   0.320   6.320
 8024TIP3    H224030   6.085   0.170   6.326
 8025TIP3   OH224031   3.585   0.048   1.137
 8025TIP3    H124032   3.553   0.007   1.057
 8025TIP3    H224033   3.610  -0.025   1.193
 8026TIP3   OH224034   2.552   6.482   3.885
 8026TIP3    H124035   2.463   6.512   3.901
 8026TIP3    H224036   2.559   6.400   3.934
 8027TIP3   OH224037   7.333   0.816   0.590
 8027TIP3    H124038   7.391   0.756   0.637
 8027TIP3    H224039   7.349   0.797   0.498
 8028TIP3   OH224040   6.283   6.246   3.075
 8028TIP3    H124041   6.263   6.152   3.069
 8028TIP3    H224042   6.358   6.251   3.133
 8029TIP3   OH224043   7.867   3.899   0.634
 8029TIP3    H124044   7.838   3.965   0.697
 8029TIP3    H224045   7.918   3.947   0.570
 8030TIP3   OH224046   6.234   6.687   2.065
 8030TIP3    H124047   6.213   6.602   2.026
 8030TIP3    H224048   6.277   6.736   1.994
 8031TIP3   OH224049   5.377   2.186   0.116
 8031TIP3    H124050   5.438   2.259   0.108
 8031TIP3    H224051   5.333   2.182   0.031
 8032TIP3   OH224052   3.183   5.731   0.347
 8032TIP3    H124053   3.183   5.681   0.428
 8032TIP3    H224054   3.136   5.812   0.368
 8033TIP3   OH224055   7.337   1.127   4.659
 8033TIP3    H124056   7.280   1.053   4.678
 8033TIP3    H224057   7.424   1.089   4.649
 8034TIP3   OH224058   1.671   7.158   2.855
 8034TIP3    H124059   1.759   7.122   2.841
 8034TIP3    H224060   1.624   7.137   2.774
 8035TIP3   OH224061   1.001   0.354   6.016
 8035TIP3    H124062   1.080   0.391   6.055
 8035TIP3    H224063   1.019   0.260   6.011
 8036TIP3   OH224064   7.554   3.747   1.957
 8036TIP3    H124065   7.589   3.799   1.885
 8036TIP3    H224066   7.474   3.708   1.922
 8037TIP3   OH224067   7.632   2.932   6.236
 8037TIP3    H124068   7.624   2.865   6.168
 8037TIP3    H224069   7.657   3.011   6.189
 8038TIP3   OH224070   2.478   1.894   0.596
 8038TIP3    H124071   2.472   1.901   0.691
 8038TIP3    H224072   2.559   1.846   0.580
 8039TIP3   OH224073   3.171   3.476   3.004
 8039TIP3    H124074   3.232   3.494   2.933
 8039TIP3    H224075   3.223   3.491   3.084
 8040TIP3   OH224076   4.100   5.835   3.368
 8040TIP3    H124077   4.030   5.835   3.303
 8040TIP3    H224078   4.088   5.917   3.417
 8041TIP3   OH224079   7.410   4.032   2.712
 8041TIP3    H124080   7.344   3.963   2.701
 8041TIP3    H224081   7.418   4.072   2.625
 8042TIP3   OH224082   0.895   6.435   0.960
 8042TIP3    H124083   0.831   6.430   0.889
 8042TIP3    H224084   0.880   6.521   0.999
 8043TIP3   OH224085   0.457   1.064   0.548
 8043TIP3    H124086   0.422   0.995   0.603
 8043TIP3    H224087   0.398   1.138   0.562
 8044TIP3   OH224088   2.204   5.064   1.720
 8044TIP3    H124089   2.251   5.108   1.791
 8044TIP3    H224090   2.224   5.116   1.642
 8045TIP3   OH224091   7.643   6.457   1.075
 8045TIP3    H124092   7.734   6.442   1.100
 8045TIP3    H224093   7.612   6.372   1.043
 8046TIP3   OH224094   5.829   6.887   6.360
 8046TIP3    H124095   5.743   6.899   6.400
 8046TIP3    H224096   5.815   6.901   6.267
 8047TIP3   OH224097   3.545   4.463   5.274
 8047TIP3    H124098   3.519   4.477   5.365
 8047TIP3    H224099   3.470   4.419   5.234
 8048TIP3   OH224100   3.018   5.862   4.713
 8048TIP3    H124101   2.984   5.778   4.744
 8048TIP3    H224102   3.071   5.840   4.636
 8049TIP3   OH224103   5.935   3.270   0.185
 8049TIP3    H124104   5.984   3.238   0.110
 8049TIP3    H224105   5.926   3.194   0.243
 8050TIP3   OH224106   0.506   6.666   4.518
 8050TIP3    H124107   0.513   6.620   4.435
 8050TIP3    H224108   0.450   6.742   4.499
 8051TIP3   OH224109   6.723   7.001   4.538
 8051TIP3    H124110   6.811   6.968   4.520
 8051TIP3    H224111   6.665   6.928   4.519
 8052TIP3   OH224112   0.470   7.356   0.040
 8052TIP3    H124113   0.397   7.358   0.103
 8052TIP3    H224114   0.545   7.386   0.091
 8053TIP3   OH224115   8.043   5.402   4.280
 8053TIP3    H124116   8.130   5.369   4.261
 8053TIP3    H224117   7.997   5.328   4.320
 8054TIP3   OH224118   1.085   6.647   6.460
 8054TIP3    H124119   1.055   6.713   6.522
 8054TIP3    H224120   1.073   6.688   6.374
 8055TIP3   OH224121   3.706   3.534   4.419
 8055TIP3    H124122   3.706   3.499   4.508
 8055TIP3    H224123   3.638   3.602   4.419
 8056TIP3   OH224124   3.721   7.639   5.059
 8056TIP3    H124125   3.628   7.644   5.079
 8056TIP3    H224126   3.761   7.599   5.136
 8057TIP3   OH224127   5.779   0.051   5.280
 8057TIP3    H124128   5.687   0.043   5.256
 8057TIP3    H224129   5.792   0.145   5.295
 8058TIP3   OH224130   3.704   1.012   1.972
 8058TIP3    H124131   3.704   1.023   1.877
 8058TIP3    H224132   3.612   1.016   1.997
 8059TIP3   OH224133   0.795   2.929   0.697
 8059TIP3    H124134   0.851   2.851   0.697
 8059TIP3    H224135   0.843   2.993   0.645
 8060TIP3   OH224136   5.699   4.411   1.333
 8060TIP3    H124137   5.626   4.470   1.356
 8060TIP3    H224138   5.727   4.374   1.416
 8061TIP3   OH224139   1.910   4.065   2.201
 8061TIP3    H124140   1.864   4.034   2.123
 8061TIP3    H224141   1.956   3.987   2.235
 8062TIP3   OH224142   5.728   3.825   0.642
 8062TIP3    H124143   5.680   3.877   0.706
 8062TIP3    H224144   5.741   3.883   0.567
 8063TIP3   OH224145   1.880   0.710   6.630
 8063TIP3    H124146   1.941   0.641   6.655
 8063TIP3    H224147   1.796   0.683   6.669
 8064TIP3   OH224148   4.309   6.613   0.699
 8064TIP3    H124149   4.359   6.578   0.625
 8064TIP3    H224150   4.218   6.589   0.681
 8065TIP3   OH224151   3.590   1.932   6.296
 8065TIP3    H124152   3.673   1.968   6.265
 8065TIP3    H224153   3.524   1.983   6.249
 8066TIP3   OH224154   1.167   4.915   4.483
 8066TIP3    H124155   1.150   4.997   4.531
 8066TIP3    H224156   1.233   4.940   4.418
 8067TIP3   OH224157   5.352   4.244   0.952
 8067TIP3    H124158   5.418   4.294   0.905
 8067TIP3    H224159   5.400   4.203   1.024
 8068TIP3   OH224160   6.619   0.152   6.432
 8068TIP3    H124161   6.525   0.137   6.433
 8068TIP3    H224162   6.635   0.200   6.351
 8069TIP3   OH224163   1.685   1.062   4.410
 8069TIP3    H124164   1.725   1.129   4.466
 8069TIP3    H224165   1.710   1.087   4.321
 8070TIP3   OH224166   6.873   0.196   3.421
 8070TIP3    H124167   6.954   0.146   3.415
 8070TIP3    H224168   6.882   0.248   3.501
 8071TIP3   OH224169   2.963   1.834   0.208
 8071TIP3    H124170   2.963   1.866   0.117
 8071TIP3    H224171   2.921   1.749   0.203
 8072TIP3   OH224172   0.155   2.295   3.377
 8072TIP3    H124173   0.143   2.257   3.464
 8072TIP3    H224174   0.187   2.383   3.393
 8073TIP3   OH224175   7.298   3.403   0.237
 8073TIP3    H124176   7.205   3.421   0.255
 8073TIP3    H224177   7.332   3.486   0.203
 8074TIP3   OH224178   1.869   0.506   6.047
 8074TIP3    H124179   1.846   0.532   5.958
 8074TIP3    H224180   1.790   0.522   6.099
 8075TIP3   OH224181   0.816   4.699   2.019
 8075TIP3    H124182   0.731   4.663   2.045
 8075TIP3    H224183   0.827   4.777   2.073
 8076TIP3   OH224184   6.404   0.090   1.290
 8076TIP3    H124185   6.364   0.165   1.335
 8076TIP3    H224186   6.489   0.079   1.333
 8077TIP3   OH224187   5.740   5.468   4.139
 8077TIP3    H124188   5.801   5.536   4.168
 8077TIP3    H224189   5.793   5.412   4.081
 8078TIP3   OH224190   3.921   5.149   1.981
 8078TIP3    H124191   3.840   5.182   1.943
 8078TIP3    H224192   3.899   5.131   2.073
 8079TIP3   OH224193   5.759   5.121   1.386
 8079TIP3    H124194   5.799   5.044   1.346
 8079TIP3    H224195   5.691   5.148   1.324
 8080TIP3   OH224196   1.098   6.192   1.543
 8080TIP3    H124197   1.164   6.244   1.496
 8080TIP3    H224198   1.034   6.168   1.475
 8081TIP3   OH224199   5.426   3.385   2.082
 8081TIP3    H124200   5.372   3.362   2.158
 8081TIP3    H224201   5.515   3.362   2.109
 8082TIP3   OH224202   1.291   2.310   1.688
 8082TIP3    H124203   1.323   2.232   1.734
 8082TIP3    H224204   1.238   2.356   1.752
 8083TIP3   OH224205   2.638   1.504   5.980
 8083TIP3    H124206   2.572   1.485   5.914
 8083TIP3    H224207   2.722   1.490   5.935
 8084TIP3   OH224208   7.801   2.676   6.663
 8084TIP3    H124209   7.836   2.738   6.727
 8084TIP3    H224210   7.713   2.708   6.644
 8085TIP3   OH224211   6.339   6.611   3.403
 8085TIP3    H124212   6.292   6.614   3.320
 8085TIP3    H224213   6.324   6.522   3.436
 8086TIP3   OH224214   1.101   4.518   5.825
 8086TIP3    H124215   1.183   4.471   5.807
 8086TIP3    H224216   1.091   4.577   5.750
 8087TIP3   OH224217   1.304   1.346   3.701
 8087TIP3    H124218   1.269   1.285   3.636
 8087TIP3    H224219   1.308   1.295   3.782
 8088TIP3   OH224220   5.563   7.653   3.206
 8088TIP3    H124221   5.641   7.608   3.238
 8088TIP3    H224222   5.573   7.743   3.239
 8089TIP3   OH224223   8.172   6.353   5.557
 8089TIP3    H124224   8.236   6.407   5.604
 8089TIP3    H224225   8.189   6.371   5.465
 8090TIP3   OH224226  -0.025   0.118   1.870
 8090TIP3    H124227   0.048   0.077   1.824
 8090TIP3    H224228   0.007   0.132   1.959
 8091TIP3   OH224229   7.011   3.078   6.658
 8091TIP3    H124230   6.979   3.042   6.740
 8091TIP3    H224231   7.071   3.012   6.624
 8092TIP3   OH224232   6.969   7.594   2.396
 8092TIP3    H124233   6.935   7.520   2.447
 8092TIP3    H224234   6.924   7.588   2.312
 8093TIP3   OH224235   3.077   2.766   0.144
 8093TIP3    H124236   3.118   2.853   0.136
 8093TIP3    H224237   2.985   2.781   0.124
 8094TIP3   OH224238   2.870   5.579   0.297
 8094TIP3    H124239   2.901   5.503   0.346
 8094TIP3    H224240   2.924   5.579   0.218
 8095TIP3   OH224241   2.183   2.377   1.893
 8095TIP3    H124242   2.160   2.467   1.918
 8095TIP3    H224243   2.200   2.382   1.799
 8096TIP3   OH224244   0.897   4.144   0.791
 8096TIP3    H124245   0.845   4.104   0.722
 8096TIP3    H224246   0.835   4.165   0.860
 8097TIP3   OH224247   4.071   5.309   1.673
 8097TIP3    H124248   4.134   5.371   1.636
 8097TIP3    H224249   3.987   5.355   1.670
 8098TIP3   OH224250   6.709   3.211   0.457
 8098TIP3    H124251   6.655   3.245   0.528
 8098TIP3    H224252   6.781   3.273   0.450
 8099TIP3   OH224253   7.806   0.548   2.046
 8099TIP3    H124254   7.848   0.634   2.047
 8099TIP3    H224255   7.859   0.496   1.986
 8100TIP3   OH224256   7.670   2.555   0.872
 8100TIP3    H124257   7.590   2.540   0.922
 8100TIP3    H224258   7.722   2.476   0.888
 8101TIP3   OH224259   6.911   3.072   0.309
 8101TIP3    H124260   6.845   3.088   0.376
 8101TIP3    H224261   6.983   3.028   0.355
 8102TIP3   OH224262   0.688   6.068   1.045
 8102TIP3    H124263   0.685   6.083   1.140
 8102TIP3    H224264   0.602   6.095   1.014
 8103TIP3   OH224265   4.206   6.945   4.552
 8103TIP3    H124266   4.158   6.924   4.472
 8103TIP3    H224267   4.196   7.040   4.562
 8104TIP3   OH224268   7.009   6.772   1.166
 8104TIP3    H124269   7.042   6.818   1.244
 8104TIP3    H224270   6.983   6.842   1.107
 8105TIP3   OH224271   5.223   1.368   2.498
 8105TIP3    H124272   5.271   1.450   2.487
 8105TIP3    H224273   5.279   1.302   2.457
 8106TIP3   OH224274   0.461   2.622   4.985
 8106TIP3    H124275   0.485   2.541   4.940
 8106TIP3    H224276   0.433   2.681   4.916
 8107TIP3   OH224277   2.902   2.332   4.247
 8107TIP3    H124278   2.982   2.354   4.294
 8107TIP3    H224279   2.919   2.358   4.157
 8108TIP3   OH224280   1.068   3.651   1.164
 8108TIP3    H124281   0.987   3.626   1.210
 8108TIP3    H224282   1.081   3.743   1.186
 8109TIP3   OH224283   4.360   7.670   1.295
 8109TIP3    H124284   4.277   7.719   1.300
 8109TIP3    H224285   4.412   7.706   1.367
 8110TIP3   OH224286   7.599   2.251   2.050
 8110TIP3    H124287   7.527   2.189   2.045
 8110TIP3    H224288   7.636   2.239   2.138
 8111TIP3   OH224289   4.356   1.475   1.644
 8111TIP3    H124290   4.423   1.527   1.599
 8111TIP3    H224291   4.404   1.429   1.713
 8112TIP3   OH224292   4.679   1.293   4.533
 8112TIP3    H124293   4.725   1.219   4.492
 8112TIP3    H224294   4.745   1.361   4.540
 8113TIP3   OH224295   3.433   1.073   3.029
 8113TIP3    H124296   3.506   1.120   2.989
 8113TIP3    H224297   3.462   1.056   3.119
 8114TIP3   OH224298   1.765   2.234   4.248
 8114TIP3    H124299   1.842   2.220   4.304
 8114TIP3    H224300   1.793   2.302   4.186
 8115TIP3   OH224301   8.256   0.277   5.786
 8115TIP3    H124302   8.222   0.208   5.728
 8115TIP3    H224303   8.351   0.265   5.784
 8116TIP3   OH224304   7.393   4.511   0.196
 8116TIP3    H124305   7.319   4.450   0.186
 8116TIP3    H224306   7.376   4.556   0.279
 8117TIP3   OH224307   0.352   2.874   0.032
 8117TIP3    H124308   0.406   2.942  -0.009
 8117TIP3    H224309   0.302   2.920   0.099
 8118TIP3   OH224310   6.590  -0.017   4.165
 8118TIP3    H124311   6.664   0.043   4.155
 8118TIP3    H224312   6.515   0.032   4.133
 8119TIP3   OH224313   7.976   0.904   4.959
 8119TIP3    H124314   7.960   0.920   5.052
 8119TIP3    H224315   8.058   0.950   4.940
 8120TIP3   OH224316   2.083   3.520   3.388
 8120TIP3    H124317   2.099   3.613   3.373
 8120TIP3    H224318   2.040   3.517   3.474
 8121TIP3   OH224319   2.922   3.701   6.673
 8121TIP3    H124320   2.901   3.700   6.767
 8121TIP3    H224321   2.964   3.786   6.659
 8122TIP3   OH224322   2.375   1.585   3.730
 8122TIP3    H124323   2.310   1.526   3.691
 8122TIP3    H224324   2.359   1.669   3.687
 8123TIP3   OH224325   6.837   0.136   5.584
 8123TIP3    H124326   6.755   0.155   5.539
 8123TIP3    H224327   6.841   0.040   5.587
 8124TIP3   OH224328   1.448   5.307   0.157
 8124TIP3    H124329   1.435   5.375   0.091
 8124TIP3    H224330   1.543   5.307   0.172
 8125TIP3   OH224331   2.369   5.532   0.544
 8125TIP3    H124332   2.417   5.519   0.462
 8125TIP3    H224333   2.319   5.612   0.529
 8126TIP3   OH224334   7.207   1.663   0.447
 8126TIP3    H124335   7.134   1.677   0.386
 8126TIP3    H224336   7.201   1.737   0.508
 8127TIP3   OH224337   7.649   2.689   0.350
 8127TIP3    H124338   7.579   2.752   0.334
 8127TIP3    H224339   7.728   2.733   0.318
 8128TIP3   OH224340   5.543   0.362   4.773
 8128TIP3    H124341   5.548   0.379   4.867
 8128TIP3    H224342   5.563   0.269   4.764
 8129TIP3   OH224343   4.308   7.671   1.024
 8129TIP3    H124344   4.223   7.716   1.031
 8129TIP3    H224345   4.322   7.634   1.111
 8130TIP3   OH224346   4.641   1.834   2.985
 8130TIP3    H124347   4.608   1.752   3.024
 8130TIP3    H224348   4.587   1.902   3.024
 8131TIP3   OH224349   2.202   1.010   1.855
 8131TIP3    H124350   2.187   0.934   1.798
 8131TIP3    H224351   2.186   0.977   1.944
 8132TIP3   OH224352   1.808   0.883   0.808
 8132TIP3    H124353   1.783   0.968   0.842
 8132TIP3    H224354   1.742   0.863   0.741
 8133TIP3   OH224355   7.859   4.237   3.367
 8133TIP3    H124356   7.904   4.191   3.296
 8133TIP3    H224357   7.864   4.178   3.441
 8134TIP3   OH224358   5.744   4.378   4.213
 8134TIP3    H124359   5.667   4.339   4.171
 8134TIP3    H224360   5.766   4.318   4.284
 8135TIP3   OH224361   5.655   4.193   5.530
 8135TIP3    H124362   5.590   4.207   5.460
 8135TIP3    H224363   5.730   4.153   5.486
 8136TIP3   OH224364   5.266   6.141   1.780
 8136TIP3    H124365   5.303   6.059   1.748
 8136TIP3    H224366   5.288   6.205   1.713
 8137TIP3   OH224367   1.916   5.539   2.961
 8137TIP3    H124368   2.007   5.567   2.952
 8137TIP3    H224369   1.922   5.447   2.989
 8138TIP3   OH224370   5.373   2.487   6.486
 8138TIP3    H124371   5.335   2.573   6.501
 8138TIP3    H224372   5.298   2.428   6.479
 8139TIP3   OH224373   5.006   3.333   2.204
 8139TIP3    H124374   4.911   3.324   2.197
 8139TIP3    H224375   5.034   3.354   2.115
 8140TIP3   OH224376   0.621   1.719   6.257
 8140TIP3    H124377   0.593   1.808   6.279
 8140TIP3    H224378   0.639   1.721   6.163
 8141TIP3   OH224379   1.855   1.608   5.208
 8141TIP3    H124380   1.908   1.688   5.202
 8141TIP3    H224381   1.880   1.557   5.131
 8142TIP3   OH224382   4.473   3.340   2.990
 8142TIP3    H124383   4.510   3.365   2.906
 8142TIP3    H224384   4.462   3.422   3.037
 8143TIP3   OH224385   7.633   7.270   2.425
 8143TIP3    H124386   7.721   7.234   2.420
 8143TIP3    H224387   7.601   7.247   2.512
 8144TIP3   OH224388   2.897   5.575   5.510
 8144TIP3    H124389   2.958   5.512   5.550
 8144TIP3    H224390   2.832   5.591   5.578
 8145TIP3   OH224391   0.766   4.184   1.439
 8145TIP3    H124392   0.679   4.222   1.446
 8145TIP3    H224393   0.812   4.241   1.376
 8146TIP3   OH224394   4.426   4.228   4.425
 8146TIP3    H124395   4.401   4.282   4.350
 8146TIP3    H224396   4.489   4.282   4.473
 8147TIP3   OH224397   0.791   4.321   2.408
 8147TIP3    H124398   0.858   4.313   2.476
 8147TIP3    H224399   0.735   4.393   2.437
 8148TIP3   OH224400   5.227   4.441   6.086
 8148TIP3    H124401   5.280   4.457   6.164
 8148TIP3    H224402   5.147   4.492   6.101
 8149TIP3   OH224403   5.144   5.185   6.309
 8149TIP3    H124404   5.052   5.159   6.317
 8149TIP3    H224405   5.191   5.124   6.366
 8150TIP3   OH224406   7.830   3.190   4.099
 8150TIP3    H124407   7.898   3.123   4.106
 8150TIP3    H224408   7.878   3.273   4.101
 8151TIP3   OH224409   2.445   6.613   0.107
 8151TIP3    H124410   2.370   6.596   0.164
 8151TIP3    H224411   2.496   6.679   0.153
 8152TIP3   OH224412   5.475   5.010   2.027
 8152TIP3    H124413   5.482   5.103   2.003
 8152TIP3    H224414   5.565   4.984   2.047
 8153TIP3   OH224415   4.251   3.853   2.147
 8153TIP3    H124416   4.327   3.804   2.176
 8153TIP3    H224417   4.201   3.870   2.226
 8154TIP3   OH224418   4.143   2.664   2.571
 8154TIP3    H124419   4.147   2.584   2.624
 8154TIP3    H224420   4.055   2.699   2.588
 8155TIP3   OH224421   4.404   6.802   0.847
 8155TIP3    H124422   4.359   6.886   0.853
 8155TIP3    H224423   4.352   6.750   0.786
 8156TIP3   OH224424   0.629   1.351   1.748
 8156TIP3    H124425   0.689   1.392   1.810
 8156TIP3    H224426   0.685   1.322   1.676
 8157TIP3   OH224427   0.505   1.059   1.791
 8157TIP3    H124428   0.463   1.127   1.739
 8157TIP3    H224429   0.590   1.044   1.749
 8158TIP3   OH224430   7.645   6.594   5.895
 8158TIP3    H124431   7.654   6.517   5.838
 8158TIP3    H224432   7.554   6.621   5.884
 8159TIP3   OH224433   4.925   7.717   2.762
 8159TIP3    H124434   4.897   7.798   2.721
 8159TIP3    H224435   4.874   7.711   2.842
 8160TIP3   OH224436   2.847   5.589   5.233
 8160TIP3    H124437   2.833   5.589   5.328
 8160TIP3    H224438   2.766   5.553   5.197
 8161TIP3   OH224439   4.918   7.690   6.006
 8161TIP3    H124440   4.910   7.651   5.918
 8161TIP3    H224441   4.966   7.771   5.992
 8162TIP3   OH224442   1.479   0.679   0.219
 8162TIP3    H124443   1.560   0.633   0.242
 8162TIP3    H224444   1.507   0.770   0.207
 8163TIP3   OH224445   7.269   6.014   1.721
 8163TIP3    H124446   7.220   6.002   1.639
 8163TIP3    H224447   7.220   5.963   1.786
 8164TIP3   OH224448   1.247   5.846   0.344
 8164TIP3    H124449   1.200   5.846   0.261
 8164TIP3    H224450   1.217   5.925   0.389
 8165TIP3   OH224451   7.396   6.833   0.642
 8165TIP3    H124452   7.317   6.817   0.589
 8165TIP3    H224453   7.397   6.928   0.654
 8166TIP3   OH224454   6.975   6.014   4.842
 8166TIP3    H124455   6.989   5.987   4.751
 8166TIP3    H224456   6.889   6.057   4.842
 8167TIP3   OH224457   6.582   5.895   1.657
 8167TIP3    H124458   6.571   5.852   1.572
 8167TIP3    H224459   6.580   5.989   1.638
 8168TIP3   OH224460   7.228   0.180   4.956
 8168TIP3    H124461   7.289   0.108   4.943
 8168TIP3    H224462   7.222   0.191   5.051
 8169TIP3   OH224463   2.542   5.881   2.982
 8169TIP3    H124464   2.605   5.818   3.017
 8169TIP3    H224465   2.558   5.961   3.031
 8170TIP3   OH224466   5.792   4.155   1.712
 8170TIP3    H124467   5.780   4.146   1.807
 8170TIP3    H224468   5.806   4.065   1.681
 8171TIP3   OH224469   6.073   4.823   3.416
 8171TIP3    H124470   6.139   4.884   3.383
 8171TIP3    H224471   5.993   4.876   3.423
 8172TIP3   OH224472   2.724   2.460   5.216
 8172TIP3    H124473   2.776   2.510   5.153
 8172TIP3    H224474   2.702   2.523   5.284
 8173TIP3   OH224475   7.073  -0.088   6.687
 8173TIP3    H124476   7.022  -0.068   6.608
 8173TIP3    H224477   7.163  -0.068   6.663
 8174TIP3   OH224478   6.853   5.545   1.456
 8174TIP3    H124479   6.930   5.496   1.485
 8174TIP3    H224480   6.794   5.477   1.422
 8175TIP3   OH224481   2.710   2.342   3.714
 8175TIP3    H124482   2.731   2.346   3.807
 8175TIP3    H224483   2.796   2.337   3.671
 8176TIP3   OH224484   0.364   4.483   4.566
 8176TIP3    H124485   0.405   4.554   4.614
 8176TIP3    H224486   0.272   4.509   4.558
 8177TIP3   OH224487   6.149   0.687   5.214
 8177TIP3    H124488   6.176   0.711   5.125
 8177TIP3    H224489   6.072   0.632   5.201
 8178TIP3   OH224490   2.269   2.500   0.090
 8178TIP3    H124491   2.298   2.590   0.075
 8178TIP3    H224492   2.348   2.455   0.122
 8179TIP3   OH224493   6.314   1.410   4.518
 8179TIP3    H124494   6.321   1.405   4.423
 8179TIP3    H224495   6.402   1.430   4.549
 8180TIP3   OH224496   0.480   5.285   6.010
 8180TIP3    H124497   0.395   5.246   5.989
 8180TIP3    H224498   0.518   5.226   6.075
 8181TIP3   OH224499   2.975   0.830   4.380
 8181TIP3    H124500   2.896   0.795   4.423
 8181TIP3    H224501   3.035   0.848   4.452
 8182TIP3   OH224502   2.776   7.788  -0.022
 8182TIP3    H124503   2.729   7.704  -0.022
 8182TIP3    H224504   2.714   7.850   0.016
 8183TIP3   OH224505   0.494   3.850   4.602
 8183TIP3    H124506   0.469   3.936   4.569
 8183TIP3    H224507   0.576   3.830   4.557
 8184TIP3   OH224508   6.549   1.462   0.807
 8184TIP3    H124509   6.586   1.521   0.873
 8184TIP3    H224510   6.610   1.389   0.803
 8185TIP3   OH224511   5.294   4.129   2.686
 8185TIP3    H124512   5.354   4.203   2.677
 8185TIP3    H224513   5.258   4.116   2.598
 8186TIP3   OH224514   7.197   3.747   0.378
 8186TIP3    H124515   7.274   3.706   0.419
 8186TIP3    H224516   7.191   3.833   0.419
 8187TIP3   OH224517   7.166   5.972   0.791
 8187TIP3    H124518   7.147   6.065   0.789
 8187TIP3    H224519   7.254   5.964   0.752
 8188TIP3   OH224520   1.697   5.882   4.559
 8188TIP3    H124521   1.648   5.870   4.478
 8188TIP3    H224522   1.780   5.837   4.543
 8189TIP3   OH224523   2.745   3.531   6.557
 8189TIP3    H124524   2.682   3.486   6.613
 8189TIP3    H224525   2.798   3.584   6.617
 8190TIP3   OH224526   5.470   1.586   3.246
 8190TIP3    H124527   5.420   1.525   3.298
 8190TIP3    H224528   5.521   1.531   3.186
 8191TIP3   OH224529   6.503   0.216   3.615
 8191TIP3    H124530   6.478   0.124   3.625
 8191TIP3    H224531   6.595   0.213   3.587
 8192TIP3   OH224532   7.644   6.388   2.136
 8192TIP3    H124533   7.663   6.478   2.111
 8192TIP3    H224534   7.552   6.389   2.163
 8193TIP3   OH224535   0.466   5.794   6.078
 8193TIP3    H124536   0.558   5.793   6.050
 8193TIP3    H224537   0.419   5.830   6.003
 8194TIP3   OH224538   3.705   3.367   6.446
 8194TIP3    H124539   3.707   3.460   6.426
 8194TIP3    H224540   3.792   3.348   6.482
 8195TIP3   OH224541   7.691   1.521   5.545
 8195TIP3    H124542   7.659   1.444   5.592
 8195TIP3    H224543   7.783   1.527   5.570
 8196TIP3   OH224544   5.069   3.065   0.346
 8196TIP3    H124545   5.132   3.060   0.274
 8196TIP3    H224546   4.995   3.114   0.311
 8197TIP3   OH224547   8.063   0.299   4.410
 8197TIP3    H124548   8.056   0.295   4.506
 8197TIP3    H224549   8.157   0.301   4.392
 8198TIP3   OH224550   8.167   6.039   2.570
 8198TIP3    H124551   8.089   6.001   2.528
 8198TIP3    H224552   8.132   6.093   2.641
 8199TIP3   OH224553   7.283   4.107   5.808
 8199TIP3    H124554   7.370   4.067   5.816
 8199TIP3    H224555   7.252   4.079   5.722
 8200TIP3   OH224556   6.677   1.894   1.195
 8200TIP3    H124557   6.701   1.802   1.201
 8200TIP3    H224558   6.688   1.928   1.284
 8201TIP3   OH224559   2.308   1.521   6.685
 8201TIP3    H124560   2.286   1.474   6.766
 8201TIP3    H224561   2.342   1.605   6.715
 8202TIP3   OH224562   6.761   6.642   2.789
 8202TIP3    H124563   6.706   6.620   2.715
 8202TIP3    H224564   6.735   6.581   2.858
 8203TIP3   OH224565   2.618   1.154   3.199
 8203TIP3    H124566   2.659   1.171   3.284
 8203TIP3    H224567   2.692   1.134   3.140
 8204TIP3   OH224568   7.063   4.939   4.247
 8204TIP3    H124569   7.086   4.846   4.251
 8204TIP3    H224570   7.145   4.984   4.267
 8205TIP3   OH224571   3.782   4.170   6.215
 8205TIP3    H124572   3.776   4.158   6.309
 8205TIP3    H224573   3.694   4.151   6.183
 8206TIP3   OH224574   4.993   6.059   2.898
 8206TIP3    H124575   5.068   6.041   2.842
 8206TIP3    H224576   4.929   6.102   2.841
 8207TIP3   OH224577   0.123   5.719   4.633
 8207TIP3    H124578   0.151   5.701   4.543
 8207TIP3    H224579   0.200   5.757   4.675
 8208TIP3   OH224580   4.752   5.029   3.881
 8208TIP3    H124581   4.757   5.013   3.787
 8208TIP3    H224582   4.781   5.119   3.891
 8209TIP3   OH224583   1.055   4.268   4.325
 8209TIP3    H124584   0.990   4.240   4.390
 8209TIP3    H224585   1.007   4.324   4.265
 8210TIP3   OH224586   3.014   1.961   6.054
 8210TIP3    H124587   3.055   2.046   6.067
 8210TIP3    H224588   3.065   1.921   5.983
 8211TIP3   OH224589   2.353   1.217   0.058
 8211TIP3    H124590   2.418   1.169   0.006
 8211TIP3    H224591   2.371   1.192   0.148
 8212TIP3   OH224592   2.405   5.212   0.569
 8212TIP3    H124593   2.348   5.171   0.504
 8212TIP3    H224594   2.418   5.302   0.537
 8213TIP3   OH224595   5.105   1.070   5.389
 8213TIP3    H124596   5.128   1.026   5.307
 8213TIP3    H224597   5.176   1.132   5.405
 8214TIP3   OH224598   6.308   5.393   2.427
 8214TIP3    H124599   6.246   5.465   2.435
 8214TIP3    H224600   6.259   5.316   2.456
 8215TIP3   OH224601   1.143   5.412   1.885
 8215TIP3    H124602   1.074   5.472   1.915
 8215TIP3    H224603   1.110   5.325   1.908
 8216TIP3   OH224604   4.551   7.567   0.657
 8216TIP3    H124605   4.530   7.642   0.602
 8216TIP3    H224606   4.636   7.537   0.626
 8217TIP3   OH224607   0.204   3.501   4.590
 8217TIP3    H124608   0.152   3.509   4.510
 8217TIP3    H224609   0.196   3.409   4.615
 8218TIP3   OH224610   7.598   5.030   3.134
 8218TIP3    H124611   7.585   5.122   3.157
 8218TIP3    H224612   7.523   5.008   3.078
 8219TIP3   OH224613   3.286   1.272   0.191
 8219TIP3    H124614   3.275   1.179   0.168
 8219TIP3    H224615   3.318   1.269   0.281
 8220TIP3   OH224616   2.929   5.454   2.223
 8220TIP3    H124617   2.948   5.434   2.315
 8220TIP3    H224618   3.009   5.493   2.189
 8221TIP3   OH224619   3.476   4.816   3.655
 8221TIP3    H124620   3.547   4.871   3.622
 8221TIP3    H224621   3.493   4.808   3.749
 8222TIP3   OH224622   5.020   5.564   5.825
 8222TIP3    H124623   5.111   5.591   5.810
 8222TIP3    H224624   4.972   5.599   5.749
 8223TIP3   OH224625   2.994   0.343   5.135
 8223TIP3    H124626   3.078   0.388   5.140
 8223TIP3    H224627   3.008   0.273   5.071
 8224TIP3   OH224628   0.991   7.047   0.875
 8224TIP3    H124629   0.927   6.979   0.851
 8224TIP3    H224630   1.003   7.036   0.969
 8225TIP3   OH224631   2.602   5.458   4.167
 8225TIP3    H124632   2.526   5.457   4.225
 8225TIP3    H224633   2.570   5.421   4.085
 8226TIP3   OH224634   6.874   6.766   4.837
 8226TIP3    H124635   6.962   6.780   4.803
 8226TIP3    H224636   6.830   6.850   4.827
 8227TIP3   OH224637   7.391   4.735   4.055
 8227TIP3    H124638   7.297   4.758   4.051
 8227TIP3    H224639   7.401   4.663   3.994
 8228TIP3   OH224640   0.552   6.960   3.787
 8228TIP3    H124641   0.493   6.885   3.777
 8228TIP3    H224642   0.591   6.947   3.874
 8229TIP3   OH224643   1.587   0.192   1.922
 8229TIP3    H124644   1.619   0.278   1.894
 8229TIP3    H224645   1.521   0.169   1.858
 8230TIP3   OH224646   6.696   4.347   0.832
 8230TIP3    H124647   6.617   4.401   0.824
 8230TIP3    H224648   6.714   4.344   0.926
 8231TIP3   OH224649   7.924   5.835   2.118
 8231TIP3    H124650   7.849   5.834   2.177
 8231TIP3    H224651   7.890   5.872   2.036
 8232TIP3   OH224652   4.543   0.371   1.634
 8232TIP3    H124653   4.525   0.287   1.590
 8232TIP3    H224654   4.570   0.430   1.563
 8233TIP3   OH224655   3.716   2.011   1.510
 8233TIP3    H124656   3.691   2.086   1.564
 8233TIP3    H224657   3.728   2.048   1.422
 8234TIP3   OH224658   2.515   6.403   0.436
 8234TIP3    H124659   2.501   6.402   0.341
 8234TIP3    H224660   2.446   6.347   0.471
 8235TIP3   OH224661   6.427   1.606   5.539
 8235TIP3    H124662   6.522   1.607   5.553
 8235TIP3    H224663   6.393   1.672   5.600
 8236TIP3   OH224664   7.900   0.941   5.632
 8236TIP3    H124665   7.904   1.011   5.566
 8236TIP3    H224666   7.829   0.884   5.603
 8237TIP3   OH224667   6.893   3.213   1.095
 8237TIP3    H124668   6.910   3.135   1.042
 8237TIP3    H224669   6.810   3.194   1.139
 8238TIP3   OH224670   6.374   6.790   2.345
 8238TIP3    H124671   6.349   6.754   2.260
 8238TIP3    H224672   6.379   6.885   2.330
 8239TIP3   OH224673   2.369   6.955   5.111
 8239TIP3    H124674   2.343   6.915   5.028
 8239TIP3    H224675   2.371   6.883   5.173
 8240TIP3   OH224676   6.120   5.494   1.579
 8240TIP3    H124677   6.181   5.567   1.591
 8240TIP3    H224678   6.169   5.417   1.608
 8241TIP3   OH224679   7.441   4.256   0.770
 8241TIP3    H124680   7.458   4.179   0.716
 8241TIP3    H224681   7.387   4.313   0.714
 8242TIP3   OH224682   1.820   4.505   1.795
 8242TIP3    H124683   1.733   4.475   1.819
 8242TIP3    H224684   1.821   4.503   1.699
 8243TIP3   OH224685   5.387   6.321   2.850
 8243TIP3    H124686   5.330   6.324   2.774
 8243TIP3    H224687   5.414   6.412   2.864
 8244TIP3   OH224688   0.361   7.106   2.815
 8244TIP3    H124689   0.417   7.084   2.890
 8244TIP3    H224690   0.295   7.165   2.851
 8245TIP3   OH224691   1.138   0.811   4.002
 8245TIP3    H124692   1.089   0.731   3.985
 8245TIP3    H224693   1.229   0.783   4.006
 8246TIP3   OH224694   3.406   6.691   5.786
 8246TIP3    H124695   3.435   6.703   5.696
 8246TIP3    H224696   3.484   6.657   5.831
 8247TIP3   OH224697   3.237   3.825   1.575
 8247TIP3    H124698   3.158   3.781   1.544
 8247TIP3    H224699   3.218   3.918   1.565
 8248TIP3   OH224700   4.779   7.057   3.656
 8248TIP3    H124701   4.838   7.054   3.731
 8248TIP3    H224702   4.832   7.024   3.583
 8249TIP3   OH224703   4.631   7.183   5.807
 8249TIP3    H124704   4.595   7.174   5.895
 8249TIP3    H224705   4.622   7.276   5.786
 8250TIP3   OH224706   1.795   0.273   3.006
 8250TIP3    H124707   1.824   0.309   3.090
 8250TIP3    H224708   1.768   0.184   3.026
 8251TIP3   OH224709   5.023   2.298   4.931
 8251TIP3    H124710   4.964   2.273   5.003
 8251TIP3    H224711   5.020   2.394   4.931
 8252TIP3   OH224712   0.578   0.535   5.886
 8252TIP3    H124713   0.582   0.566   5.796
 8252TIP3    H224714   0.636   0.459   5.888
 8253TIP3   OH224715   2.469   2.238   6.203
 8253TIP3    H124716   2.531   2.309   6.221
 8253TIP3    H224717   2.383   2.275   6.224
 8254TIP3   OH224718   5.254   0.380  -0.014
 8254TIP3    H124719   5.316   0.438   0.030
 8254TIP3    H224720   5.178   0.376   0.044
 8255TIP3   OH224721   6.569   1.670   2.992
 8255TIP3    H124722   6.654   1.670   2.947
 8255TIP3    H224723   6.572   1.592   3.047
 8256TIP3   OH224724   8.115   4.367   5.567
 8256TIP3    H124725   8.033   4.414   5.584
 8256TIP3    H224726   8.095   4.276   5.590
 8257TIP3   OH224727   3.481   5.161   1.457
 8257TIP3    H124728   3.576   5.163   1.442
 8257TIP3    H224729   3.448   5.240   1.416
 8258TIP3   OH224730   2.178   1.359   4.538
 8258TIP3    H124731   2.267   1.355   4.501
 8258TIP3    H224732   2.191   1.346   4.632
 8259TIP3   OH224733   3.336   3.066   5.252
 8259TIP3    H124734   3.348   3.149   5.299
 8259TIP3    H224735   3.388   3.003   5.301
 8260TIP3   OH224736   4.932   5.981   0.206
 8260TIP3    H124737   5.025   5.997   0.218
 8260TIP3    H224738   4.921   5.973   0.111
 8261TIP3   OH224739   2.448   4.308   3.355
 8261TIP3    H124740   2.387   4.382   3.364
 8261TIP3    H224741   2.490   4.321   3.270
 8262TIP3   OH224742   0.397   3.017   3.367
 8262TIP3    H124743   0.441   3.047   3.287
 8262TIP3    H224744   0.430   3.074   3.436
 8263TIP3   OH224745   6.229   0.857   4.536
 8263TIP3    H124746   6.318   0.882   4.561
 8263TIP3    H224747   6.184   0.940   4.520
 8264TIP3   OH224748   8.048   0.306   3.782
 8264TIP3    H124749   8.118   0.285   3.843
 8264TIP3    H224750   8.054   0.400   3.769
 8265TIP3   OH224751   0.782   7.557   2.992
 8265TIP3    H124752   0.874   7.539   3.013
 8265TIP3    H224753   0.764   7.642   3.033
 8266TIP3   OH224754   7.332   2.071   5.246
 8266TIP3    H124755   7.315   2.141   5.184
 8266TIP3    H224756   7.340   1.992   5.192
 8267TIP3   OH224757   5.574   1.889   1.008
 8267TIP3    H124758   5.577   1.794   0.996
 8267TIP3    H224759   5.653   1.921   0.966
 8268TIP3   OH224760   6.382  -0.013   2.529
 8268TIP3    H124761   6.291   0.003   2.552
 8268TIP3    H224762   6.418   0.075   2.513
 8269TIP3   OH224763   7.762   4.679   4.779
 8269TIP3    H124764   7.688   4.679   4.718
 8269TIP3    H224765   7.735   4.622   4.851
 8270TIP3   OH224766   7.086   5.831   4.350
 8270TIP3    H124767   7.049   5.914   4.319
 8270TIP3    H224768   7.103   5.781   4.270
 8271TIP3   OH224769   1.583   6.315   1.184
 8271TIP3    H124770   1.620   6.380   1.244
 8271TIP3    H224771   1.523   6.264   1.239
 8272TIP3   OH224772   1.443   4.865   6.573
 8272TIP3    H124773   1.395   4.783   6.560
 8272TIP3    H224774   1.483   4.856   6.659
 8273TIP3   OH224775   6.108   6.703   5.464
 8273TIP3    H124776   6.178   6.650   5.425
 8273TIP3    H224777   6.154   6.770   5.514
 8274TIP3   OH224778   7.243   7.169   4.394
 8274TIP3    H124779   7.299   7.227   4.447
 8274TIP3    H224780   7.287   7.084   4.397
 8275TIP3   OH224781   1.015   2.627   5.337
 8275TIP3    H124782   1.018   2.541   5.380
 8275TIP3    H224783   0.952   2.616   5.266
 8276TIP3   OH224784   5.529   3.031   2.069
 8276TIP3    H124785   5.507   3.029   1.976
 8276TIP3    H224786   5.489   2.952   2.105
 8277TIP3   OH224787   4.016   2.899   4.392
 8277TIP3    H124788   4.059   2.834   4.447
 8277TIP3    H224789   4.069   2.902   4.312
 8278TIP3   OH224790   1.753   5.596   2.743
 8278TIP3    H124791   1.697   5.644   2.804
 8278TIP3    H224792   1.827   5.567   2.796
 8279TIP3   OH224793   2.987   7.213   1.968
 8279TIP3    H124794   2.897   7.212   1.999
 8279TIP3    H224795   2.982   7.247   1.879
 8280TIP3   OH224796   2.135   4.718   3.561
 8280TIP3    H124797   2.173   4.791   3.511
 8280TIP3    H224798   2.046   4.709   3.527
 8281TIP3   OH224799   1.283   0.250   3.381
 8281TIP3    H124800   1.299   0.339   3.413
 8281TIP3    H224801   1.370   0.210   3.378
 8282TIP3   OH224802   4.225   4.221   5.523
 8282TIP3    H124803   4.199   4.247   5.611
 8282TIP3    H224804   4.232   4.126   5.526
 8283TIP3   OH224805   0.327   1.365   3.162
 8283TIP3    H124806   0.422   1.368   3.166
 8283TIP3    H224807   0.302   1.308   3.235
 8284TIP3   OH224808   0.546   3.769   0.804
 8284TIP3    H124809   0.546   3.681   0.767
 8284TIP3    H224810   0.513   3.758   0.893
 8285TIP3   OH224811   6.903   2.357   0.654
 8285TIP3    H124812   6.829   2.360   0.594
 8285TIP3    H224813   6.926   2.449   0.668
 8286TIP3   OH224814   0.423   2.009   4.418
 8286TIP3    H124815   0.469   1.927   4.431
 8286TIP3    H224816   0.489   2.069   4.384
 8287TIP3   OH224817   4.859   4.611   2.083
 8287TIP3    H124818   4.823   4.532   2.042
 8287TIP3    H224819   4.886   4.582   2.170
 8288TIP3   OH224820   7.501   6.158   4.518
 8288TIP3    H124821   7.419   6.122   4.486
 8288TIP3    H224822   7.567   6.092   4.496
 8289TIP3   OH224823   1.027   2.142   1.958
 8289TIP3    H124824   1.059   2.231   1.940
 8289TIP3    H224825   0.995   2.145   2.048
 8290TIP3   OH224826   1.923   4.937   4.116
 8290TIP3    H124827   1.967   5.011   4.073
 8290TIP3    H224828   1.921   4.961   4.208
 8291TIP3   OH224829   5.358   5.775   6.405
 8291TIP3    H124830   5.344   5.685   6.375
 8291TIP3    H224831   5.438   5.803   6.359
 8292TIP3   OH224832   8.085   3.622   2.732
 8292TIP3    H124833   8.055   3.587   2.648
 8292TIP3    H224834   8.177   3.646   2.717
 8293TIP3   OH224835   0.351   7.305   4.654
 8293TIP3    H124836   0.437   7.288   4.694
 8293TIP3    H224837   0.288   7.270   4.717
 8294TIP3   OH224838   6.907   7.257   5.701
 8294TIP3    H124839   6.826   7.206   5.699
 8294TIP3    H224840   6.946   7.242   5.614
 8295TIP3   OH224841   1.161   2.867   1.733
 8295TIP3    H124842   1.243   2.826   1.760
 8295TIP3    H224843   1.177   2.897   1.643
 8296TIP3   OH224844   2.599   0.273   3.232
 8296TIP3    H124845   2.559   0.311   3.310
 8296TIP3    H224846   2.612   0.348   3.173
 8297TIP3   OH224847   6.055   5.122   2.912
 8297TIP3    H124848   6.052   5.124   3.007
 8297TIP3    H224849   5.963   5.130   2.885
 8298TIP3   OH224850   4.532   0.396   5.620
 8298TIP3    H124851   4.519   0.485   5.653
 8298TIP3    H224852   4.459   0.346   5.656
 8299TIP3   OH224853   6.468   3.955   0.417
 8299TIP3    H124854   6.485   4.025   0.354
 8299TIP3    H224855   6.551   3.942   0.463
 8300TIP3   OH224856   3.788   3.766   0.247
 8300TIP3    H124857   3.707   3.734   0.209
 8300TIP3    H224858   3.764   3.792   0.336
 8301TIP3   OH224859   0.269   7.428   0.257
 8301TIP3    H124860   0.282   7.490   0.186
 8301TIP3    H224861   0.176   7.407   0.254
 8302TIP3   OH224862   4.726   4.778   4.358
 8302TIP3    H124863   4.780   4.706   4.326
 8302TIP3    H224864   4.773   4.857   4.334
 8303TIP3   OH224865   4.270   0.304   2.860
 8303TIP3    H124866   4.326   0.271   2.930
 8303TIP3    H224867   4.196   0.243   2.858
 8304TIP3   OH224868   5.139   6.827   1.045
 8304TIP3    H124869   5.200   6.864   1.109
 8304TIP3    H224870   5.169   6.860   0.960
 8305TIP3   OH224871   4.318   0.021   6.202
 8305TIP3    H124872   4.391   0.075   6.172
 8305TIP3    H224873   4.241   0.059   6.158
 8306TIP3   OH224874   7.356   5.542   2.895
 8306TIP3    H124875   7.367   5.578   2.807
 8306TIP3    H224876   7.419   5.589   2.949
 8307TIP3   OH224877   6.195   0.159   4.980
 8307TIP3    H124878   6.280   0.140   4.940
 8307TIP3    H224879   6.213   0.166   5.074
 8308TIP3   OH224880   6.280   0.416   6.072
 8308TIP3    H124881   6.350   0.471   6.109
 8308TIP3    H224882   6.199   0.453   6.107
 8309TIP3   OH224883   0.336   3.959   6.447
 8309TIP3    H124884   0.327   3.864   6.453
 8309TIP3    H224885   0.254   3.993   6.483
 8310TIP3   OH224886   4.340   5.262   1.454
 8310TIP3    H124887   4.371   5.210   1.379
 8310TIP3    H224888   4.400   5.240   1.525
 8311TIP3   OH224889   0.511   7.133   3.562
 8311TIP3    H124890   0.572   7.083   3.509
 8311TIP3    H224891   0.480   7.070   3.628
 8312TIP3   OH224892   2.329   4.747   3.944
 8312TIP3    H124893   2.342   4.838   3.919
 8312TIP3    H224894   2.271   4.712   3.876
 8313TIP3   OH224895   3.367   1.268   4.953
 8313TIP3    H124896   3.300   1.317   5.000
 8313TIP3    H224897   3.444   1.271   5.010
 8314TIP3   OH224898   0.926   6.532   4.198
 8314TIP3    H124899   0.955   6.562   4.112
 8314TIP3    H224900   0.865   6.460   4.179
 8315TIP3   OH224901   6.312   6.177   0.366
 8315TIP3    H124902   6.276   6.136   0.287
 8315TIP3    H224903   6.236   6.194   0.421
 8316TIP3   OH224904   0.042   1.858   3.792
 8316TIP3    H124905  -0.047   1.823   3.787
 8316TIP3    H224906   0.053   1.907   3.710
 8317TIP3   OH224907   7.607   5.103   2.186
 8317TIP3    H124908   7.546   5.029   2.186
 8317TIP3    H224909   7.551   5.180   2.180
 8318TIP3   OH224910   5.558   7.302   5.026
 8318TIP3    H124911   5.573   7.251   4.946
 8318TIP3    H224912   5.567   7.393   4.998
 8319TIP3   OH224913   2.850   0.221   5.333
 8319TIP3    H124914   2.909   0.255   5.266
 8319TIP3    H224915   2.836   0.294   5.393
 8320TIP3   OH224916   2.156   4.706   0.655
 8320TIP3    H124917   2.211   4.709   0.577
 8320TIP3    H224918   2.185   4.779   0.709
 8321TIP3   OH224919   7.530   7.024   3.308
 8321TIP3    H124920   7.511   7.109   3.269
 8321TIP3    H224921   7.624   7.011   3.294
 8322TIP3   OH224922   1.327   4.819   1.747
 8322TIP3    H124923   1.314   4.830   1.652
 8322TIP3    H224924   1.276   4.742   1.769
 8323TIP3   OH224925   3.014   2.423   2.110
 8323TIP3    H124926   2.942   2.472   2.070
 8323TIP3    H224927   2.995   2.331   2.086
 8324TIP3   OH224928   5.329   0.960   5.781
 8324TIP3    H124929   5.422   0.981   5.779
 8324TIP3    H224930   5.308   0.954   5.874
 8325TIP3   OH224931   0.841   7.558   6.562
 8325TIP3    H124932   0.889   7.564   6.645
 8325TIP3    H224933   0.766   7.503   6.581
 8326TIP3   OH224934   6.080   0.195   0.352
 8326TIP3    H124935   6.127   0.225   0.430
 8326TIP3    H224936   6.073   0.100   0.363
 8327TIP3   OH224937   7.332   7.522   0.397
 8327TIP3    H124938   7.388   7.444   0.398
 8327TIP3    H224939   7.353   7.567   0.478
 8328TIP3   OH224940   7.496   1.819   5.839
 8328TIP3    H124941   7.495   1.892   5.900
 8328TIP3    H224942   7.409   1.780   5.847
 8329TIP3   OH224943   2.972   4.610   4.307
 8329TIP3    H124944   2.909   4.538   4.308
 8329TIP3    H224945   2.935   4.674   4.369
 8330TIP3   OH224946   5.316   6.251   3.124
 8330TIP3    H124947   5.290   6.159   3.123
 8330TIP3    H224948   5.352   6.266   3.036
 8331TIP3   OH224949   6.528   5.562   2.435
 8331TIP3    H124950   6.556   5.586   2.346
 8331TIP3    H224951   6.454   5.502   2.421
 8332TIP3   OH224952   8.332   0.761   4.704
 8332TIP3    H124953   8.395   0.783   4.635
 8332TIP3    H224954   8.247   0.765   4.660
 8333TIP3   OH224955   0.687   4.421   6.555
 8333TIP3    H124956   0.659   4.508   6.583
 8333TIP3    H224957   0.622   4.395   6.490
 8334TIP3   OH224958   7.968   1.242   3.845
 8334TIP3    H124959   7.972   1.275   3.935
 8334TIP3    H224960   8.040   1.286   3.800
 8335TIP3   OH224961  -0.052   4.192   0.517
 8335TIP3    H124962  -0.014   4.178   0.431
 8335TIP3    H224963  -0.037   4.285   0.535
 8336TIP3   OH224964   5.982   0.270   3.183
 8336TIP3    H124965   5.942   0.357   3.175
 8336TIP3    H224966   6.034   0.261   3.103
 8337TIP3   OH224967   7.094   7.412   1.666
 8337TIP3    H124968   7.017   7.360   1.688
 8337TIP3    H224969   7.063   7.502   1.667
 8338TIP3   OH224970   0.743   3.380   5.579
 8338TIP3    H124971   0.752   3.385   5.484
 8338TIP3    H224972   0.763   3.468   5.609
 8339TIP3   OH224973   7.248   1.260   1.402
 8339TIP3    H124974   7.234   1.284   1.310
 8339TIP3    H224975   7.181   1.194   1.420
 8340TIP3   OH224976   2.961   6.188   0.229
 8340TIP3    H124977   2.989   6.189   0.138
 8340TIP3    H224978   2.910   6.268   0.239
 8341TIP3   OH224979   1.572   2.466   3.406
 8341TIP3    H124980   1.569   2.391   3.347
 8341TIP3    H224981   1.641   2.522   3.370
 8342TIP3   OH224982   5.165   7.309   5.551
 8342TIP3    H124983   5.096   7.371   5.527
 8342TIP3    H224984   5.167   7.247   5.478
 8343TIP3   OH224985   0.732   0.044   0.820
 8343TIP3    H124986   0.715   0.106   0.749
 8343TIP3    H224987   0.722   0.096   0.900
 8344TIP3   OH224988   1.491   4.711   1.156
 8344TIP3    H124989   1.490   4.622   1.193
 8344TIP3    H224990   1.553   4.759   1.211
 8345TIP3   OH224991   7.600   7.352   6.653
 8345TIP3    H124992   7.551   7.279   6.691
 8345TIP3    H224993   7.617   7.325   6.563
 8346TIP3   OH224994   2.865   0.444   2.955
 8346TIP3    H124995   2.848   0.537   2.945
 8346TIP3    H224996   2.787   0.409   2.997
 8347TIP3   OH224997   0.105   6.472   0.051
 8347TIP3    H124998   0.024   6.420   0.057
 8347TIP3    H224999   0.121   6.503   0.140
 8348TIP3   OH225000   3.547   2.156   5.755
 8348TIP3    H125001   3.525   2.193   5.841
 8348TIP3    H225002   3.613   2.217   5.720
 8349TIP3   OH225003   5.310   4.644   2.588
 8349TIP3    H125004   5.248   4.670   2.656
 8349TIP3    H225005   5.387   4.615   2.636
 8350TIP3   OH225006   6.060   6.692   1.462
 8350TIP3    H125007   6.130   6.639   1.424
 8350TIP3    H225008   5.984   6.675   1.407
 8351TIP3   OH225009   3.740   1.221   5.098
 8351TIP3    H125010   3.719   1.312   5.075
 8351TIP3    H225011   3.798   1.192   5.027
 8352TIP3   OH225012   7.192   7.792   0.021
 8352TIP3    H125013   7.193   7.827   0.110
 8352TIP3    H225014   7.244   7.711   0.027
 8353TIP3   OH225015   3.624   3.640   2.636
 8353TIP3    H125016   3.552   3.577   2.646
 8353TIP3    H225017   3.594   3.699   2.567
 8354TIP3   OH225018   1.298   2.698   4.430
 8354TIP3    H125019   1.305   2.605   4.454
 8354TIP3    H225020   1.213   2.725   4.462
 8355TIP3   OH225021   0.705   0.122   5.332
 8355TIP3    H125022   0.727   0.178   5.258
 8355TIP3    H225023   0.769   0.051   5.327
 8356TIP3   OH225024   4.052   5.303   3.834
 8356TIP3    H125025   4.105   5.355   3.774
 8356TIP3    H225026   3.961   5.320   3.808
 8357TIP3   OH225027   8.299   6.620   4.328
 8357TIP3    H125028   8.232   6.668   4.279
 8357TIP3    H225029   8.349   6.688   4.373
 8358TIP3   OH225030   7.382   5.228   0.311
 8358TIP3    H125031   7.338   5.147   0.286
 8358TIP3    H225032   7.435   5.204   0.386
 8359TIP3   OH225033   3.841   6.962   2.038
 8359TIP3    H125034   3.906   6.975   2.106
 8359TIP3    H225035   3.758   6.955   2.085
 8360TIP3   OH225036   5.767   4.403   0.631
 8360TIP3    H125037   5.747   4.475   0.691
 8360TIP3    H225038   5.760   4.441   0.544
 8361TIP3   OH225039   6.145   2.856   3.987
 8361TIP3    H125040   6.083   2.811   3.930
 8361TIP3    H225041   6.231   2.837   3.949
 8362TIP3   OH225042   0.763   7.376   0.952
 8362TIP3    H125043   0.710   7.437   1.003
 8362TIP3    H225044   0.742   7.290   0.987
 8363TIP3   OH225045   5.627   7.687   6.160
 8363TIP3    H125046   5.557   7.621   6.159
 8363TIP3    H225047   5.593   7.758   6.105
 8364TIP3   OH225048   6.885   6.963   4.059
 8364TIP3    H125049   6.823   6.922   4.120
 8364TIP3    H225050   6.948   7.007   4.116
 8365TIP3   OH225051   0.600   4.811   4.920
 8365TIP3    H125052   0.667   4.748   4.946
 8365TIP3    H225053   0.649   4.879   4.872
 8366TIP3   OH225054   5.660   1.985   1.309
 8366TIP3    H125055   5.703   1.971   1.225
 8366TIP3    H225056   5.644   2.079   1.312
 8367TIP3   OH225057   8.058   4.781   5.925
 8367TIP3    H125058   8.003   4.779   6.002
 8367TIP3    H225059   8.140   4.741   5.953
 8368TIP3   OH225060   2.950   7.137   6.413
 8368TIP3    H125061   2.941   7.195   6.337
 8368TIP3    H225062   2.988   7.057   6.377
 8369TIP3   OH225063   1.213   1.934   3.176
 8369TIP3    H125064   1.141   1.908   3.118
 8369TIP3    H225065   1.231   2.025   3.155
 8370TIP3   OH225066   2.318   1.804   2.627
 8370TIP3    H125067   2.389   1.810   2.691
 8370TIP3    H225068   2.363   1.803   2.542
 8371TIP3   OH225069   4.324   3.809   5.812
 8371TIP3    H125070   4.300   3.872   5.880
 8371TIP3    H225071   4.243   3.763   5.792
 8372TIP3   OH225072   3.070   4.951   5.883
 8372TIP3    H125073   3.071   4.902   5.965
 8372TIP3    H225074   3.005   4.906   5.829
 8373TIP3   OH225075   7.850   2.840   5.915
 8373TIP3    H125076   7.937   2.811   5.941
 8373TIP3    H225077   7.849   2.832   5.820
 8374TIP3   OH225078   4.017   0.371   1.760
 8374TIP3    H125079   4.054   0.403   1.677
 8374TIP3    H225080   3.923   0.388   1.752
 8375TIP3   OH225081   6.500   4.523   0.863
 8375TIP3    H125082   6.493   4.593   0.928
 8375TIP3    H225083   6.494   4.567   0.779
 8376TIP3   OH225084   1.426   2.903   1.562
 8376TIP3    H125085   1.480   2.905   1.641
 8376TIP3    H225086   1.412   2.810   1.545
 8377TIP3   OH225087   1.655   2.060   1.686
 8377TIP3    H125088   1.703   2.125   1.635
 8377TIP3    H225089   1.696   2.063   1.773
 8378TIP3   OH225090   8.141   5.023   2.164
 8378TIP3    H125091   8.215   5.058   2.214
 8378TIP3    H225092   8.065   5.070   2.198
 8379TIP3   OH225093   6.289   2.994   5.177
 8379TIP3    H125094   6.321   2.988   5.267
 8379TIP3    H225095   6.195   2.974   5.184
 8380TIP3   OH225096   4.871   4.045   6.252
 8380TIP3    H125097   4.805   4.035   6.184
 8380TIP3    H225098   4.936   4.105   6.214
 8381TIP3   OH225099   3.912   4.942   5.641
 8381TIP3    H125100   3.913   5.037   5.641
 8381TIP3    H225101   3.960   4.917   5.719
 8382TIP3   OH225102   2.805   2.697   6.630
 8382TIP3    H125103   2.881   2.687   6.572
 8382TIP3    H225104   2.839   2.675   6.717
 8383TIP3   OH225105   3.263   0.402   1.575
 8383TIP3    H125106   3.197   0.409   1.644
 8383TIP3    H225107   3.344   0.429   1.617
 8384TIP3   OH225108   6.976   5.862   3.034
 8384TIP3    H125109   7.003   5.927   2.969
 8384TIP3    H225110   6.982   5.779   2.987
 8385TIP3   OH225111   8.304   0.089   4.167
 8385TIP3    H125112   8.358   0.132   4.233
 8385TIP3    H225113   8.253   0.024   4.215
 8386TIP3   OH225114   4.345   0.001   4.199
 8386TIP3    H125115   4.333  -0.043   4.283
 8386TIP3    H225116   4.365   0.092   4.221
 8387TIP3   OH225117   4.186   2.383   4.818
 8387TIP3    H125118   4.261   2.385   4.757
 8387TIP3    H225119   4.210   2.317   4.883
 8388TIP3   OH225120   0.808   7.419   4.565
 8388TIP3    H125121   0.747   7.424   4.639
 8388TIP3    H225122   0.822   7.510   4.539
 8389TIP3   OH225123   5.352   5.049   2.466
 8389TIP3    H125124   5.383   5.106   2.395
 8389TIP3    H225125   5.378   4.961   2.439
 8390TIP3   OH225126   5.811   4.569   0.855
 8390TIP3    H125127   5.775   4.509   0.920
 8390TIP3    H225128   5.824   4.651   0.903
 8391TIP3   OH225129   8.121   3.935   2.420
 8391TIP3    H125130   8.056   3.972   2.479
 8391TIP3    H225131   8.182   4.008   2.403
 8392TIP3   OH225132   6.374   7.104   6.318
 8392TIP3    H125133   6.456   7.089   6.270
 8392TIP3    H225134   6.313   7.136   6.252
 8393TIP3   OH225135   2.328   1.307   6.522
 8393TIP3    H125136   2.420   1.285   6.537
 8393TIP3    H225137   2.317   1.392   6.563
 8394TIP3   OH225138   3.461   7.613   5.436
 8394TIP3    H125139   3.447   7.694   5.486
 8394TIP3    H225140   3.472   7.545   5.502
 8395TIP3   OH225141   6.358   2.809   2.962
 8395TIP3    H125142   6.418   2.738   2.988
 8395TIP3    H225143   6.412   2.887   2.961
 8396TIP3   OH225144   3.892   6.250   2.047
 8396TIP3    H125145   3.815   6.264   2.102
 8396TIP3    H225146   3.957   6.212   2.107
 8397TIP3   OH225147   4.653   2.996   6.472
 8397TIP3    H125148   4.637   3.057   6.544
 8397TIP3    H225149   4.663   3.052   6.395
 8398TIP3   OH225150   4.389   7.259   3.102
 8398TIP3    H125151   4.342   7.233   3.182
 8398TIP3    H225152   4.329   7.319   3.058
 8399TIP3   OH225153   6.830   5.694   5.324
 8399TIP3    H125154   6.766   5.668   5.258
 8399TIP3    H225155   6.825   5.789   5.326
 8400TIP3   OH225156   6.252   6.773   4.462
 8400TIP3    H125157   6.192   6.840   4.496
 8400TIP3    H225158   6.222   6.692   4.502
 8401TIP3   OH225159   6.984   5.065   3.996
 8401TIP3    H125160   6.910   5.125   4.000
 8401TIP3    H225161   6.977   5.013   4.076
 8402TIP3   OH225162   3.134   2.813   3.216
 8402TIP3    H125163   3.104   2.891   3.168
 8402TIP3    H225164   3.135   2.744   3.150
 8403TIP3   OH225165   4.497   1.707   1.763
 8403TIP3    H125166   4.579   1.666   1.789
 8403TIP3    H225167   4.429   1.655   1.806
 8404TIP3   OH225168   4.265   0.860   5.989
 8404TIP3    H125169   4.327   0.928   5.962
 8404TIP3    H225170   4.319   0.783   6.005
 8405TIP3   OH225171   5.040   2.340   5.811
 8405TIP3    H125172   5.101   2.319   5.881
 8405TIP3    H225173   5.072   2.292   5.734
 8406TIP3   OH225174   0.638   6.790   3.188
 8406TIP3    H125175   0.549   6.826   3.192
 8406TIP3    H225176   0.650   6.766   3.096
 8407TIP3   OH225177   8.243   5.987   4.961
 8407TIP3    H125178   8.246   6.059   5.023
 8407TIP3    H225179   8.317   5.931   4.985
 8408TIP3   OH225180   7.540   2.192   4.655
 8408TIP3    H125181   7.566   2.265   4.599
 8408TIP3    H225182   7.473   2.146   4.604
 8409TIP3   OH225183   4.349   2.561   1.760
 8409TIP3    H125184   4.441   2.537   1.769
 8409TIP3    H225185   4.308   2.484   1.720
 8410TIP3   OH225186   0.205   6.405   0.866
 8410TIP3    H125187   0.200   6.500   0.877
 8410TIP3    H225188   0.126   6.372   0.908
 8411TIP3   OH225189   0.622   4.301   3.826
 8411TIP3    H125190   0.607   4.259   3.911
 8411TIP3    H225191   0.572   4.382   3.830
 8412TIP3   OH225192   8.048   3.641   0.705
 8412TIP3    H125193   8.007   3.555   0.704
 8412TIP3    H225194   8.018   3.684   0.625
 8413TIP3   OH225195   7.857   5.485   1.084
 8413TIP3    H125196   7.849   5.452   0.995
 8413TIP3    H225197   7.821   5.574   1.081
 8414TIP3   OH225198   6.371   0.019   6.182
 8414TIP3    H125199   6.450   0.020   6.128
 8414TIP3    H225200   6.397  -0.028   6.261
 8415TIP3   OH225201   4.018   4.607   4.677
 8415TIP3    H125202   4.009   4.691   4.722
 8415TIP3    H225203   3.997   4.627   4.586
 8416TIP3   OH225204   8.216   5.423   2.829
 8416TIP3    H125205   8.225   5.379   2.744
 8416TIP3    H225206   8.219   5.353   2.894
 8417TIP3   OH225207   5.959   4.852   2.865
 8417TIP3    H125208   5.997   4.849   2.954
 8417TIP3    H225209   6.035   4.865   2.808
 8418TIP3   OH225210   7.690   3.863   6.648
 8418TIP3    H125211   7.758   3.901   6.704
 8418TIP3    H225212   7.697   3.912   6.566
 8419TIP3   OH225213   2.808   4.858   0.465
 8419TIP3    H125214   2.738   4.915   0.434
 8419TIP3    H225215   2.809   4.872   0.560
 8420TIP3   OH225216   1.522   1.051   1.072
 8420TIP3    H125217   1.582   0.996   1.122
 8420TIP3    H225218   1.492   1.117   1.134
 8421TIP3   OH225219   3.424   0.022   2.773
 8421TIP3    H125220   3.512   0.060   2.769
 8421TIP3    H225221   3.365   0.098   2.769
 8422TIP3   OH225222   7.217   4.264   3.884
 8422TIP3    H125223   7.163   4.186   3.868
 8422TIP3    H225224   7.236   4.298   3.797
 8423TIP3   OH225225   5.722   5.672   0.781
 8423TIP3    H125226   5.659   5.600   0.773
 8423TIP3    H225227   5.713   5.720   0.699
 8424TIP3   OH225228   3.600   0.936   4.531
 8424TIP3    H125229   3.573   0.967   4.444
 8424TIP3    H225230   3.562   0.848   4.538
 8425TIP3   OH225231   1.768   5.884   0.641
 8425TIP3    H125232   1.724   5.880   0.726
 8425TIP3    H225233   1.745   5.802   0.598
 8426TIP3   OH225234   7.513   5.207   4.487
 8426TIP3    H125235   7.449   5.251   4.543
 8426TIP3    H225236   7.598   5.236   4.521
 8427TIP3   OH225237   4.671   4.502   2.390
 8427TIP3    H125238   4.667   4.411   2.361
 8427TIP3    H225239   4.612   4.506   2.465
 8428TIP3   OH225240   5.548   5.241   6.525
 8428TIP3    H125241   5.480   5.188   6.484
 8428TIP3    H225242   5.579   5.299   6.456
 8429TIP3   OH225243   2.048   1.972   6.276
 8429TIP3    H125244   2.102   2.038   6.320
 8429TIP3    H225245   1.963   1.977   6.319
 8430TIP3   OH225246   7.914   4.409   3.056
 8430TIP3    H125247   7.876   4.461   3.127
 8430TIP3    H225248   7.954   4.473   2.998
 8431TIP3   OH225249   4.995   2.316   0.171
 8431TIP3    H125250   4.963   2.286   0.256
 8431TIP3    H225251   5.021   2.407   0.184
 8432TIP3   OH225252   2.431   3.984   1.362
 8432TIP3    H125253   2.341   3.998   1.334
 8432TIP3    H225254   2.423   3.933   1.443
 8433TIP3   OH225255   3.095   5.186   4.123
 8433TIP3    H125256   3.140   5.173   4.040
 8433TIP3    H225257   3.036   5.260   4.106
 8434TIP3   OH225258   3.640   0.838   5.175
 8434TIP3    H125259   3.712   0.846   5.112
 8434TIP3    H225260   3.647   0.917   5.229
 8435TIP3   OH225261   7.857   3.396   0.820
 8435TIP3    H125262   7.888   3.308   0.843
 8435TIP3    H225263   7.891   3.452   0.889
 8436TIP3   OH225264   6.685   1.412   4.083
 8436TIP3    H125265   6.766   1.361   4.072
 8436TIP3    H225266   6.668   1.449   3.996
 8437TIP3   OH225267   5.781   4.270   2.303
 8437TIP3    H125268   5.812   4.336   2.241
 8437TIP3    H225269   5.846   4.271   2.374
 8438TIP3   OH225270   5.559   1.324   5.554
 8438TIP3    H125271   5.586   1.413   5.578
 8438TIP3    H225272   5.611   1.267   5.611
 8439TIP3   OH225273   2.379   3.254   2.486
 8439TIP3    H125274   2.319   3.186   2.458
 8439TIP3    H225275   2.402   3.301   2.405
 8440TIP3   OH225276   3.883   2.799   0.879
 8440TIP3    H125277   3.834   2.768   0.803
 8440TIP3    H225278   3.921   2.719   0.917
 8441TIP3   OH225279   0.725   1.284   1.511
 8441TIP3    H125280   0.650   1.302   1.455
 8441TIP3    H225281   0.794   1.341   1.477
 8442TIP3   OH225282   0.948   7.092   3.539
 8442TIP3    H125283   0.940   7.079   3.445
 8442TIP3    H225284   1.040   7.115   3.552
 8443TIP3   OH225285   4.977   1.686   0.565
 8443TIP3    H125286   5.029   1.761   0.596
 8443TIP3    H225287   4.941   1.647   0.644
 8444TIP3   OH225288   2.928   0.266   2.610
 8444TIP3    H125289   2.954   0.356   2.595
 8444TIP3    H225290   2.886   0.238   2.529
 8445TIP3   OH225291   3.255   6.037   6.120
 8445TIP3    H125292   3.175   6.085   6.142
 8445TIP3    H225293   3.229   5.978   6.049
 8446TIP3   OH225294   5.113   5.260   5.318
 8446TIP3    H125295   5.073   5.185   5.274
 8446TIP3    H225296   5.044   5.294   5.375
 8447TIP3   OH225297   2.518   1.851   3.428
 8447TIP3    H125298   2.546   1.807   3.348
 8447TIP3    H225299   2.595   1.902   3.456
 8448TIP3   OH225300   4.660   5.901   0.458
 8448TIP3    H125301   4.679   5.986   0.499
 8448TIP3    H225302   4.734   5.845   0.483
 8449TIP3   OH225303   7.907   2.921   4.888
 8449TIP3    H125304   7.921   2.952   4.978
 8449TIP3    H225305   7.832   2.973   4.857
 8450TIP3   OH225306   5.092   6.493   4.631
 8450TIP3    H125307   5.046   6.541   4.563
 8450TIP3    H225308   5.183   6.490   4.601
 8451TIP3   OH225309   2.172   4.302   1.598
 8451TIP3    H125310   2.254   4.305   1.550
 8451TIP3    H225311   2.176   4.377   1.658
 8452TIP3   OH225312   7.594   2.438   4.524
 8452TIP3    H125313   7.668   2.498   4.536
 8452TIP3    H225314   7.532   2.488   4.471
 8453TIP3   OH225315   0.448   5.533   4.530
 8453TIP3    H125316   0.492   5.547   4.446
 8453TIP3    H225317   0.520   5.517   4.592
 8454TIP3   OH225318   3.844   4.107   4.205
 8454TIP3    H125319   3.752   4.083   4.189
 8454TIP3    H225320   3.889   4.085   4.123
 8455TIP3   OH225321   2.410   2.999   0.133
 8455TIP3    H125322   2.322   3.013   0.167
 8455TIP3    H225323   2.444   3.087   0.117
 8456TIP3   OH225324   7.584   1.777   1.578
 8456TIP3    H125325   7.584   1.836   1.653
 8456TIP3    H225326   7.508   1.803   1.526
 8457TIP3   OH225327   8.126   1.207   5.708
 8457TIP3    H125328   8.165   1.147   5.771
 8457TIP3    H225329   8.201   1.246   5.663
 8458TIP3   OH225330   0.343   5.240   5.525
 8458TIP3    H125331   0.288   5.228   5.448
 8458TIP3    H225332   0.428   5.204   5.499
 8459TIP3   OH225333   4.931   2.669   1.502
 8459TIP3    H125334   5.024   2.670   1.523
 8459TIP3    H225335   4.905   2.762   1.503
 8460TIP3   OH225336   4.374   7.058   2.070
 8460TIP3    H125337   4.450   7.001   2.058
 8460TIP3    H225338   4.313   7.007   2.124
 8461TIP3   OH225339   1.999   7.518   6.597
 8461TIP3    H125340   1.916   7.481   6.626
 8461TIP3    H225341   2.027   7.462   6.525
 8462TIP3   OH225342   2.949   2.675   1.690
 8462TIP3    H125343   2.956   2.750   1.632
 8462TIP3    H225344   3.039   2.642   1.699
 8463TIP3   OH225345   2.240   5.787   2.356
 8463TIP3    H125346   2.313   5.770   2.415
 8463TIP3    H225347   2.238   5.882   2.348
 8464TIP3   OH225348   5.007   6.627   5.628
 8464TIP3    H125349   4.952   6.703   5.609
 8464TIP3    H225350   5.033   6.638   5.720
 8465TIP3   OH225351   4.050   6.467   6.385
 8465TIP3    H125352   4.098   6.432   6.460
 8465TIP3    H225353   3.986   6.399   6.364
 8466TIP3   OH225354   7.918   0.990   6.050
 8466TIP3    H125355   7.882   1.078   6.039
 8466TIP3    H225356   7.903   0.947   5.966
 8467TIP3   OH225357   2.528   1.426   4.072
 8467TIP3    H125358   2.575   1.435   3.989
 8467TIP3    H225359   2.466   1.354   4.056
 8468TIP3   OH225360   3.799   6.824   0.925
 8468TIP3    H125361   3.888   6.839   0.958
 8468TIP3    H225362   3.808   6.823   0.830
 8469TIP3   OH225363   5.910   6.516   5.488
 8469TIP3    H125364   5.867   6.538   5.570
 8469TIP3    H225365   5.985   6.576   5.483
 8470TIP3   OH225366   4.383   2.477   3.596
 8470TIP3    H125367   4.331   2.444   3.523
 8470TIP3    H225368   4.448   2.409   3.612
 8471TIP3   OH225369   1.815   1.710   0.131
 8471TIP3    H125370   1.879   1.661   0.079
 8471TIP3    H225371   1.802   1.656   0.209
 8472TIP3   OH225372   2.149   4.157   0.386
 8472TIP3    H125373   2.169   4.249   0.369
 8472TIP3    H225374   2.197   4.109   0.319
 8473TIP3   OH225375   7.791   3.779   0.236
 8473TIP3    H125376   7.817   3.722   0.164
 8473TIP3    H225377   7.755   3.857   0.194
 8474TIP3   OH225378   3.502   2.686   4.676
 8474TIP3    H125379   3.437   2.732   4.622
 8474TIP3    H225380   3.484   2.593   4.661
 8475TIP3   OH225381   2.689   5.436   2.075
 8475TIP3    H125382   2.766   5.430   2.132
 8475TIP3    H225383   2.636   5.506   2.113
 8476TIP3   OH225384   7.486   2.500   2.031
 8476TIP3    H125385   7.529   2.419   2.005
 8476TIP3    H225386   7.468   2.490   2.124
 8477TIP3   OH225387   5.925   5.825   1.543
 8477TIP3    H125388   6.005   5.868   1.575
 8477TIP3    H225389   5.860   5.841   1.612
 8478TIP3   OH225390   3.704   7.151   2.306
 8478TIP3    H125391   3.625   7.185   2.347
 8478TIP3    H225392   3.764   7.134   2.379
 8479TIP3   OH225393   6.768   3.558   4.846
 8479TIP3    H125394   6.774   3.491   4.913
 8479TIP3    H225395   6.808   3.635   4.885
 8480TIP3   OH225396   1.097   2.394   1.949
 8480TIP3    H125397   1.153   2.403   2.027
 8480TIP3    H225398   1.072   2.484   1.927
 8481TIP3   OH225399   4.537   3.728   0.556
 8481TIP3    H125400   4.556   3.663   0.488
 8481TIP3    H225401   4.464   3.779   0.521
 8482TIP3   OH225402   1.448   6.637   4.410
 8482TIP3    H125403   1.518   6.573   4.396
 8482TIP3    H225404   1.489   6.705   4.465
 8483TIP3   OH225405   0.058   7.199   5.630
 8483TIP3    H125406  -0.018   7.144   5.610
 8483TIP3    H225407   0.053   7.215   5.724
 8484TIP3   OH225408   0.757   1.675   3.096
 8484TIP3    H125409   0.771   1.606   3.161
 8484TIP3    H225410   0.845   1.695   3.064
 8485TIP3   OH225411   3.491   0.134   4.197
 8485TIP3    H125412   3.396   0.128   4.194
 8485TIP3    H225413   3.514   0.186   4.120
 8486TIP3   OH225414   7.437   4.038   4.937
 8486TIP3    H125415   7.418   3.946   4.916
 8486TIP3    H225416   7.519   4.034   4.987
 8487TIP3   OH225417   6.252   0.428   3.864
 8487TIP3    H125418   6.173   0.477   3.887
 8487TIP3    H225419   6.292   0.405   3.947
 8488TIP3   OH225420   6.892   2.020   3.702
 8488TIP3    H125421   6.863   1.935   3.735
 8488TIP3    H225422   6.914   2.004   3.610
 8489TIP3   OH225423   0.565   6.236   2.378
 8489TIP3    H125424   0.640   6.232   2.318
 8489TIP3    H225425   0.496   6.278   2.327
 8490TIP3   OH225426   0.102   6.396   1.182
 8490TIP3    H125427   0.156   6.328   1.223
 8490TIP3    H225428   0.012   6.365   1.194
 8491TIP3   OH225429   1.904   6.327   5.912
 8491TIP3    H125430   1.990   6.357   5.885
 8491TIP3    H225431   1.912   6.232   5.917
 8492TIP3   OH225432   7.360   6.971   3.528
 8492TIP3    H125433   7.384   7.012   3.445
 8492TIP3    H225434   7.371   6.877   3.512
 8493TIP3   OH225435   5.612   7.276   2.645
 8493TIP3    H125436   5.538   7.337   2.651
 8493TIP3    H225437   5.579   7.204   2.592
 8494TIP3   OH225438   0.120   5.495   3.875
 8494TIP3    H125439   0.185   5.494   3.945
 8494TIP3    H225440   0.063   5.420   3.893
 8495TIP3   OH225441   7.296   0.221   2.696
 8495TIP3    H125442   7.305   0.179   2.610
 8495TIP3    H225443   7.291   0.148   2.758
 8496TIP3   OH225444   7.046   5.401   2.077
 8496TIP3    H125445   7.074   5.409   2.169
 8496TIP3    H225446   6.982   5.330   2.078
 8497TIP3   OH225447   8.117   6.035   2.171
 8497TIP3    H125448   8.154   6.015   2.084
 8497TIP3    H225449   8.062   5.959   2.191
 8498TIP3   OH225450   7.052   6.337   5.090
 8498TIP3    H125451   7.007   6.352   5.006
 8498TIP3    H225452   7.101   6.256   5.077
 8499TIP3   OH225453   4.350   5.432   3.322
 8499TIP3    H125454   4.263   5.469   3.308
 8499TIP3    H225455   4.401   5.504   3.359
 8500TIP3   OH225456   7.451   4.939   2.899
 8500TIP3    H125457   7.499   4.906   2.822
 8500TIP3    H225458   7.367   4.968   2.864
 8501TIP3   OH225459   1.432  -0.027   0.536
 8501TIP3    H125460   1.457   0.058   0.500
 8501TIP3    H225461   1.385  -0.006   0.617
 8502TIP3   OH225462   2.277   6.016   2.050
 8502TIP3    H125463   2.317   6.101   2.065
 8502TIP3    H225464   2.256   5.984   2.138
 8503TIP3   OH225465   0.728   0.882   0.718
 8503TIP3    H125466   0.815   0.842   0.723
 8503TIP3    H225467   0.745   0.975   0.702
 8504TIP3   OH225468   2.949   6.352   6.302
 8504TIP3    H125469   2.985   6.282   6.357
 8504TIP3    H225470   3.020   6.376   6.243
 8505TIP3   OH225471   8.086   5.372   6.145
 8505TIP3    H125472   8.153   5.409   6.087
 8505TIP3    H225473   8.133   5.351   6.225
 8506TIP3   OH225474   6.721   1.357   1.405
 8506TIP3    H125475   6.782   1.292   1.438
 8506TIP3    H225476   6.648   1.355   1.468
 8507TIP3   OH225477   3.005   0.693   3.525
 8507TIP3    H125478   2.962   0.744   3.456
 8507TIP3    H225479   3.086   0.742   3.543
 8508TIP3   OH225480   5.386   2.833   5.775
 8508TIP3    H125481   5.312   2.823   5.834
 8508TIP3    H225482   5.455   2.781   5.814
 8509TIP3   OH225483   4.884   5.956   2.218
 8509TIP3    H125484   4.899   6.012   2.294
 8509TIP3    H225485   4.850   6.015   2.151
 8510TIP3   OH225486   6.549   3.222   6.437
 8510TIP3    H125487   6.531   3.202   6.529
 8510TIP3    H225488   6.644   3.217   6.430
 8511TIP3   OH225489   0.159   5.385   1.204
 8511TIP3    H125490   0.241   5.341   1.182
 8511TIP3    H225491   0.097   5.313   1.219
 8512TIP3   OH225492   8.066   1.404   6.279
 8512TIP3    H125493   8.047   1.492   6.312
 8512TIP3    H225494   8.128   1.368   6.343
 8513TIP3   OH225495   2.492   6.397   1.852
 8513TIP3    H125496   2.556   6.467   1.867
 8513TIP3    H225497   2.413   6.443   1.821
 8514TIP3   OH225498   5.388   2.417   1.333
 8514TIP3    H125499   5.401   2.501   1.288
 8514TIP3    H225500   5.296   2.397   1.320
 8515TIP3   OH225501   0.964   2.597   1.231
 8515TIP3    H125502   1.008   2.670   1.188
 8515TIP3    H225503   0.914   2.637   1.302
 8516TIP3   OH225504   4.214   1.444   0.935
 8516TIP3    H125505   4.270   1.519   0.955
 8516TIP3    H225506   4.194   1.407   1.021
 8517TIP3   OH225507   6.402   0.739   1.838
 8517TIP3    H125508   6.438   0.727   1.750
 8517TIP3    H225509   6.311   0.764   1.824
 8518TIP3   OH225510   1.753   4.158  -0.018
 8518TIP3    H125511   1.762   4.153   0.077
 8518TIP3    H225512   1.842   4.161  -0.051
 8519TIP3   OH225513   4.528   0.763   3.361
 8519TIP3    H125514   4.481   0.843   3.385
 8519TIP3    H225515   4.505   0.700   3.428
 8520TIP3   OH225516   0.453   0.397   1.733
 8520TIP3    H125517   0.527   0.373   1.678
 8520TIP3    H225518   0.482   0.379   1.822
 8521TIP3   OH225519   4.824   0.296   6.793
 8521TIP3    H125520   4.840   0.379   6.838
 8521TIP3    H225521   4.832   0.317   6.700
 8522TIP3   OH225522   2.126   6.789   2.051
 8522TIP3    H125523   2.171   6.804   1.967
 8522TIP3    H225524   2.066   6.863   2.059
 8523TIP3   OH225525   2.770   4.264   1.116
 8523TIP3    H125526   2.705   4.301   1.176
 8523TIP3    H225527   2.735   4.178   1.092
 8524TIP3   OH225528   3.099   0.387   3.051
 8524TIP3    H125529   3.135   0.469   3.083
 8524TIP3    H225530   3.018   0.413   3.007
 8525TIP3   OH225531   4.653   4.027   6.058
 8525TIP3    H125532   4.623   3.936   6.062
 8525TIP3    H225533   4.602   4.072   6.126
 8526TIP3   OH225534   6.511   3.839   2.659
 8526TIP3    H125535   6.490   3.899   2.587
 8526TIP3    H225536   6.428   3.825   2.704
 8527TIP3   OH225537   6.605   4.302   2.243
 8527TIP3    H125538   6.531   4.300   2.304
 8527TIP3    H225539   6.593   4.225   2.187
 8528TIP3   OH225540   1.568   7.070   0.872
 8528TIP3    H125541   1.630   6.998   0.880
 8528TIP3    H225542   1.561   7.086   0.777
 8529TIP3   OH225543   1.786   4.963   5.355
 8529TIP3    H125544   1.758   4.885   5.306
 8529TIP3    H225545   1.880   4.970   5.336
 8530TIP3   OH225546   6.423   0.650   0.936
 8530TIP3    H125547   6.480   0.654   1.013
 8530TIP3    H225548   6.352   0.711   0.956
 8531TIP3   OH225549   3.153   7.601   2.286
 8531TIP3    H125550   3.182   7.514   2.258
 8531TIP3    H225551   3.156   7.598   2.381
 8532TIP3   OH225552   7.591   5.508   2.381
 8532TIP3    H125553   7.516   5.462   2.344
 8532TIP3    H225554   7.589   5.486   2.474
 8533TIP3   OH225555   4.754   7.277   6.228
 8533TIP3    H125556   4.728   7.341   6.294
 8533TIP3    H225557   4.671   7.243   6.194
 8534TIP3   OH225558   4.808   2.017   4.429
 8534TIP3    H125559   4.836   2.064   4.507
 8534TIP3    H225560   4.769   2.084   4.373
 8535TIP3   OH225561   2.872   5.822   4.110
 8535TIP3    H125562   2.917   5.737   4.102
 8535TIP3    H225563   2.939   5.881   4.144
 8536TIP3   OH225564   5.299   6.308   5.032
 8536TIP3    H125565   5.264   6.331   5.118
 8536TIP3    H225566   5.393   6.320   5.040
 8537TIP3   OH225567   6.541   2.860   5.034
 8537TIP3    H125568   6.559   2.769   5.056
 8537TIP3    H225569   6.624   2.896   5.005
 8538TIP3   OH225570   2.265   6.069   5.926
 8538TIP3    H125571   2.220   5.986   5.942
 8538TIP3    H225572   2.207   6.117   5.866
 8539TIP3   OH225573   2.915   3.184   1.568
 8539TIP3    H125574   2.855   3.190   1.643
 8539TIP3    H225575   2.874   3.119   1.511
 8540TIP3   OH225576   3.214   6.800   0.837
 8540TIP3    H125577   3.240   6.890   0.857
 8540TIP3    H225578   3.280   6.747   0.881
 8541TIP3   OH225579   0.737   2.553   1.089
 8541TIP3    H125580   0.705   2.626   1.037
 8541TIP3    H225581   0.797   2.593   1.152
 8542TIP3   OH225582   6.318   5.930   1.167
 8542TIP3    H125583   6.309   5.905   1.076
 8542TIP3    H225584   6.366   6.013   1.164
 8543TIP3   OH225585   2.893   1.501   0.984
 8543TIP3    H125586   2.946   1.510   0.905
 8543TIP3    H225587   2.910   1.582   1.033
 8544TIP3   OH225588   0.343   2.212   4.966
 8544TIP3    H125589   0.404   2.141   4.985
 8544TIP3    H225590   0.264   2.167   4.934
 8545TIP3   OH225591   3.919   3.730   3.755
 8545TIP3    H125592   3.825   3.735   3.767
 8545TIP3    H225593   3.930   3.703   3.664
 8546TIP3   OH225594   0.409   4.774   3.064
 8546TIP3    H125595   0.437   4.688   3.096
 8546TIP3    H225596   0.489   4.817   3.037
 8547TIP3   OH225597   3.680   4.583   4.563
 8547TIP3    H125598   3.768   4.603   4.596
 8547TIP3    H225599   3.692   4.566   4.470
 8548TIP3   OH225600   8.087   4.382   2.107
 8548TIP3    H125601   8.169   4.336   2.121
 8548TIP3    H225602   8.111   4.475   2.106
 8549TIP3   OH225603   2.006   2.099   2.508
 8549TIP3    H125604   2.047   2.067   2.589
 8549TIP3    H225605   1.928   2.044   2.497
 8550TIP3   OH225606   5.862   3.291   3.456
 8550TIP3    H125607   5.921   3.364   3.439
 8550TIP3    H225608   5.869   3.276   3.550
 8551TIP3   OH225609   4.339   3.414   4.277
 8551TIP3    H125610   4.342   3.320   4.290
 8551TIP3    H225611   4.288   3.448   4.351
 8552TIP3   OH225612   3.919   3.664   3.487
 8552TIP3    H125613   3.838   3.632   3.448
 8552TIP3    H225614   3.966   3.585   3.514
 8553TIP3   OH225615   1.658   1.201   0.634
 8553TIP3    H125616   1.565   1.213   0.654
 8553TIP3    H225617   1.689   1.289   0.610
 8554TIP3   OH225618   1.528   7.268   5.711
 8554TIP3    H125619   1.566   7.275   5.624
 8554TIP3    H225620   1.569   7.191   5.750
 8555TIP3   OH225621   1.402   0.132   2.422
 8555TIP3    H125622   1.472   0.072   2.398
 8555TIP3    H225623   1.361   0.094   2.500
 8556TIP3   OH225624   1.208   4.639   3.929
 8556TIP3    H125625   1.147   4.713   3.928
 8556TIP3    H225626   1.151   4.561   3.926
 8557TIP3   OH225627   2.418   7.114   3.954
 8557TIP3    H125628   2.428   7.023   3.925
 8557TIP3    H225629   2.505   7.140   3.983
 8558TIP3   OH225630   0.980   0.330   0.918
 8558TIP3    H125631   0.950   0.399   0.978
 8558TIP3    H225632   0.906   0.316   0.859
 8559TIP3   OH225633   6.862   6.659   2.051
 8559TIP3    H125634   6.861   6.704   1.967
 8559TIP3    H225635   6.948   6.679   2.088
 8560TIP3   OH225636   2.164   4.304   1.958
 8560TIP3    H125637   2.192   4.215   1.937
 8560TIP3    H225638   2.144   4.301   2.052
 8561TIP3   OH225639   5.508   4.434   0.366
 8561TIP3    H125640   5.600   4.457   0.354
 8561TIP3    H225641   5.486   4.466   0.454
 8562TIP3   OH225642   7.406   3.829   5.443
 8562TIP3    H125643   7.390   3.917   5.475
 8562TIP3    H225644   7.358   3.824   5.361
 8563TIP3   OH225645   5.162   1.724   2.725
 8563TIP3    H125646   5.110   1.678   2.659
 8563TIP3    H225647   5.233   1.664   2.746
 8564TIP3   OH225648   2.039  -0.012   1.216
 8564TIP3    H125649   2.129  -0.041   1.202
 8564TIP3    H225650   2.012   0.022   1.132
 8565TIP3   OH225651   1.322   4.706   2.606
 8565TIP3    H125652   1.393   4.763   2.578
 8565TIP3    H225653   1.346   4.619   2.573
 8566TIP3   OH225654   3.771   0.505   5.532
 8566TIP3    H125655   3.801   0.514   5.622
 8566TIP3    H225656   3.805   0.421   5.502
 8567TIP3   OH225657   5.017   2.644   2.714
 8567TIP3    H125658   5.111   2.659   2.727
 8567TIP3    H225659   4.995   2.576   2.778
 8568TIP3   OH225660   7.330   7.150   6.057
 8568TIP3    H125661   7.256   7.202   6.024
 8568TIP3    H225662   7.366   7.107   5.979
 8569TIP3   OH225663   1.125   7.138   4.089
 8569TIP3    H125664   1.038   7.178   4.087
 8569TIP3    H225665   1.185   7.213   4.086
 8570TIP3   OH225666   0.092   3.750   1.205
 8570TIP3    H125667   0.046   3.714   1.281
 8570TIP3    H225668   0.022   3.789   1.151
 8571TIP3   OH225669   7.238   5.115   2.080
 8571TIP3    H125670   7.258   5.022   2.077
 8571TIP3    H225671   7.142   5.119   2.087
 8572TIP3   OH225672   6.645   5.144   1.186
 8572TIP3    H125673   6.564   5.164   1.233
 8572TIP3    H225674   6.616   5.103   1.105
 8573TIP3   OH225675   3.738   7.205   3.337
 8573TIP3    H125676   3.778   7.292   3.331
 8573TIP3    H225677   3.734   7.175   3.246
 8574TIP3   OH225678   0.227   3.593   4.295
 8574TIP3    H125679   0.254   3.681   4.322
 8574TIP3    H225680   0.294   3.565   4.233
 8575TIP3   OH225681   3.877   1.826   5.762
 8575TIP3    H125682   3.830   1.766   5.819
 8575TIP3    H225683   3.868   1.911   5.805
 8576TIP3   OH225684   1.936   4.865   3.717
 8576TIP3    H125685   1.993   4.805   3.669
 8576TIP3    H225686   1.852   4.819   3.723
 8577TIP3   OH225687   4.987   1.191   1.546
 8577TIP3    H125688   4.960   1.100   1.535
 8577TIP3    H225689   4.923   1.241   1.496
 8578TIP3   OH225690   2.172   2.454   3.220
 8578TIP3    H125691   2.193   2.429   3.310
 8578TIP3    H225692   2.077   2.443   3.214
 8579TIP3   OH225693   3.930   2.550   4.590
 8579TIP3    H125694   3.838   2.535   4.570
 8579TIP3    H225695   3.973   2.553   4.505
 8580TIP3   OH225696   0.101   7.267   5.268
 8580TIP3    H125697   0.017   7.243   5.308
 8580TIP3    H225698   0.079   7.336   5.206
 8581TIP3   OH225699   7.495   5.009   1.814
 8581TIP3    H125700   7.451   5.072   1.757
 8581TIP3    H225701   7.568   5.057   1.853
 8582TIP3   OH225702   0.936   5.505   2.635
 8582TIP3    H125703   0.858   5.462   2.670
 8582TIP3    H225704   0.905   5.555   2.560
 8583TIP3   OH225705   0.820   3.183   2.405
 8583TIP3    H125706   0.885   3.130   2.358
 8583TIP3    H225707   0.736   3.141   2.385
 8584TIP3   OH225708   0.772   5.195   5.025
 8584TIP3    H125709   0.860   5.178   5.059
 8584TIP3    H225710   0.729   5.246   5.093
 8585TIP3   OH225711   7.576   2.650   5.645
 8585TIP3    H125712   7.662   2.630   5.608
 8585TIP3    H225713   7.514   2.623   5.578
 8586TIP3   OH225714   5.443   3.405   2.853
 8586TIP3    H125715   5.374   3.343   2.876
 8586TIP3    H225716   5.406   3.455   2.780
 8587TIP3   OH225717   2.176   3.237   0.345
 8587TIP3    H125718   2.090   3.263   0.312
 8587TIP3    H225719   2.183   3.144   0.323
 8588TIP3   OH225720   6.406   3.893   0.030
 8588TIP3    H125721   6.464   3.817   0.020
 8588TIP3    H225722   6.465   3.965   0.053
 8589TIP3   OH225723   1.159   4.238   2.975
 8589TIP3    H125724   1.105   4.254   3.052
 8589TIP3    H225725   1.104   4.263   2.901
 8590TIP3   OH225726   0.508   0.901   3.271
 8590TIP3    H125727   0.452   0.824   3.266
 8590TIP3    H225728   0.501   0.930   3.362
 8591TIP3   OH225729   0.023   0.080   3.330
 8591TIP3    H125730  -0.014   0.069   3.417
 8591TIP3    H225731   0.117   0.061   3.342
 8592TIP3   OH225732   4.771   2.973   5.196
 8592TIP3    H125733   4.811   3.021   5.123
 8592TIP3    H225734   4.786   3.029   5.272
 8593TIP3   OH225735   6.578   0.525   5.914
 8593TIP3    H125736   6.535   0.602   5.876
 8593TIP3    H225737   6.545   0.522   6.004
 8594TIP3   OH225738   4.690   1.520   1.276
 8594TIP3    H125739   4.615   1.487   1.226
 8594TIP3    H225740   4.654   1.545   1.361
 8595TIP3   OH225741   6.970   6.473   3.379
 8595TIP3    H125742   6.922   6.428   3.448
 8595TIP3    H225743   6.913   6.467   3.302
 8596TIP3   OH225744   0.143   2.341   2.407
 8596TIP3    H125745   0.078   2.302   2.349
 8596TIP3    H225746   0.227   2.310   2.373
 8597TIP3   OH225747   6.540   6.506   1.986
 8597TIP3    H125748   6.453   6.467   1.979
 8597TIP3    H225749   6.559   6.505   2.080
 8598TIP3   OH225750   7.714   3.593   6.681
 8598TIP3    H125751   7.709   3.686   6.658
 8598TIP3    H225752   7.691   3.590   6.774
 8599TIP3   OH225753   3.111   3.849   1.296
 8599TIP3    H125754   3.202   3.878   1.297
 8599TIP3    H225755   3.103   3.799   1.215
 8600TIP3   OH225756   5.381   2.484   0.725
 8600TIP3    H125757   5.407   2.575   0.732
 8600TIP3    H225758   5.431   2.450   0.651
 8601TIP3   OH225759   4.821   2.275   0.765
 8601TIP3    H125760   4.806   2.204   0.703
 8601TIP3    H225761   4.849   2.232   0.845
 8602TIP3   OH225762   8.275   0.967   2.615
 8602TIP3    H125763   8.304   1.051   2.577
 8602TIP3    H225764   8.265   0.986   2.708
 8603TIP3   OH225765   3.980   2.009   4.524
 8603TIP3    H125766   3.981   1.952   4.448
 8603TIP3    H225767   4.066   2.052   4.523
 8604TIP3   OH225768   3.780   1.931   0.130
 8604TIP3    H125769   3.732   1.898   0.207
 8604TIP3    H225770   3.735   2.013   0.109
 8605TIP3   OH225771   0.841   3.780   3.457
 8605TIP3    H125772   0.881   3.704   3.500
 8605TIP3    H225773   0.839   3.848   3.525
 8606TIP3   OH225774   0.730   1.545   5.702
 8606TIP3    H125775   0.637   1.550   5.681
 8606TIP3    H225776   0.771   1.517   5.620
 8607TIP3   OH225777   3.901   3.566   2.957
 8607TIP3    H125778   3.966   3.540   3.022
 8607TIP3    H225779   3.918   3.510   2.882
 8608TIP3   OH225780   0.448   1.041   4.970
 8608TIP3    H125781   0.454   1.130   5.004
 8608TIP3    H225782   0.363   1.037   4.926
 8609TIP3   OH225783   7.233   7.344   5.153
 8609TIP3    H125784   7.165   7.359   5.087
 8609TIP3    H225785   7.252   7.251   5.148
 8610TIP3   OH225786   5.263   3.420   5.362
 8610TIP3    H125787   5.356   3.433   5.381
 8610TIP3    H225788   5.247   3.474   5.285
 8611TIP3   OH225789   5.524   1.634   4.585
 8611TIP3    H125790   5.542   1.660   4.495
 8611TIP3    H225791   5.453   1.692   4.613
 8612TIP3   OH225792   6.891   2.758   2.195
 8612TIP3    H125793   6.922   2.700   2.126
 8612TIP3    H225794   6.966   2.765   2.255
 8613TIP3   OH225795   6.777   1.463   3.794
 8613TIP3    H125796   6.844   1.421   3.740
 8613TIP3    H225797   6.694   1.431   3.757
 8614TIP3   OH225798   6.656   3.030   4.809
 8614TIP3    H125799   6.685   3.046   4.719
 8614TIP3    H225800   6.736   3.014   4.858
 8615TIP3   OH225801   4.299   0.460   1.823
 8615TIP3    H125802   4.328   0.453   1.732
 8615TIP3    H225803   4.206   0.440   1.820
 8616TIP3   OH225804   0.187   7.464   3.999
 8616TIP3    H125805   0.266   7.494   4.044
 8616TIP3    H225806   0.217   7.438   3.912
 8617TIP3   OH225807   5.155   1.652   3.060
 8617TIP3    H125808   5.249   1.650   3.039
 8617TIP3    H225809   5.124   1.564   3.043
 8618TIP3   OH225810   0.828   1.456   6.608
 8618TIP3    H125811   0.831   1.524   6.541
 8618TIP3    H225812   0.759   1.396   6.578
 8619TIP3   OH225813   1.786   1.685   4.273
 8619TIP3    H125814   1.824   1.747   4.212
 8619TIP3    H225815   1.713   1.732   4.313
 8620TIP3   OH225816   3.044   5.987   0.686
 8620TIP3    H125817   3.100   5.912   0.704
 8620TIP3    H225818   2.972   5.952   0.633
 8621TIP3   OH225819   4.295   5.792   0.805
 8621TIP3    H125820   4.221   5.830   0.759
 8621TIP3    H225821   4.372   5.837   0.768
 8622TIP3   OH225822   1.268   0.520   3.470
 8622TIP3    H125823   1.208   0.544   3.541
 8622TIP3    H225824   1.227   0.556   3.391
 8623TIP3   OH225825   6.109   6.100   5.469
 8623TIP3    H125826   6.016   6.092   5.489
 8623TIP3    H225827   6.126   6.034   5.402
 8624TIP3   OH225828   1.233   3.752   2.540
 8624TIP3    H125829   1.162   3.815   2.553
 8624TIP3    H225830   1.243   3.709   2.624
 8625TIP3   OH225831   6.200   5.345   5.203
 8625TIP3    H125832   6.236   5.396   5.276
 8625TIP3    H225833   6.276   5.301   5.165
 8626TIP3   OH225834   1.443   7.002   2.880
 8626TIP3    H125835   1.412   7.040   2.798
 8626TIP3    H225836   1.520   7.054   2.903
 8627TIP3   OH225837   4.025   5.739   1.838
 8627TIP3    H125838   3.999   5.783   1.919
 8627TIP3    H225839   3.976   5.657   1.838
 8628TIP3   OH225840   3.980   7.265   5.307
 8628TIP3    H125841   4.026   7.241   5.388
 8628TIP3    H225842   3.961   7.358   5.317
 8629TIP3   OH225843   0.941   4.231   2.631
 8629TIP3    H125844   0.904   4.145   2.652
 8629TIP3    H225845   0.912   4.287   2.703
 8630TIP3   OH225846   3.729   5.720   2.612
 8630TIP3    H125847   3.718   5.633   2.572
 8630TIP3    H225848   3.711   5.706   2.705
 8631TIP3   OH225849   0.226   0.638   5.404
 8631TIP3    H125850   0.174   0.621   5.325
 8631TIP3    H225851   0.179   0.594   5.474
 8632TIP3   OH225852   5.320   0.492   6.655
 8632TIP3    H125853   5.271   0.411   6.650
 8632TIP3    H225854   5.258   0.560   6.628
 8633TIP3   OH225855   1.279   0.141   4.141
 8633TIP3    H125856   1.352   0.202   4.138
 8633TIP3    H225857   1.275   0.113   4.233
 8634TIP3   OH225858   3.913   2.608   1.934
 8634TIP3    H125859   3.974   2.680   1.949
 8634TIP3    H225860   3.856   2.638   1.863
 8635TIP3   OH225861   1.259   5.480   3.380
 8635TIP3    H125862   1.274   5.394   3.420
 8635TIP3    H225863   1.221   5.533   3.450
 8636TIP3   OH225864   1.030   2.388   4.122
 8636TIP3    H125865   1.046   2.354   4.210
 8636TIP3    H225866   1.046   2.482   4.129
 8637TIP3   OH225867   5.758   5.829   2.912
 8637TIP3    H125868   5.829   5.780   2.953
 8637TIP3    H225869   5.791   5.852   2.825
 8638TIP3   OH225870   6.439   3.684   0.846
 8638TIP3    H125871   6.415   3.702   0.755
 8638TIP3    H225872   6.428   3.589   0.855
 8639TIP3   OH225873   3.656   4.378   1.447
 8639TIP3    H125874   3.583   4.316   1.446
 8639TIP3    H225875   3.698   4.363   1.532
 8640TIP3   OH225876   1.558   2.463   1.290
 8640TIP3    H125877   1.530   2.494   1.376
 8640TIP3    H225878   1.650   2.439   1.302
 8641TIP3   OH225879   0.561   2.237   2.790
 8641TIP3    H125880   0.474   2.210   2.761
 8641TIP3    H225881   0.570   2.201   2.879
 8642TIP3   OH225882   1.402   5.145   6.532
 8642TIP3    H125883   1.361   5.177   6.451
 8642TIP3    H225884   1.412   5.051   6.518
 8643TIP3   OH225885   7.723   7.181   4.562
 8643TIP3    H125886   7.742   7.112   4.498
 8643TIP3    H225887   7.676   7.248   4.512
 8644TIP3   OH225888   1.505   6.643   1.562
 8644TIP3    H125889   1.472   6.621   1.649
 8644TIP3    H225890   1.579   6.584   1.548
 8645TIP3   OH225891   7.975   1.901   5.130
 8645TIP3    H125892   7.943   1.915   5.219
 8645TIP3    H225893   8.051   1.844   5.141
 8646TIP3   OH225894   8.031   2.471   4.500
 8646TIP3    H125895   7.971   2.536   4.536
 8646TIP3    H225896   8.113   2.485   4.548
 8647TIP3   OH225897   7.195   0.542   0.281
 8647TIP3    H125898   7.269   0.600   0.295
 8647TIP3    H225899   7.172   0.554   0.189
 8648TIP3   OH225900   2.478   1.259   3.683
 8648TIP3    H125901   2.452   1.202   3.756
 8648TIP3    H225902   2.573   1.262   3.688
 8649TIP3   OH225903   3.583   4.056   3.867
 8649TIP3    H125904   3.495   4.025   3.848
 8649TIP3    H225905   3.627   4.060   3.781
 8650TIP3   OH225906   6.096   6.203   0.544
 8650TIP3    H125907   6.012   6.217   0.501
 8650TIP3    H225908   6.102   6.272   0.610
 8651TIP3   OH225909   2.392   6.523   1.420
 8651TIP3    H125910   2.445   6.454   1.460
 8651TIP3    H225911   2.310   6.481   1.396
 8652TIP3   OH225912   2.487   6.379   3.039
 8652TIP3    H125913   2.439   6.440   2.982
 8652TIP3    H225914   2.469   6.410   3.127
 8653TIP3   OH225915   4.201   7.175   5.116
 8653TIP3    H125916   4.147   7.225   5.177
 8653TIP3    H225917   4.257   7.241   5.074
 8654TIP3   OH225918   7.488   2.762   2.596
 8654TIP3    H125919   7.570   2.717   2.616
 8654TIP3    H225920   7.468   2.736   2.506
 8655TIP3   OH225921   3.936   6.752   0.082
 8655TIP3    H125922   4.018   6.739   0.034
 8655TIP3    H225923   3.910   6.842   0.063
 8656TIP3   OH225924   1.889   0.846   1.871
 8656TIP3    H125925   1.906   0.904   1.946
 8656TIP3    H225926   1.830   0.896   1.814
 8657TIP3   OH225927   0.388   4.330   0.793
 8657TIP3    H125928   0.455   4.287   0.847
 8657TIP3    H225929   0.311   4.275   0.801
 8658TIP3   OH225930   6.186   3.687   5.438
 8658TIP3    H125931   6.181   3.738   5.519
 8658TIP3    H225932   6.133   3.609   5.455
 8659TIP3   OH225933   3.607   4.313   2.930
 8659TIP3    H125934   3.623   4.294   2.838
 8659TIP3    H225935   3.572   4.231   2.966
 8660TIP3   OH225936   5.475   7.440   3.074
 8660TIP3    H125937   5.382   7.456   3.055
 8660TIP3    H225938   5.504   7.518   3.121
 8661TIP3   OH225939   7.386   5.869   1.299
 8661TIP3    H125940   7.319   5.811   1.334
 8661TIP3    H225941   7.431   5.816   1.232
 8662TIP3   OH225942   6.471   0.760  -0.028
 8662TIP3    H125943   6.560   0.775   0.003
 8662TIP3    H225944   6.480   0.694  -0.097
 8663TIP3   OH225945   2.767   6.672   5.365
 8663TIP3    H125946   2.801   6.762   5.363
 8663TIP3    H225947   2.722   6.665   5.449
 8664TIP3   OH225948   4.816   2.519   3.458
 8664TIP3    H125949   4.814   2.431   3.495
 8664TIP3    H225950   4.734   2.560   3.488
 8665TIP3   OH225951   7.299   0.669   6.548
 8665TIP3    H125952   7.227   0.647   6.490
 8665TIP3    H225953   7.262   0.664   6.636
 8666TIP3   OH225954   7.263   4.682   5.379
 8666TIP3    H125955   7.267   4.768   5.421
 8666TIP3    H225956   7.175   4.677   5.342
 8667TIP3   OH225957   5.386   3.246   1.147
 8667TIP3    H125958   5.336   3.184   1.200
 8667TIP3    H225959   5.441   3.292   1.210
 8668TIP3   OH225960   3.163   0.532   1.241
 8668TIP3    H125961   3.140   0.448   1.280
 8668TIP3    H225962   3.240   0.514   1.188
 8669TIP3   OH225963   6.483   1.070   2.318
 8669TIP3    H125964   6.513   1.010   2.386
 8669TIP3    H225965   6.429   1.015   2.260
 8670TIP3   OH225966   3.229   6.754   6.467
 8670TIP3    H125967   3.287   6.800   6.528
 8670TIP3    H225968   3.189   6.825   6.416
 8671TIP3   OH225969   6.049   0.056   5.293
 8671TIP3    H125970   6.054   0.031   5.385
 8671TIP3    H225971   5.956   0.051   5.272
 8672TIP3   OH225972   4.060   3.411   4.978
 8672TIP3    H125973   4.050   3.501   4.945
 8672TIP3    H225974   4.036   3.356   4.903
 8673TIP3   OH225975   5.773   3.870   6.641
 8673TIP3    H125976   5.815   3.956   6.637
 8673TIP3    H225977   5.680   3.890   6.657
 8674TIP3   OH225978   1.182   1.659   1.014
 8674TIP3    H125979   1.266   1.679   1.055
 8674TIP3    H225980   1.118   1.702   1.070
 8675TIP3   OH225981   3.639   1.186   0.933
 8675TIP3    H125982   3.607   1.235   0.857
 8675TIP3    H225983   3.678   1.107   0.895
 8676TIP3   OH225984   1.083   5.372   0.170
 8676TIP3    H125985   1.022   5.426   0.220
 8676TIP3    H225986   1.163   5.371   0.223
 8677TIP3   OH225987   2.530   4.030   4.002
 8677TIP3    H125988   2.565   4.116   3.980
 8677TIP3    H225989   2.500   3.995   3.918
 8678TIP3   OH225990   4.712   3.861   0.703
 8678TIP3    H125991   4.683   3.796   0.639
 8678TIP3    H225992   4.710   3.815   0.787
 8679TIP3   OH225993   1.231   4.242   3.927
 8679TIP3    H125994   1.317   4.283   3.939
 8679TIP3    H225995   1.246   4.149   3.945
 8680TIP3   OH225996   3.152   2.502   5.472
 8680TIP3    H125997   3.079   2.443   5.454
 8680TIP3    H225998   3.230   2.449   5.455
 8681TIP3   OH225999   1.022   6.985   4.873
 8681TIP3    H126000   1.070   6.906   4.845
 8681TIP3    H226001   1.085   7.056   4.859
 8682TIP3   OH226002   8.137   2.594   3.021
 8682TIP3    H126003   8.164   2.609   3.112
 8682TIP3    H226004   8.199   2.529   2.988
 8683TIP3   OH226005   1.186   3.854   1.563
 8683TIP3    H126006   1.103   3.863   1.608
 8683TIP3    H226007   1.242   3.922   1.601
 8684TIP3   OH226008   1.420   2.734   3.570
 8684TIP3    H126009   1.331   2.701   3.584
 8684TIP3    H226010   1.475   2.677   3.625
 8685TIP3   OH226011   3.388   6.186   5.568
 8685TIP3    H126012   3.397   6.280   5.551
 8685TIP3    H226013   3.327   6.155   5.501
 8686TIP3   OH226014   6.967   5.383   6.653
 8686TIP3    H126015   6.979   5.477   6.657
 8686TIP3    H226016   6.938   5.358   6.740
 8687TIP3   OH226017   1.020   6.035   1.737
 8687TIP3    H126018   1.052   6.096   1.670
 8687TIP3    H226019   0.963   5.975   1.689
 8688TIP3   OH226020   5.766   4.559   0.413
 8688TIP3    H126021   5.830   4.626   0.436
 8688TIP3    H226022   5.809   4.508   0.344
 8689TIP3   OH226023   2.626   1.779   0.053
 8689TIP3    H126024   2.671   1.857   0.023
 8689TIP3    H226025   2.643   1.775   0.147
 8690TIP3   OH226026   6.831   0.282   2.122
 8690TIP3    H126027   6.846   0.187   2.127
 8690TIP3    H226028   6.917   0.321   2.137
 8691TIP3   OH226029   5.562   0.719   1.777
 8691TIP3    H126030   5.496   0.746   1.841
 8691TIP3    H226031   5.595   0.636   1.810
 8692TIP3   OH226032   3.757   0.358   1.673
 8692TIP3    H126033   3.755   0.278   1.621
 8692TIP3    H226034   3.676   0.356   1.724
 8693TIP3   OH226035   6.575   6.251   5.582
 8693TIP3    H126036   6.498   6.237   5.527
 8693TIP3    H226037   6.573   6.180   5.646
 8694TIP3   OH226038   3.233   5.839   1.252
 8694TIP3    H126039   3.275   5.814   1.169
 8694TIP3    H226040   3.200   5.927   1.236
 8695TIP3   OH226041   7.086   0.831   4.158
 8695TIP3    H126042   7.073   0.738   4.136
 8695TIP3    H226043   7.115   0.870   4.076
 8696TIP3   OH226044   0.343   0.576   0.223
 8696TIP3    H126045   0.323   0.588   0.130
 8696TIP3    H226046   0.383   0.658   0.250
 8697TIP3   OH226047   1.907   4.722   1.024
 8697TIP3    H126048   1.958   4.712   1.105
 8697TIP3    H226049   1.860   4.640   1.016
 8698TIP3   OH226050   2.188   3.729   1.475
 8698TIP3    H126051   2.142   3.654   1.437
 8698TIP3    H226052   2.137   3.805   1.449
 8699TIP3   OH226053   0.881   1.032   1.393
 8699TIP3    H126054   0.819   1.099   1.422
 8699TIP3    H226055   0.900   1.055   1.302
 8700TIP3   OH226056   3.615   7.051   5.215
 8700TIP3    H126057   3.543   7.011   5.264
 8700TIP3    H226058   3.600   7.024   5.124
 8701TIP3   OH226059   4.298   2.408   6.371
 8701TIP3    H126060   4.365   2.405   6.439
 8701TIP3    H226061   4.239   2.478   6.397
 8702TIP3   OH226062   3.470   6.664   3.164
 8702TIP3    H126063   3.383   6.694   3.189
 8702TIP3    H226064   3.493   6.599   3.231
 8703TIP3   OH226065   3.742   2.437   4.030
 8703TIP3    H126066   3.729   2.419   3.937
 8703TIP3    H226067   3.664   2.485   4.057
 8704TIP3   OH226068   0.474   3.488   4.145
 8704TIP3    H126069   0.527   3.434   4.087
 8704TIP3    H226070   0.524   3.569   4.155
 8705TIP3   OH226071   6.524   6.624   5.176
 8705TIP3    H126072   6.586   6.579   5.234
 8705TIP3    H226073   6.577   6.690   5.131
 8706TIP3   OH226074   3.766   1.874   5.491
 8706TIP3    H126075   3.680   1.867   5.534
 8706TIP3    H226076   3.829   1.856   5.560
 8707TIP3   OH226077   6.172   5.928   1.627
 8707TIP3    H126078   6.222   5.994   1.578
 8707TIP3    H226079   6.239   5.872   1.666
 8708TIP3   OH226080   2.869   5.731   6.208
 8708TIP3    H126081   2.779   5.726   6.240
 8708TIP3    H226082   2.912   5.794   6.266
 8709TIP3   OH226083   6.549   3.501   2.829
 8709TIP3    H126084   6.521   3.586   2.862
 8709TIP3    H226085   6.549   3.443   2.905
 8710TIP3   OH226086   2.718   6.958   4.364
 8710TIP3    H126087   2.643   6.966   4.423
 8710TIP3    H226088   2.700   7.020   4.293
 8711TIP3   OH226089   3.583   2.248   1.569
 8711TIP3    H126090   3.572   2.284   1.657
 8711TIP3    H226091   3.495   2.243   1.533
 8712TIP3   OH226092   4.364   7.856   4.319
 8712TIP3    H126093   4.408   7.935   4.352
 8712TIP3    H226094   4.371   7.863   4.224
 8713TIP3   OH226095   7.336   7.709   5.253
 8713TIP3    H126096   7.273   7.724   5.323
 8713TIP3    H226097   7.292   7.740   5.174
 8714TIP3   OH226098   0.921   6.978   6.456
 8714TIP3    H126099   0.862   7.047   6.487
 8714TIP3    H226100   0.949   6.932   6.536
 8715TIP3   OH226101   5.815   5.337   1.858
 8715TIP3    H126102   5.897   5.290   1.872
 8715TIP3    H226103   5.840   5.413   1.805
 8716TIP3   OH226104   1.152   1.134   5.632
 8716TIP3    H126105   1.229   1.118   5.687
 8716TIP3    H226106   1.096   1.190   5.686
 8717TIP3   OH226107   1.540   3.810   2.685
 8717TIP3    H126108   1.475   3.750   2.647
 8717TIP3    H226109   1.624   3.771   2.661
 8718TIP3   OH226110   4.743   2.055   0.610
 8718TIP3    H126111   4.722   1.969   0.574
 8718TIP3    H226112   4.682   2.115   0.566
 8719TIP3   OH226113   5.132   3.883   2.917
 8719TIP3    H126114   5.079   3.892   2.838
 8719TIP3    H226115   5.221   3.908   2.889
 8720TIP3   OH226116   2.911   0.787   0.359
 8720TIP3    H126117   2.968   0.829   0.424
 8720TIP3    H226118   2.824   0.820   0.379
 8721TIP3   OH226119   1.428   6.980   0.289
 8721TIP3    H126120   1.449   6.902   0.339
 8721TIP3    H226121   1.412   6.948   0.200
 8722TIP3   OH226122   2.346   1.224   1.612
 8722TIP3    H126123   2.410   1.281   1.655
 8722TIP3    H226124   2.385   1.137   1.615
 8723TIP3   OH226125   6.130   4.168   0.007
 8723TIP3    H126126   6.058   4.211  -0.041
 8723TIP3    H226127   6.093   4.085   0.036
 8724TIP3   OH226128   6.848   4.382   6.619
 8724TIP3    H126129   6.800   4.464   6.628
 8724TIP3    H226130   6.890   4.369   6.704
 8725TIP3   OH226131   7.800   2.824   2.835
 8725TIP3    H126132   7.817   2.855   2.924
 8725TIP3    H226133   7.864   2.870   2.780
 8726TIP3   OH226134   5.887   5.799   2.670
 8726TIP3    H126135   5.960   5.757   2.715
 8726TIP3    H226136   5.928   5.868   2.617
 8727TIP3   OH226137   5.191   2.202   0.772
 8727TIP3    H126138   5.172   2.241   0.687
 8727TIP3    H226139   5.109   2.206   0.820
 8728TIP3   OH226140   5.763   1.973   4.882
 8728TIP3    H126141   5.681   2.004   4.844
 8728TIP3    H226142   5.831   2.014   4.829
 8729TIP3   OH226143   2.301   0.782   3.387
 8729TIP3    H126144   2.392   0.809   3.396
 8729TIP3    H226145   2.283   0.788   3.294
 8730TIP3   OH226146   6.457   6.632   0.244
 8730TIP3    H126147   6.442   6.553   0.296
 8730TIP3    H226148   6.375   6.682   0.252
 8731TIP3   OH226149   6.313   3.582   5.776
 8731TIP3    H126150   6.331   3.488   5.781
 8731TIP3    H226151   6.400   3.623   5.778
 8732TIP3   OH226152   4.808   5.107   4.635
 8732TIP3    H126153   4.792   5.200   4.624
 8732TIP3    H226154   4.748   5.080   4.705
 8733TIP3   OH226155   2.220   7.760   0.320
 8733TIP3    H126156   2.253   7.711   0.245
 8733TIP3    H226157   2.297   7.773   0.376
 8734TIP3   OH226158   7.954   7.456   4.363
 8734TIP3    H126159   7.972   7.450   4.457
 8734TIP3    H226160   7.986   7.373   4.327
 8735TIP3   OH226161   2.960   2.214   3.319
 8735TIP3    H126162   3.017   2.253   3.252
 8735TIP3    H226163   2.963   2.120   3.302
 8736TIP3   OH226164   8.161   0.663   6.311
 8736TIP3    H126165   8.141   0.649   6.403
 8736TIP3    H226166   8.256   0.660   6.305
 8737TIP3   OH226167   7.278   1.715   1.153
 8737TIP3    H126168   7.294   1.637   1.100
 8737TIP3    H226169   7.271   1.682   1.243
 8738TIP3   OH226170   7.018   4.279   2.835
 8738TIP3    H126171   7.032   4.205   2.776
 8738TIP3    H226172   6.998   4.239   2.919
 8739TIP3   OH226173   4.912   6.708   3.251
 8739TIP3    H126174   4.863   6.628   3.270
 8739TIP3    H226175   5.002   6.679   3.239
 8740TIP3   OH226176   2.754   0.970   3.716
 8740TIP3    H126177   2.770   1.042   3.776
 8740TIP3    H226178   2.809   0.989   3.640
 8741TIP3   OH226179   3.519   3.267   2.303
 8741TIP3    H126180   3.576   3.339   2.333
 8741TIP3    H226181   3.553   3.243   2.218
 8742TIP3   OH226182   6.175   3.822   5.685
 8742TIP3    H126183   6.153   3.851   5.774
 8742TIP3    H226184   6.236   3.749   5.698
 8743TIP3   OH226185   0.271   3.552   1.166
 8743TIP3    H126186   0.196   3.600   1.198
 8743TIP3    H226187   0.245   3.521   1.079
 8744TIP3   OH226188   0.302   4.533   0.532
 8744TIP3    H126189   0.266   4.445   0.522
 8744TIP3    H226190   0.239   4.590   0.487
 8745TIP3   OH226191   8.116   1.407   2.609
 8745TIP3    H126192   8.077   1.495   2.609
 8745TIP3    H226193   8.198   1.418   2.561
 8746TIP3   OH226194   0.048   1.630   2.320
 8746TIP3    H126195   0.061   1.597   2.409
 8746TIP3    H226196   0.032   1.723   2.330
 8747TIP3   OH226197   4.871   6.237   4.916
 8747TIP3    H126198   4.833   6.319   4.948
 8747TIP3    H226199   4.957   6.262   4.882
 8748TIP3   OH226200   2.699   2.328   0.110
 8748TIP3    H126201   2.791   2.343   0.084
 8748TIP3    H226202   2.648   2.356   0.034
 8749TIP3   OH226203   0.086   0.670   3.812
 8749TIP3    H126204   0.052   0.600   3.757
 8749TIP3    H226205   0.085   0.633   3.901
 8750TIP3   OH226206   1.460   0.643   0.691
 8750TIP3    H126207   1.410   0.577   0.643
 8750TIP3    H226208   1.525   0.592   0.740
 8751TIP3   OH226209   5.848   6.037   4.269
 8751TIP3    H126210   5.809   6.019   4.184
 8751TIP3    H226211   5.779   6.017   4.332
 8752TIP3   OH226212   5.851   3.556   4.448
 8752TIP3    H126213   5.770   3.570   4.399
 8752TIP3    H226214   5.900   3.638   4.439
 8753TIP3   OH226215   1.907   4.138   3.174
 8753TIP3    H126216   1.893   4.044   3.167
 8753TIP3    H226217   1.828   4.177   3.136
 8754TIP3   OH226218   5.004   0.357   2.743
 8754TIP3    H126219   4.943   0.385   2.675
 8754TIP3    H226220   4.992   0.421   2.814
 8755TIP3   OH226221   6.579   2.012   1.927
 8755TIP3    H126222   6.566   2.094   1.974
 8755TIP3    H226223   6.668   1.986   1.948
 8756TIP3   OH226224   4.990   0.093   5.090
 8756TIP3    H126225   4.952   0.038   5.022
 8756TIP3    H226226   4.992   0.181   5.051
 8757TIP3   OH226227   5.518   5.459   1.126
 8757TIP3    H126228   5.552   5.541   1.092
 8757TIP3    H226229   5.484   5.413   1.049
 8758TIP3   OH226230   1.291   4.736   0.979
 8758TIP3    H126231   1.253   4.648   0.976
 8758TIP3    H226232   1.354   4.732   1.050
 8759TIP3   OH226233   1.452   5.954   0.638
 8759TIP3    H126234   1.442   6.043   0.672
 8759TIP3    H226235   1.406   5.954   0.554
 8760TIP3   OH226236   2.527   3.833   2.996
 8760TIP3    H126237   2.611   3.789   3.014
 8760TIP3    H226238   2.469   3.801   3.065
 8761TIP3   OH226239   7.563   7.273   6.174
 8761TIP3    H126240   7.505   7.223   6.117
 8761TIP3    H226241   7.504   7.326   6.228
 8762TIP3   OH226242   6.918   3.386   0.490
 8762TIP3    H126243   6.900   3.420   0.578
 8762TIP3    H226244   7.010   3.360   0.492
 8763TIP3   OH226245   4.639   3.540   6.667
 8763TIP3    H126246   4.720   3.491   6.683
 8763TIP3    H226247   4.599   3.548   6.754
 8764TIP3   OH226248   7.947   3.367   6.733
 8764TIP3    H126249   7.903   3.299   6.682
 8764TIP3    H226250   7.990   3.421   6.668
 8765TIP3   OH226251   1.600   4.970   3.890
 8765TIP3    H126252   1.660   4.896   3.883
 8765TIP3    H226253   1.526   4.937   3.940
 8766TIP3   OH226254   6.972   5.336   1.666
 8766TIP3    H126255   7.041   5.334   1.732
 8766TIP3    H226256   6.989   5.261   1.610
 8767TIP3   OH226257   0.777   6.253   2.971
 8767TIP3    H126258   0.703   6.297   2.929
 8767TIP3    H226259   0.752   6.161   2.973
 8768TIP3   OH226260   4.290   3.489   4.006
 8768TIP3    H126261   4.300   3.482   4.101
 8768TIP3    H226262   4.369   3.449   3.970
 8769TIP3   OH226263   0.010   3.566   4.102
 8769TIP3    H126264   0.056   3.575   4.186
 8769TIP3    H226265   0.067   3.510   4.049
 8770TIP3   OH226266   6.927   1.233   6.485
 8770TIP3    H126267   6.942   1.174   6.560
 8770TIP3    H226268   6.883   1.178   6.420
 8771TIP3   OH226269   5.112   0.499   1.255
 8771TIP3    H126270   5.146   0.453   1.178
 8771TIP3    H226271   5.062   0.432   1.302
 8772TIP3   OH226272   4.403   2.171   5.553
 8772TIP3    H126273   4.322   2.173   5.603
 8772TIP3    H226274   4.454   2.245   5.587
 8773TIP3   OH226275   8.248   5.309   2.580
 8773TIP3    H126276   8.288   5.337   2.497
 8773TIP3    H226277   8.299   5.232   2.606
 8774TIP3   OH226278   2.768   6.726   1.652
 8774TIP3    H126279   2.782   6.725   1.557
 8774TIP3    H226280   2.771   6.818   1.676
 8775TIP3   OH226281   5.214   6.504   1.257
 8775TIP3    H126282   5.301   6.478   1.287
 8775TIP3    H226283   5.189   6.575   1.316
 8776TIP3   OH226284   0.726   7.560   3.496
 8776TIP3    H126285   0.794   7.600   3.442
 8776TIP3    H226286   0.747   7.466   3.494
 8777TIP3   OH226287   4.224   3.631   3.672
 8777TIP3    H126288   4.276   3.690   3.726
 8777TIP3    H226289   4.166   3.587   3.735
 8778TIP3   OH226290   7.520   0.206   6.639
 8778TIP3    H126291   7.512   0.293   6.602
 8778TIP3    H226292   7.523   0.147   6.563
 8779TIP3   OH226293   5.953   4.894   1.720
 8779TIP3    H126294   6.017   4.839   1.766
 8779TIP3    H226295   5.970   4.982   1.753
 8780TIP3   OH226296   3.229   4.303   6.614
 8780TIP3    H126297   3.240   4.222   6.664
 8780TIP3    H226298   3.251   4.278   6.524
 8781TIP3   OH226299   3.351   1.394   0.771
 8781TIP3    H126300   3.433   1.386   0.722
 8781TIP3    H226301   3.288   1.343   0.721
 8782TIP3   OH226302   7.038   6.819   3.745
 8782TIP3    H126303   7.061   6.759   3.674
 8782TIP3    H226304   6.957   6.784   3.781
 8783TIP3   OH226305   0.841   1.088   3.731
 8783TIP3    H126306   0.907   1.044   3.783
 8783TIP3    H226307   0.770   1.024   3.724
 8784TIP3   OH226308   4.345   4.903   6.190
 8784TIP3    H126309   4.376   4.848   6.117
 8784TIP3    H226310   4.404   4.882   6.262
 8785TIP3   OH226311   7.344   0.772   0.269
 8785TIP3    H126312   7.435   0.764   0.241
 8785TIP3    H226313   7.320   0.862   0.250
 8786TIP3   OH226314   0.264   3.534   3.522
 8786TIP3    H126315   0.188   3.515   3.577
 8786TIP3    H226316   0.250   3.482   3.443
 8787TIP3   OH226317   3.929   0.265   5.910
 8787TIP3    H126318   3.991   0.250   5.839
 8787TIP3    H226319   3.961   0.211   5.982
 8788TIP3   OH226320   7.503   6.573   6.696
 8788TIP3    H126321   7.557   6.650   6.717
 8788TIP3    H226322   7.425   6.610   6.653
 8789TIP3   OH226323   5.589   7.325   5.305
 8789TIP3    H126324   5.639   7.247   5.327
 8789TIP3    H226325   5.567   7.315   5.213
 8790TIP3   OH226326   7.241   3.107   2.012
 8790TIP3    H126327   7.175   3.132   2.077
 8790TIP3    H226328   7.196   3.049   1.951
 8791TIP3   OH226329   7.503   4.129   4.564
 8791TIP3    H126330   7.456   4.110   4.483
 8791TIP3    H226331   7.435   4.134   4.631
 8792TIP3   OH226332   5.715   0.261   4.119
 8792TIP3    H126333   5.623   0.254   4.145
 8792TIP3    H226334   5.759   0.302   4.193
 8793TIP3   OH226335   7.903   7.180   5.041
 8793TIP3    H126336   7.846   7.254   5.063
 8793TIP3    H226337   7.934   7.199   4.953
 8794TIP3   OH226338   2.601   4.593   0.720
 8794TIP3    H126339   2.564   4.509   0.748
 8794TIP3    H226340   2.600   4.648   0.798
 8795TIP3   OH226341   0.679   0.969   4.451
 8795TIP3    H126342   0.770   0.959   4.477
 8795TIP3    H226343   0.633   0.898   4.497
 8796TIP3   OH226344   2.945   7.437   2.698
 8796TIP3    H126345   2.901   7.489   2.631
 8796TIP3    H226346   2.973   7.500   2.764
 8797TIP3   OH226347   3.209   1.298   4.381
 8797TIP3    H126348   3.228   1.347   4.461
 8797TIP3    H226349   3.181   1.212   4.411
 8798TIP3   OH226350   8.278   5.995   6.347
 8798TIP3    H126351   8.261   5.901   6.343
 8798TIP3    H226352   8.369   6.002   6.375
 8799TIP3   OH226353   7.834   7.588   3.082
 8799TIP3    H126354   7.875   7.503   3.063
 8799TIP3    H226355   7.757   7.590   3.025
 8800TIP3   OH226356   0.893   1.075   2.462
 8800TIP3    H126357   0.804   1.041   2.467
 8800TIP3    H226358   0.887   1.152   2.405
 8801TIP3   OH226359   8.174   1.363   4.365
 8801TIP3    H126360   8.151   1.299   4.298
 8801TIP3    H226361   8.268   1.374   4.356
 8802TIP3   OH226362   6.898   5.968   0.174
 8802TIP3    H126363   6.913   6.010   0.259
 8802TIP3    H226364   6.979   5.920   0.156
 8803TIP3   OH226365   7.614   2.496   0.116
 8803TIP3    H126366   7.701   2.491   0.156
 8803TIP3    H226367   7.613   2.581   0.072
 8804TIP3   OH226368   0.105   4.696   5.335
 8804TIP3    H126369   0.139   4.641   5.264
 8804TIP3    H226370   0.080   4.778   5.292
 8805TIP3   OH226371   5.264   6.471   0.002
 8805TIP3    H126372   5.209   6.548   0.013
 8805TIP3    H226373   5.279   6.466  -0.093
 8806TIP3   OH226374   7.949   2.685   2.443
 8806TIP3    H126375   8.011   2.751   2.473
 8806TIP3    H226376   7.975   2.666   2.353
 8807TIP3   OH226377   2.793   6.868   3.440
 8807TIP3    H126378   2.815   6.882   3.348
 8807TIP3    H226379   2.733   6.939   3.463
 8808TIP3   OH226380   4.743   0.129   2.109
 8808TIP3    H126381   4.691   0.202   2.142
 8808TIP3    H226382   4.774   0.085   2.188
 8809TIP3   OH226383   3.460   4.762   3.933
 8809TIP3    H126384   3.455   4.830   4.000
 8809TIP3    H226385   3.489   4.684   3.979
 8810TIP3   OH226386   3.249   7.159   5.286
 8810TIP3    H126387   3.263   7.145   5.192
 8810TIP3    H226388   3.184   7.093   5.310
 8811TIP3   OH226389   2.271   6.756   1.801
 8811TIP3    H126390   2.203   6.751   1.734
 8811TIP3    H226391   2.349   6.719   1.759
 8812TIP3   OH226392   6.824   6.472   5.936
 8812TIP3    H126393   6.810   6.378   5.938
 8812TIP3    H226394   6.759   6.504   5.873
 8813TIP3   OH226395   6.832   0.354   3.965
 8813TIP3    H126396   6.781   0.436   3.964
 8813TIP3    H226397   6.895   0.365   3.894
 8814TIP3   OH226398   7.729   3.132   2.725
 8814TIP3    H126399   7.752   3.088   2.643
 8814TIP3    H226400   7.811   3.137   2.773
 8815TIP3   OH226401   7.350   0.064   6.026
 8815TIP3    H126402   7.389   0.010   6.095
 8815TIP3    H226403   7.422   0.078   5.964
 8816TIP3   OH226404   4.496   3.585   1.959
 8816TIP3    H126405   4.493   3.676   1.930
 8816TIP3    H226406   4.409   3.550   1.938
 8817TIP3   OH226407   2.614   1.100   0.417
 8817TIP3    H126408   2.678   1.114   0.347
 8817TIP3    H226409   2.641   1.160   0.487
 8818TIP3   OH226410   2.506   4.960   5.568
 8818TIP3    H126411   2.456   4.982   5.646
 8818TIP3    H226412   2.538   4.871   5.583
 8819TIP3   OH226413   3.716   2.478   0.011
 8819TIP3    H126414   3.627   2.462  -0.020
 8819TIP3    H226415   3.705   2.517   0.098
 8820TIP3   OH226416   7.476   6.265   0.702
 8820TIP3    H126417   7.420   6.187   0.697
 8820TIP3    H226418   7.498   6.284   0.611
 8821TIP3   OH226419   3.124   6.818   4.270
 8821TIP3    H126420   3.128   6.726   4.296
 8821TIP3    H226421   3.044   6.824   4.218
 8822TIP3   OH226422   0.795   1.965   5.385
 8822TIP3    H126423   0.728   1.903   5.354
 8822TIP3    H226424   0.821   1.931   5.471
 8823TIP3   OH226425   1.267   1.640   0.128
 8823TIP3    H126426   1.178   1.650   0.163
 8823TIP3    H226427   1.293   1.729   0.104
 8824TIP3   OH226428   4.957   4.565   2.635
 8824TIP3    H126429   4.960   4.471   2.654
 8824TIP3    H226430   5.034   4.601   2.678
 8825TIP3   OH226431   5.052   5.463   4.078
 8825TIP3    H126432   5.038   5.493   4.168
 8825TIP3    H226433   5.044   5.368   4.084
 8826TIP3   OH226434   3.643   2.615   3.186
 8826TIP3    H126435   3.665   2.630   3.094
 8826TIP3    H226436   3.703   2.546   3.214
 8827TIP3   OH226437   8.305   6.558   0.663
 8827TIP3    H126438   8.235   6.589   0.606
 8827TIP3    H226439   8.271   6.476   0.701
 8828TIP3   OH226440   4.494   7.673   3.226
 8828TIP3    H126441   4.505   7.659   3.320
 8828TIP3    H226442   4.454   7.761   3.220
 8829TIP3   OH226443   7.810   6.940   1.487
 8829TIP3    H126444   7.807   7.015   1.546
 8829TIP3    H226445   7.754   6.965   1.413
 8830TIP3   OH226446   3.960   3.333   2.818
 8830TIP3    H126447   4.051   3.312   2.841
 8830TIP3    H226448   3.908   3.271   2.869
 8831TIP3   OH226449   6.295   4.002   5.251
 8831TIP3    H126450   6.341   4.058   5.314
 8831TIP3    H226451   6.358   3.933   5.230
 8832TIP3   OH226452   0.466   5.335   4.876
 8832TIP3    H126453   0.515   5.316   4.957
 8832TIP3    H226454   0.511   5.412   4.839
 8833TIP3   OH226455   6.913   4.313   4.039
 8833TIP3    H126456   6.833   4.272   4.007
 8833TIP3    H226457   6.906   4.405   4.012
 8834TIP3   OH226458   3.522   6.377   4.160
 8834TIP3    H126459   3.563   6.383   4.074
 8834TIP3    H226460   3.596   6.380   4.221
 8835TIP3   OH226461   3.859   2.140   5.464
 8835TIP3    H126462   3.795   2.069   5.454
 8835TIP3    H226463   3.936   2.098   5.503
 8836TIP3   OH226464   2.367   3.069   6.635
 8836TIP3    H126465   2.352   3.011   6.561
 8836TIP3    H226466   2.410   3.014   6.701
 8837TIP3   OH226467   2.128   6.272   6.653
 8837TIP3    H126468   2.134   6.290   6.747
 8837TIP3    H226469   2.039   6.300   6.630
 8838TIP3   OH226470   7.195   5.510   3.705
 8838TIP3    H126471   7.288   5.514   3.729
 8838TIP3    H226472   7.178   5.593   3.661
 8839TIP3   OH226473   3.164   2.789   3.478
 8839TIP3    H126474   3.185   2.801   3.386
 8839TIP3    H226475   3.213   2.711   3.504
 8840TIP3   OH226476   0.906   0.545   5.809
 8840TIP3    H126477   0.855   0.481   5.761
 8840TIP3    H226478   0.967   0.493   5.861
 8841TIP3   OH226479   5.064   0.583   4.587
 8841TIP3    H126480   5.142   0.589   4.643
 8841TIP3    H226481   5.045   0.489   4.583
 8842TIP3   OH226482   5.761   6.951   1.442
 8842TIP3    H126483   5.671   6.923   1.457
 8842TIP3    H226484   5.753   7.029   1.386
 8843TIP3   OH226485   8.146   5.655   0.291
 8843TIP3    H126486   8.217   5.646   0.354
 8843TIP3    H226487   8.087   5.582   0.313
 8844TIP3   OH226488   6.091   5.312   4.586
 8844TIP3    H126489   6.050   5.287   4.503
 8844TIP3    H226490   6.127   5.230   4.620
 8845TIP3   OH226491   5.144   3.933   2.011
 8845TIP3    H126492   5.085   3.931   1.936
 8845TIP3    H226493   5.092   3.898   2.084
 8846TIP3   OH226494   4.880   3.841   6.474
 8846TIP3    H126495   4.884   3.884   6.389
 8846TIP3    H226496   4.863   3.749   6.454
 8847TIP3   OH226497   1.361   5.600   5.074
 8847TIP3    H126498   1.356   5.653   5.154
 8847TIP3    H226499   1.439   5.545   5.087
 8848TIP3   OH226500   2.292   2.459   3.468
 8848TIP3    H126501   2.387   2.448   3.480
 8848TIP3    H226502   2.269   2.527   3.532
 8849TIP3   OH226503   6.426   7.267   0.490
 8849TIP3    H126504   6.483   7.330   0.533
 8849TIP3    H226505   6.345   7.270   0.541
 8850TIP3   OH226506   2.576   3.590   2.071
 8850TIP3    H126507   2.573   3.673   2.024
 8850TIP3    H226508   2.669   3.566   2.069
 8851TIP3   OH226509   5.187   0.816   2.469
 8851TIP3    H126510   5.203   0.803   2.563
 8851TIP3    H226511   5.119   0.752   2.447
 8852TIP3   OH226512   5.825   3.120   0.434
 8852TIP3    H126513   5.773   3.104   0.355
 8852TIP3    H226514   5.803   3.210   0.459
 8853TIP3   OH226515   6.627   0.394   5.075
 8853TIP3    H126516   6.666   0.476   5.105
 8853TIP3    H226517   6.652   0.329   5.141
 8854TIP3   OH226518   5.188   5.589   3.035
 8854TIP3    H126519   5.232   5.556   2.957
 8854TIP3    H226520   5.250   5.574   3.106
 8855TIP3   OH226521   7.885   5.034   3.209
 8855TIP3    H126522   7.808   5.027   3.152
 8855TIP3    H226523   7.898   5.128   3.221
 8856TIP3   OH226524   2.677   2.265   4.823
 8856TIP3    H126525   2.638   2.273   4.910
 8856TIP3    H226526   2.718   2.179   4.823
 8857TIP3   OH226527   3.489   4.425   0.106
 8857TIP3    H126528   3.487   4.330   0.098
 8857TIP3    H226529   3.563   4.443   0.164
 8858TIP3   OH226530   8.036   0.462   2.809
 8858TIP3    H126531   7.983   0.472   2.889
 8858TIP3    H226532   7.979   0.494   2.739
 8859TIP3   OH226533   0.374   6.841   3.206
 8859TIP3    H126534   0.347   6.926   3.170
 8859TIP3    H226535   0.311   6.778   3.171
 8860TIP3   OH226536   0.401   6.832   2.723
 8860TIP3    H126537   0.377   6.920   2.754
 8860TIP3    H226538   0.480   6.846   2.671
 8861TIP3   OH226539   1.431   0.923   5.357
 8861TIP3    H126540   1.428   0.852   5.293
 8861TIP3    H226541   1.342   0.928   5.392
 8862TIP3   OH226542   0.828   5.291   1.709
 8862TIP3    H126543   0.825   5.223   1.641
 8862TIP3    H226544   0.737   5.319   1.718
 8863TIP3   OH226545   2.363   6.180   0.573
 8863TIP3    H126546   2.305   6.127   0.518
 8863TIP3    H226547   2.310   6.203   0.649
 8864TIP3   OH226548   4.094   3.889   3.024
 8864TIP3    H126549   4.069   3.822   3.088
 8864TIP3    H226550   4.167   3.849   2.976
 8865TIP3   OH226551   2.827   4.069   5.574
 8865TIP3    H126552   2.906   4.037   5.531
 8865TIP3    H226553   2.756   4.045   5.514
 8866TIP3   OH226554   6.587   1.686   2.519
 8866TIP3    H126555   6.511   1.667   2.463
 8866TIP3    H226556   6.662   1.684   2.460
 8867TIP3   OH226557   3.805   0.354   2.401
 8867TIP3    H126558   3.786   0.283   2.339
 8867TIP3    H226559   3.837   0.426   2.347
 8868TIP3   OH226560   4.968   2.045   3.307
 8868TIP3    H126561   5.006   2.011   3.226
 8868TIP3    H226562   4.882   2.005   3.313
 8869TIP3   OH226563   2.615   2.816   4.332
 8869TIP3    H126564   2.536   2.869   4.341
 8869TIP3    H226565   2.582   2.729   4.306
 8870TIP3   OH226566   8.183   3.863   3.146
 8870TIP3    H126567   8.184   3.776   3.184
 8870TIP3    H226568   8.210   3.850   3.055
 8871TIP3   OH226569   7.258   1.894   3.011
 8871TIP3    H126570   7.325   1.911   3.078
 8871TIP3    H226571   7.267   1.966   2.949
 8872TIP3   OH226572   0.610   7.379   6.064
 8872TIP3    H126573   0.536   7.439   6.068
 8872TIP3    H226574   0.687   7.434   6.073
 8873TIP3   OH226575   7.363   1.956   4.219
 8873TIP3    H126576   7.397   1.869   4.202
 8873TIP3    H226577   7.372   2.003   4.136
 8874TIP3   OH226578   4.020   6.603   0.618
 8874TIP3    H126579   3.930   6.614   0.588
 8874TIP3    H226580   4.013   6.543   0.692
 8875TIP3   OH226581   3.516   1.899   5.616
 8875TIP3    H126582   3.466   1.924   5.538
 8875TIP3    H226583   3.489   1.961   5.683
 8876TIP3   OH226584   0.620   7.179   2.939
 8876TIP3    H126585   0.692   7.190   2.878
 8876TIP3    H226586   0.641   7.236   3.013
 8877TIP3   OH226587   1.652   5.136   4.303
 8877TIP3    H126588   1.693   5.178   4.379
 8877TIP3    H226589   1.578   5.194   4.281
 8878TIP3   OH226590   7.524   2.915   5.686
 8878TIP3    H126591   7.556   2.826   5.701
 8878TIP3    H226592   7.567   2.943   5.605
 8879TIP3   OH226593   4.348   4.823   0.206
 8879TIP3    H126594   4.282   4.753   0.204
 8879TIP3    H226595   4.362   4.845   0.114
 8880TIP3   OH226596   8.133   2.107   4.094
 8880TIP3    H126597   8.198   2.037   4.107
 8880TIP3    H226598   8.145   2.165   4.169
 8881TIP3   OH226599   0.903   1.358   2.787
 8881TIP3    H126600   0.822   1.307   2.786
 8881TIP3    H226601   0.895   1.417   2.712
 8882TIP3   OH226602   1.963   5.301   6.606
 8882TIP3    H126603   1.981   5.382   6.558
 8882TIP3    H226604   1.871   5.282   6.587
 8883TIP3   OH226605   6.422   7.194   0.823
 8883TIP3    H126606   6.428   7.123   0.759
 8883TIP3    H226607   6.509   7.200   0.861
 8884TIP3   OH226608   5.460   0.873   3.854
 8884TIP3    H126609   5.391   0.885   3.919
 8884TIP3    H226610   5.435   0.931   3.782
 8885TIP3   OH226611   1.768   6.258   4.951
 8885TIP3    H126612   1.747   6.258   5.044
 8885TIP3    H226613   1.688   6.288   4.908
 8886TIP3   OH226614   3.711   5.751   1.879
 8886TIP3    H126615   3.779   5.809   1.913
 8886TIP3    H226616   3.757   5.668   1.863
 8887TIP3   OH226617   1.816   0.330   3.679
 8887TIP3    H126618   1.854   0.297   3.761
 8887TIP3    H226619   1.776   0.253   3.639
 8888TIP3   OH226620   6.775   0.601   3.239
 8888TIP3    H126621   6.736   0.525   3.282
 8888TIP3    H226622   6.793   0.662   3.310
 8889TIP3   OH226623   7.820   2.430   5.227
 8889TIP3    H126624   7.788   2.350   5.268
 8889TIP3    H226625   7.915   2.418   5.222
 8890TIP3   OH226626   4.292   7.742   0.272
 8890TIP3    H126627   4.334   7.783   0.196
 8890TIP3    H226628   4.220   7.800   0.295
 8891TIP3   OH226629   2.600   2.480   3.499
 8891TIP3    H126630   2.602   2.565   3.541
 8891TIP3    H226631   2.623   2.418   3.568
 8892TIP3   OH226632   0.607   0.128   4.266
 8892TIP3    H126633   0.691   0.082   4.259
 8892TIP3    H226634   0.584   0.122   4.359
 8893TIP3   OH226635   2.398   6.641   4.426
 8893TIP3    H126636   2.347   6.615   4.350
 8893TIP3    H226637   2.347   6.611   4.501
 8894TIP3   OH226638   0.736   4.758   2.439
 8894TIP3    H126639   0.746   4.742   2.532
 8894TIP3    H226640   0.816   4.725   2.399
 8895TIP3   OH226641   2.767   4.125   6.164
 8895TIP3    H126642   2.683   4.130   6.210
 8895TIP3    H226643   2.785   4.031   6.157
 8896TIP3   OH226644   2.500   4.379   6.436
 8896TIP3    H126645   2.573   4.382   6.499
 8896TIP3    H226646   2.500   4.289   6.403
 8897TIP3   OH226647   3.100   5.090   3.475
 8897TIP3    H126648   3.052   5.091   3.392
 8897TIP3    H226649   3.175   5.147   3.459
 8898TIP3   OH226650   2.925   7.688   6.073
 8898TIP3    H126651   2.873   7.625   6.023
 8898TIP3    H226652   2.947   7.757   6.010
 8899TIP3   OH226653   0.586   3.826   5.309
 8899TIP3    H126654   0.549   3.745   5.346
 8899TIP3    H226655   0.581   3.889   5.381
 8900TIP3   OH226656   3.142   4.939   0.988
 8900TIP3    H126657   3.074   4.876   0.966
 8900TIP3    H226658   3.118   4.970   1.076
 8901TIP3   OH226659   7.364   4.192   1.873
 8901TIP3    H126660   7.329   4.104   1.856
 8901TIP3    H226661   7.378   4.194   1.968
 8902TIP3   OH226662   6.134   7.837   2.003
 8902TIP3    H126663   6.217   7.810   2.043
 8902TIP3    H226664   6.068   7.822   2.070
 8903TIP3   OH226665   6.365   6.672   6.136
 8903TIP3    H126666   6.452   6.691   6.169
 8903TIP3    H226667   6.372   6.586   6.095
 8904TIP3   OH226668   4.094   0.139   6.652
 8904TIP3    H126669   4.082   0.215   6.709
 8904TIP3    H226670   4.009   0.094   6.654
 8905TIP3   OH226671   4.964   6.788   0.436
 8905TIP3    H126672   4.895   6.740   0.390
 8905TIP3    H226673   4.988   6.859   0.376
 8906TIP3   OH226674   4.761   5.287   3.512
 8906TIP3    H126675   4.794   5.212   3.561
 8906TIP3    H226676   4.677   5.308   3.553
 8907TIP3   OH226677   2.746   6.154   5.200
 8907TIP3    H126678   2.755   6.174   5.107
 8907TIP3    H226679   2.812   6.086   5.216
 8908TIP3   OH226680   1.685   0.061   0.299
 8908TIP3    H126681   1.621   0.133   0.302
 8908TIP3    H226682   1.749   0.083   0.367
 8909TIP3   OH226683   6.178   4.677   6.171
 8909TIP3    H126684   6.142   4.650   6.256
 8909TIP3    H226685   6.135   4.619   6.108
 8910TIP3   OH226686   2.065   3.767   2.954
 8910TIP3    H126687   2.150   3.769   2.911
 8910TIP3    H226688   2.008   3.818   2.896
 8911TIP3   OH226689   0.686   7.791   2.224
 8911TIP3    H126690   0.743   7.718   2.246
 8911TIP3    H226691   0.602   7.770   2.265
 8912TIP3   OH226692   3.184   7.178   3.687
 8912TIP3    H126693   3.126   7.104   3.674
 8912TIP3    H226694   3.270   7.139   3.703
 8913TIP3   OH226695   5.800   0.808   1.329
 8913TIP3    H126696   5.877   0.786   1.383
 8913TIP3    H226697   5.827   0.786   1.240
 8914TIP3   OH226698   3.393   6.264   6.595
 8914TIP3    H126699   3.335   6.260   6.519
 8914TIP3    H226700   3.478   6.291   6.559
 8915TIP3   OH226701   0.435   0.336   0.663
 8915TIP3    H126702   0.464   0.301   0.579
 8915TIP3    H226703   0.412   0.427   0.644
 8916TIP3   OH226704   3.186   4.735   0.763
 8916TIP3    H126705   3.094   4.710   0.763
 8916TIP3    H226706   3.193   4.801   0.833
 8917TIP3   OH226707   6.702   0.350   1.148
 8917TIP3    H126708   6.717   0.409   1.074
 8917TIP3    H226709   6.744   0.395   1.222
 8918TIP3   OH226710   6.723   2.500   3.270
 8918TIP3    H126711   6.728   2.488   3.175
 8918TIP3    H226712   6.636   2.468   3.294
 8919TIP3   OH226713   2.417   3.557   3.999
 8919TIP3    H126714   2.398   3.621   3.931
 8919TIP3    H226715   2.509   3.536   3.988
 8920TIP3   OH226716   0.460   2.524   1.674
 8920TIP3    H126717   0.497   2.436   1.680
 8920TIP3    H226718   0.452   2.553   1.765
 8921TIP3   OH226719   3.201   5.065   2.646
 8921TIP3    H126720   3.136   4.994   2.652
 8921TIP3    H226721   3.285   5.020   2.634
 8922TIP3   OH226722   8.100   6.718   4.806
 8922TIP3    H126723   8.016   6.731   4.763
 8922TIP3    H226724   8.089   6.637   4.856
 8923TIP3   OH226725   0.324   5.627   1.741
 8923TIP3    H126726   0.296   5.555   1.685
 8923TIP3    H226727   0.294   5.603   1.829
 8924TIP3   OH226728   7.668   4.967   0.394
 8924TIP3    H126729   7.732   4.963   0.464
 8924TIP3    H226730   7.709   4.921   0.320
 8925TIP3   OH226731   1.497   3.435   1.886
 8925TIP3    H126732   1.475   3.462   1.975
 8925TIP3    H226733   1.434   3.481   1.830
 8926TIP3   OH226734   4.158   2.645   5.494
 8926TIP3    H126735   4.184   2.671   5.406
 8926TIP3    H226736   4.240   2.644   5.544
 8927TIP3   OH226737   1.554   0.376   3.136
 8927TIP3    H126738   1.611   0.307   3.102
 8927TIP3    H226739   1.527   0.344   3.222
 8928TIP3   OH226740   5.906   2.948   5.939
 8928TIP3    H126741   5.908   2.853   5.927
 8928TIP3    H226742   5.874   2.961   6.028
 8929TIP3   OH226743   2.251   3.662   4.754
 8929TIP3    H126744   2.181   3.647   4.690
 8929TIP3    H226745   2.327   3.686   4.700
 8930TIP3   OH226746   8.083   0.616   4.936
 8930TIP3    H126747   8.025   0.579   5.002
 8930TIP3    H226748   8.045   0.702   4.916
 8931TIP3   OH226749   2.261   5.817   6.422
 8931TIP3    H126750   2.221   5.859   6.498
 8931TIP3    H226751   2.207   5.847   6.348
 8932TIP3   OH226752   4.382   5.672   1.257
 8932TIP3    H126753   4.315   5.739   1.270
 8932TIP3    H226754   4.380   5.654   1.163
 8933TIP3   OH226755   3.294   3.862   4.158
 8933TIP3    H126756   3.202   3.840   4.163
 8933TIP3    H226757   3.338   3.794   4.209
 8934TIP3   OH226758   0.675   1.161   1.991
 8934TIP3    H126759   0.632   1.099   1.932
 8934TIP3    H226760   0.610   1.230   2.005
 8935TIP3   OH226761   8.134   6.241   3.484
 8935TIP3    H126762   8.207   6.183   3.460
 8935TIP3    H226763   8.069   6.227   3.414
 8936TIP3   OH226764   6.777   3.789   5.199
 8936TIP3    H126765   6.700   3.823   5.153
 8936TIP3    H226766   6.742   3.759   5.283
 8937TIP3   OH226767   7.177   5.598   0.386
 8937TIP3    H126768   7.121   5.576   0.311
 8937TIP3    H226769   7.260   5.623   0.347
 8938TIP3   OH226770   5.302   3.696   6.450
 8938TIP3    H126771   5.283   3.790   6.456
 8938TIP3    H226772   5.221   3.656   6.418
 8939TIP3   OH226773   0.228   1.490   3.479
 8939TIP3    H126774   0.222   1.403   3.440
 8939TIP3    H226775   0.142   1.504   3.520
 8940TIP3   OH226776   2.402   0.583   2.465
 8940TIP3    H126777   2.472   0.637   2.429
 8940TIP3    H226778   2.328   0.643   2.476
 8941TIP3   OH226779   5.611   2.140   6.047
 8941TIP3    H126780   5.604   2.175   6.136
 8941TIP3    H226781   5.661   2.059   6.057
 8942TIP3   OH226782   4.120   5.902   4.813
 8942TIP3    H126783   4.068   5.834   4.855
 8942TIP3    H226784   4.152   5.955   4.886
 8943TIP3   OH226785   1.544   3.895   6.033
 8943TIP3    H126786   1.497   3.838   5.973
 8943TIP3    H226787   1.620   3.926   5.984
 8944TIP3   OH226788   2.200   7.093   0.978
 8944TIP3    H126789   2.266   7.034   0.941
 8944TIP3    H226790   2.121   7.039   0.986
 8945TIP3   OH226791   7.075   3.832   5.407
 8945TIP3    H126792   7.104   3.754   5.360
 8945TIP3    H226793   7.005   3.868   5.353
 8946TIP3   OH226794   5.356   4.345   4.706
 8946TIP3    H126795   5.430   4.343   4.644
 8946TIP3    H226796   5.350   4.256   4.739
 8947TIP3   OH226797   6.742   6.200   5.936
 8947TIP3    H126798   6.669   6.175   5.878
 8947TIP3    H226799   6.820   6.169   5.891
 8948TIP3   OH226800   5.528   1.570   4.988
 8948TIP3    H126801   5.524   1.523   5.072
 8948TIP3    H226802   5.461   1.528   4.934
 8949TIP3   OH226803   3.774   3.807   5.729
 8949TIP3    H126804   3.693   3.763   5.754
 8949TIP3    H226805   3.803   3.851   5.808
 8950TIP3   OH226806   8.000   0.769   3.142
 8950TIP3    H126807   7.921   0.737   3.097
 8950TIP3    H226808   8.035   0.836   3.083
 8951TIP3   OH226809   5.212   7.376   0.150
 8951TIP3    H126810   5.164   7.380   0.233
 8951TIP3    H226811   5.159   7.317   0.096
 8952TIP3   OH226812   6.946   5.398   6.133
 8952TIP3    H126813   6.914   5.441   6.212
 8952TIP3    H226814   7.031   5.361   6.159
 8953TIP3   OH226815   2.794   3.216   0.604
 8953TIP3    H126816   2.799   3.300   0.557
 8953TIP3    H226817   2.746   3.237   0.684
 8954TIP3   OH226818   4.911   1.269   0.504
 8954TIP3    H126819   4.939   1.227   0.422
 8954TIP3    H226820   4.837   1.217   0.534
 8955TIP3   OH226821   3.608   2.660   4.933
 8955TIP3    H126822   3.688   2.710   4.915
 8955TIP3    H226823   3.557   2.667   4.853
 8956TIP3   OH226824   6.591   2.238   2.712
 8956TIP3    H126825   6.614   2.177   2.642
 8956TIP3    H226826   6.530   2.189   2.767
 8957TIP3   OH226827   7.091   5.647   1.207
 8957TIP3    H126828   7.011   5.598   1.189
 8957TIP3    H226829   7.077   5.732   1.165
 8958TIP3   OH226830   4.078   5.222   0.902
 8958TIP3    H126831   4.093   5.182   0.817
 8958TIP3    H226832   4.042   5.151   0.956
 8959TIP3   OH226833   7.883   2.688   4.638
 8959TIP3    H126834   7.854   2.760   4.582
 8959TIP3    H226835   7.884   2.726   4.726
 8960TIP3   OH226836   5.519   7.521   2.767
 8960TIP3    H126837   5.469   7.451   2.809
 8960TIP3    H226838   5.571   7.559   2.838
 8961TIP3   OH226839   0.290   0.873   2.409
 8961TIP3    H126840   0.232   0.803   2.439
 8961TIP3    H226841   0.355   0.828   2.355
 8962TIP3   OH226842   2.664   7.427   4.341
 8962TIP3    H126843   2.753   7.393   4.351
 8962TIP3    H226844   2.613   7.379   4.407
 8963TIP3   OH226845   4.589   3.377   2.106
 8963TIP3    H126846   4.563   3.444   2.042
 8963TIP3    H226847   4.506   3.338   2.134
 8964TIP3   OH226848   3.682   5.095   0.219
 8964TIP3    H126849   3.756   5.138   0.261
 8964TIP3    H226850   3.627   5.067   0.293
 8965TIP3   OH226851   0.642   0.685   0.886
 8965TIP3    H126852   0.674   0.760   0.836
 8965TIP3    H226853   0.548   0.701   0.896
 8966TIP3   OH226854   4.241   3.242   3.801
 8966TIP3    H126855   4.315   3.301   3.812
 8966TIP3    H226856   4.169   3.285   3.845
 8967TIP3   OH226857   3.124   5.653   3.013
 8967TIP3    H126858   3.160   5.736   2.981
 8967TIP3    H226859   3.087   5.674   3.098
 8968TIP3   OH226860   4.187   5.477   2.876
 8968TIP3    H126861   4.251   5.451   2.942
 8968TIP3    H226862   4.228   5.550   2.829
 8969TIP3   OH226863   4.418   5.085   6.684
 8969TIP3    H126864   4.337   5.080   6.734
 8969TIP3    H226865   4.423   5.176   6.655
 8970TIP3   OH226866   5.192   1.205   5.748
 8970TIP3    H126867   5.109   1.180   5.788
 8970TIP3    H226868   5.236   1.122   5.729
 8971TIP3   OH226869   7.615   1.183   2.078
 8971TIP3    H126870   7.678   1.191   2.006
 8971TIP3    H226871   7.533   1.217   2.042
 8972TIP3   OH226872   2.365   1.945   0.282
 8972TIP3    H126873   2.448   1.993   0.274
 8972TIP3    H226874   2.300   2.014   0.293
 8973TIP3   OH226875   6.710   3.237   5.391
 8973TIP3    H126876   6.657   3.216   5.314
 8973TIP3    H226877   6.760   3.314   5.367
 8974TIP3   OH226878   4.802   2.025   6.431
 8974TIP3    H126879   4.892   1.991   6.429
 8974TIP3    H226880   4.750   1.957   6.388
 8975TIP3   OH226881   0.290   7.769   2.818
 8975TIP3    H126882   0.372   7.747   2.864
 8975TIP3    H226883   0.221   7.747   2.881
 8976TIP3   OH226884   3.237   0.696   1.449
 8976TIP3    H126885   3.225   0.694   1.544
 8976TIP3    H226886   3.180   0.626   1.416
 8977TIP3   OH226887   2.595   1.079   0.028
 8977TIP3    H126888   2.674   1.107   0.075
 8977TIP3    H226889   2.628   1.043  -0.054
 8978TIP3   OH226890   5.568   4.306   3.049
 8978TIP3    H126891   5.636   4.323   2.984
 8978TIP3    H226892   5.551   4.213   3.043
 8979TIP3   OH226893   4.894   2.641   6.589
 8979TIP3    H126894   4.955   2.705   6.624
 8979TIP3    H226895   4.817   2.692   6.564
 8980TIP3   OH226896   5.164   0.997   3.235
 8980TIP3    H126897   5.215   0.969   3.159
 8980TIP3    H226898   5.143   1.088   3.218
 8981TIP3   OH226899   5.758   2.142   2.886
 8981TIP3    H126900   5.772   2.184   2.802
 8981TIP3    H226901   5.814   2.190   2.947
 8982TIP3   OH226902   4.113   5.727   4.126
 8982TIP3    H126903   4.094   5.637   4.101
 8982TIP3    H226904   4.038   5.753   4.180
 8983TIP3   OH226905   6.574   1.720   2.184
 8983TIP3    H126906   6.494   1.670   2.192
 8983TIP3    H226907   6.547   1.811   2.198
 8984TIP3   OH226908   6.973   1.253   3.727
 8984TIP3    H126909   7.006   1.255   3.817
 8984TIP3    H226910   7.026   1.317   3.681
 8985TIP3   OH226911   7.467   3.881   6.762
 8985TIP3    H126912   7.558   3.870   6.734
 8985TIP3    H226913   7.432   3.947   6.702
 8986TIP3   OH226914   6.192   6.031   4.956
 8986TIP3    H126915   6.172   6.117   4.921
 8986TIP3    H226916   6.114   5.979   4.938
 8987TIP3   OH226917   0.560   4.916   2.703
 8987TIP3    H126918   0.604   4.876   2.778
 8987TIP3    H226919   0.468   4.922   2.729
 8988TIP3   OH226920   3.956   5.290   6.066
 8988TIP3    H126921   3.975   5.252   6.151
 8988TIP3    H226922   3.898   5.227   6.023
 8989TIP3   OH226923   0.947   5.117   3.907
 8989TIP3    H126924   0.969   5.114   3.814
 8989TIP3    H226925   1.018   5.167   3.947
 8990TIP3   OH226926   3.257   2.267   3.352
 8990TIP3    H126927   3.194   2.331   3.385
 8990TIP3    H226928   3.328   2.320   3.315
 8991TIP3   OH226929   6.109   4.940   5.869
 8991TIP3    H126930   6.096   5.020   5.819
 8991TIP3    H226931   6.021   4.907   5.885
 8992TIP3   OH226932   5.013   4.302   3.486
 8992TIP3    H126933   5.039   4.308   3.578
 8992TIP3    H226934   5.096   4.300   3.438
 8993TIP3   OH226935   4.761   7.023   4.930
 8993TIP3    H126936   4.788   7.109   4.962
 8993TIP3    H226937   4.794   7.019   4.840
 8994TIP3   OH226938   6.819   6.980   3.104
 8994TIP3    H126939   6.848   7.028   3.181
 8994TIP3    H226940   6.884   6.910   3.093
 8995TIP3   OH226941   7.485   3.914   2.165
 8995TIP3    H126942   7.512   3.838   2.113
 8995TIP3    H226943   7.394   3.897   2.186
 8996TIP3   OH226944   6.064   4.568   6.396
 8996TIP3    H126945   6.061   4.518   6.477
 8996TIP3    H226946   5.973   4.591   6.378
 8997TIP3   OH226947   7.182   6.155   5.414
 8997TIP3    H126948   7.149   6.125   5.329
 8997TIP3    H226949   7.104   6.187   5.460
 8998TIP3   OH226950   5.217   1.508   1.740
 8998TIP3    H126951   5.231   1.539   1.650
 8998TIP3    H226952   5.183   1.585   1.786
 8999TIP3   OH226953   3.746   1.118   3.335
 8999TIP3    H126954   3.777   1.030   3.357
 8999TIP3    H226955   3.650   1.109   3.332
 9000TIP3   OH226956   4.245   1.830   3.343
 9000TIP3    H126957   4.305   1.834   3.417
 9000TIP3    H226958   4.159   1.850   3.380
 9001TIP3   OH226959   3.434   5.060   2.435
 9001TIP3    H126960   3.376   5.025   2.368
 9001TIP3    H226961   3.421   5.004   2.511
 9002TIP3   OH226962   2.758   6.522   4.737
 9002TIP3    H126963   2.729   6.483   4.655
 9002TIP3    H226964   2.852   6.537   4.725
 9003TIP3   OH226965   6.467   0.253   1.065
 9003TIP3    H126966   6.538   0.299   1.110
 9003TIP3    H226967   6.444   0.181   1.124
 9004TIP3   OH226968   5.208   3.021   5.256
 9004TIP3    H126969   5.145   2.950   5.243
 9004TIP3    H226970   5.174   3.070   5.332
 9005TIP3   OH226971   2.041   6.538   5.102
 9005TIP3    H126972   2.107   6.594   5.060
 9005TIP3    H226973   1.966   6.541   5.042
 9006TIP3   OH226974   7.294   3.245   0.873
 9006TIP3    H126975   7.303   3.152   0.895
 9006TIP3    H226976   7.241   3.281   0.944
 9007TIP3   OH226977   8.095   1.740   3.389
 9007TIP3    H126978   8.084   1.656   3.433
 9007TIP3    H226979   8.011   1.784   3.398
 9008TIP3   OH226980   3.356   3.537   6.137
 9008TIP3    H126981   3.307   3.594   6.076
 9008TIP3    H226982   3.293   3.470   6.162
 9009TIP3   OH226983   7.572   1.189   6.622
 9009TIP3    H126984   7.576   1.284   6.610
 9009TIP3    H226985   7.531   1.156   6.543
 9010TIP3   OH226986   3.503   0.307   3.957
 9010TIP3    H126987   3.427   0.360   3.936
 9010TIP3    H226988   3.562   0.318   3.883
 9011TIP3   OH226989   7.601   5.659   0.681
 9011TIP3    H126990   7.570   5.738   0.637
 9011TIP3    H226991   7.689   5.645   0.647
 9012TIP3   OH226992   6.048   7.441   6.136
 9012TIP3    H126993   5.985   7.428   6.066
 9012TIP3    H226994   6.004   7.500   6.197
 9013TIP3   OH226995   3.160   4.254   1.922
 9013TIP3    H126996   3.079   4.257   1.870
 9013TIP3    H226997   3.182   4.161   1.926
 9014TIP3   OH226998   5.581   3.918   5.412
 9014TIP3    H126999   5.572   3.977   5.337
 9014TIP3    H227000   5.503   3.934   5.465
 9015TIP3   OH227001   4.282   2.681   4.463
 9015TIP3    H127002   4.334   2.664   4.385
 9015TIP3    H227003   4.315   2.765   4.496
 9016TIP3   OH227004   2.275   4.514   2.795
 9016TIP3    H127005   2.290   4.449   2.864
 9016TIP3    H227006   2.182   4.503   2.772
 9017TIP3   OH227007   7.137   5.835   0.142
 9017TIP3    H127008   7.166   5.897   0.075
 9017TIP3    H227009   7.163   5.750   0.108
 9018TIP3   OH227010   6.953   6.202   1.596
 9018TIP3    H127011   6.879   6.143   1.613
 9018TIP3    H227012   6.990   6.219   1.683
 9019TIP3   OH227013   6.161   3.180   2.831
 9019TIP3    H127014   6.255   3.170   2.848
 9019TIP3    H227015   6.136   3.100   2.786
 9020TIP3   OH227016   8.008   3.552   0.056
 9020TIP3    H127017   8.051   3.485   0.110
 9020TIP3    H227018   7.953   3.503  -0.005
 9021TIP3   OH227019   6.976   2.476   4.327
 9021TIP3    H127020   6.950   2.565   4.304
 9021TIP3    H227021   7.029   2.447   4.252
 9022TIP3   OH227022   4.487   6.140   5.403
 9022TIP3    H127023   4.429   6.069   5.376
 9022TIP3    H227024   4.575   6.103   5.397
 9023TIP3   OH227025   4.121   2.690   6.285
 9023TIP3    H127026   4.184   2.714   6.353
 9023TIP3    H227027   4.054   2.759   6.290
 9024TIP3   OH227028   3.328   3.690   4.777
 9024TIP3    H127029   3.340   3.781   4.750
 9024TIP3    H227030   3.353   3.689   4.869
 9025TIP3   OH227031   8.277   0.579   3.043
 9025TIP3    H127032   8.262   0.669   3.070
 9025TIP3    H227033   8.204   0.530   3.080
 9026TIP3   OH227034   6.298   1.169   2.977
 9026TIP3    H127035   6.245   1.177   3.056
 9026TIP3    H227036   6.236   1.142   2.909
 9027TIP3   OH227037   6.638   5.072   2.960
 9027TIP3    H127038   6.708   5.136   2.975
 9027TIP3    H227039   6.667   5.022   2.884
 9028TIP3   OH227040   5.469   2.490   3.351
 9028TIP3    H127041   5.494   2.442   3.272
 9028TIP3    H227042   5.544   2.480   3.409
 9029TIP3   OH227043   4.315   5.054   3.696
 9029TIP3    H127044   4.359   5.038   3.779
 9029TIP3    H227045   4.248   4.986   3.691
 9030TIP3   OH227046   2.663   0.389   0.392
 9030TIP3    H127047   2.640   0.393   0.299
 9030TIP3    H227048   2.690   0.298   0.405
 9031TIP3   OH227049   8.006   4.046   3.245
 9031TIP3    H127050   8.080   4.004   3.202
 9031TIP3    H227051   8.003   4.008   3.332
 9032TIP3   OH227052   7.848   1.878   6.441
 9032TIP3    H127053   7.907   1.941   6.400
 9032TIP3    H227054   7.869   1.795   6.399
 9033TIP3   OH227055   1.894   1.342   0.112
 9033TIP3    H127056   1.872   1.367   0.202
 9033TIP3    H227057   1.820   1.290   0.083
 9034TIP3   OH227058   0.851   7.491   6.144
 9034TIP3    H127059   0.928   7.493   6.087
 9034TIP3    H227060   0.872   7.423   6.209
 9035TIP3   OH227061   5.176   6.590   0.476
 9035TIP3    H127062   5.214   6.579   0.563
 9035TIP3    H227063   5.097   6.642   0.490
 9036TIP3   OH227064   0.734   4.019   1.794
 9036TIP3    H127065   0.664   4.024   1.728
 9036TIP3    H227066   0.690   4.034   1.877
 9037TIP3   OH227067   5.187   5.649   0.658
 9037TIP3    H127068   5.225   5.688   0.736
 9037TIP3    H227069   5.232   5.565   0.648
 9038TIP3   OH227070   7.122   2.861   2.364
 9038TIP3    H127071   7.186   2.910   2.415
 9038TIP3    H227072   7.126   2.772   2.401
 9039TIP3   OH227073   5.979   6.635   0.814
 9039TIP3    H127074   5.994   6.705   0.877
 9039TIP3    H227075   6.000   6.555   0.862
 9040TIP3   OH227076   1.197   5.033   4.759
 9040TIP3    H127077   1.283   5.061   4.789
 9040TIP3    H227078   1.210   4.943   4.728
 9041TIP3   OH227079   0.727   3.147   4.264
 9041TIP3    H127080   0.638   3.129   4.235
 9041TIP3    H227081   0.768   3.192   4.190
 9042TIP3   OH227082   3.962   3.208   2.060
 9042TIP3    H127083   3.967   3.297   2.025
 9042TIP3    H227084   3.925   3.157   1.988
 9043TIP3   OH227085   3.528   2.029   5.108
 9043TIP3    H127086   3.510   2.056   5.018
 9043TIP3    H227087   3.618   2.059   5.125
 9044TIP3   OH227088   4.666   7.113   3.257
 9044TIP3    H127089   4.587   7.103   3.311
 9044TIP3    H227090   4.728   7.160   3.312
 9045TIP3   OH227091   1.852   4.144   0.282
 9045TIP3    H127092   1.893   4.231   0.280
 9045TIP3    H227093   1.906   4.094   0.344
 9046TIP3   OH227094   4.834   0.293   4.654
 9046TIP3    H127095   4.807   0.385   4.656
 9046TIP3    H227096   4.836   0.270   4.561
 9047TIP3   OH227097   6.218   2.006   3.880
 9047TIP3    H127098   6.284   1.938   3.870
 9047TIP3    H227099   6.150   1.983   3.817
 9048TIP3   OH227100   0.364   6.504   5.794
 9048TIP3    H127101   0.380   6.592   5.760
 9048TIP3    H227102   0.322   6.519   5.879
 9049TIP3   OH227103   0.178   3.867   5.923
 9049TIP3    H127104   0.227   3.919   5.988
 9049TIP3    H227105   0.094   3.911   5.916
 9050TIP3   OH227106   3.324   1.311   6.770
 9050TIP3    H127107   3.413   1.278   6.782
 9050TIP3    H227108   3.335   1.396   6.727
 9051TIP3   OH227109   1.130   6.007   0.668
 9051TIP3    H127110   1.147   6.049   0.753
 9051TIP3    H227111   1.101   5.919   0.690
 9052TIP3   OH227112   7.883   0.652   4.162
 9052TIP3    H127113   7.888   0.707   4.240
 9052TIP3    H227114   7.852   0.567   4.194
 9053TIP3   OH227115   4.068   3.531   0.400
 9053TIP3    H127116   4.054   3.614   0.355
 9053TIP3    H227117   4.033   3.465   0.340
 9054TIP3   OH227118   6.204   0.188   0.890
 9054TIP3    H127119   6.240   0.266   0.850
 9054TIP3    H227120   6.251   0.180   0.974
 9055TIP3   OH227121   2.025   3.765   4.045
 9055TIP3    H127122   1.946   3.814   4.069
 9055TIP3    H227123   2.096   3.810   4.091
 9056TIP3   OH227124   1.307   4.203   4.886
 9056TIP3    H127125   1.389   4.252   4.888
 9056TIP3    H227126   1.307   4.152   4.967
 9057TIP3   OH227127   0.501   4.649   0.653
 9057TIP3    H127128   0.473   4.717   0.591
 9057TIP3    H227129   0.449   4.572   0.630
 9058TIP3   OH227130   0.350   4.323   2.089
 9058TIP3    H127131   0.403   4.403   2.095
 9058TIP3    H227132   0.402   4.265   2.034
 9059TIP3   OH227133   5.630   7.565   6.543
 9059TIP3    H127134   5.630   7.491   6.603
 9059TIP3    H227135   5.699   7.623   6.577
 9060TIP3   OH227136   6.724   2.519   4.053
 9060TIP3    H127137   6.696   2.475   4.134
 9060TIP3    H227138   6.688   2.466   3.983
 9061TIP3   OH227139   8.114   4.978   0.216
 9061TIP3    H127140   8.046   4.940   0.272
 9061TIP3    H227141   8.164   4.903   0.185
 9062TIP3   OH227142   7.112   3.381   4.650
 9062TIP3    H127143   7.179   3.358   4.585
 9062TIP3    H227144   7.099   3.475   4.638
 9063TIP3   OH227145   4.739   2.747   0.618
 9063TIP3    H127146   4.784   2.699   0.688
 9063TIP3    H227147   4.780   2.715   0.537
 9064TIP3   OH227148   3.512   3.318   0.613
 9064TIP3    H127149   3.550   3.236   0.645
 9064TIP3    H227150   3.479   3.361   0.692
 9065TIP3   OH227151   2.320   4.133   4.431
 9065TIP3    H127152   2.314   4.208   4.372
 9065TIP3    H227153   2.231   4.097   4.432
 9066TIP3   OH227154   4.793   3.305   5.070
 9066TIP3    H127155   4.770   3.215   5.048
 9066TIP3    H227156   4.889   3.307   5.067
 9067TIP3   OH227157   3.561   4.529   3.983
 9067TIP3    H127158   3.636   4.517   3.925
 9067TIP3    H227159   3.505   4.454   3.967
 9068TIP3   OH227160   5.718   3.853   4.146
 9068TIP3    H127161   5.717   3.824   4.055
 9068TIP3    H227162   5.811   3.860   4.169
 9069TIP3   OH227163   0.800   2.120   2.708
 9069TIP3    H127164   0.720   2.152   2.748
 9069TIP3    H227165   0.771   2.050   2.649
 9070TIP3   OH227166   6.183   3.632   6.011
 9070TIP3    H127167   6.226   3.622   5.926
 9070TIP3    H227168   6.092   3.651   5.989
 9071TIP3   OH227169   6.301   0.129   2.943
 9071TIP3    H127170   6.209   0.106   2.950
 9071TIP3    H227171   6.304   0.223   2.964
 9072TIP3   OH227172   5.980   3.761   2.974
 9072TIP3    H127173   6.049   3.804   3.024
 9072TIP3    H227174   6.013   3.673   2.959
 9073TIP3   OH227175   5.010   2.103   0.933
 9073TIP3    H127176   5.025   2.047   1.009
 9073TIP3    H227177   4.982   2.187   0.971
 9074TIP3   OH227178   3.225   0.260   2.714
 9074TIP3    H127179   3.142   0.224   2.747
 9074TIP3    H227180   3.275   0.282   2.792
 9075TIP3   OH227181   4.216   1.115   4.303
 9075TIP3    H127182   4.287   1.172   4.332
 9075TIP3    H227183   4.164   1.099   4.382
 9076TIP3   OH227184   2.080   6.455   2.951
 9076TIP3    H127185   2.013   6.399   2.914
 9076TIP3    H227186   2.036   6.539   2.965
 9077TIP3   OH227187   1.601   4.416   0.803
 9077TIP3    H127188   1.687   4.443   0.836
 9077TIP3    H227189   1.616   4.398   0.711
 9078TIP3   OH227190   5.389   4.862   1.806
 9078TIP3    H127191   5.297   4.887   1.801
 9078TIP3    H227192   5.430   4.930   1.859
 9079TIP3   OH227193   1.981   3.333   5.619
 9079TIP3    H127194   1.993   3.419   5.580
 9079TIP3    H227195   1.973   3.350   5.713
 9080TIP3   OH227196   6.668   6.030   4.821
 9080TIP3    H127197   6.605   6.101   4.837
 9080TIP3    H227198   6.656   5.971   4.896
 9081TIP3   OH227199   2.172   1.107   3.818
 9081TIP3    H127200   2.124   1.118   3.736
 9081TIP3    H227201   2.212   1.020   3.811
 9082TIP3   OH227202   2.511   2.239   3.091
 9082TIP3    H127203   2.548   2.308   3.146
 9082TIP3    H227204   2.498   2.282   3.006
 9083TIP3   OH227205   0.378   6.674   1.563
 9083TIP3    H127206   0.313   6.635   1.505
 9083TIP3    H227207   0.461   6.663   1.518
 9084TIP3   OH227208   7.901   5.963   2.909
 9084TIP3    H127209   7.954   5.900   2.859
 9084TIP3    H227210   7.816   5.920   2.918
 9085TIP3   OH227211   3.685   7.604   4.637
 9085TIP3    H127212   3.742   7.647   4.573
 9085TIP3    H227213   3.742   7.540   4.680
 9086TIP3   OH227214   0.757   6.533   4.883
 9086TIP3    H127215   0.704   6.496   4.954
 9086TIP3    H227216   0.721   6.622   4.871
 9087TIP3   OH227217   7.716   7.315   5.728
 9087TIP3    H127218   7.723   7.357   5.643
 9087TIP3    H227219   7.796   7.339   5.774
 9088TIP3   OH227220   5.253   5.689   6.043
 9088TIP3    H127221   5.175   5.736   6.013
 9088TIP3    H227222   5.226   5.598   6.046
 9089TIP3   OH227223   7.451   3.298   0.516
 9089TIP3    H127224   7.533   3.329   0.554
 9089TIP3    H227225   7.472   3.278   0.425
 9090TIP3   OH227226   5.535   3.878   3.896
 9090TIP3    H127227   5.477   3.823   3.844
 9090TIP3    H227228   5.620   3.835   3.890
 9091TIP3   OH227229   2.437   7.291   6.639
 9091TIP3    H127230   2.498   7.220   6.660
 9091TIP3    H227231   2.392   7.261   6.560
 9092TIP3   OH227232   0.629   4.589   6.284
 9092TIP3    H127233   0.585   4.648   6.345
 9092TIP3    H227234   0.601   4.619   6.197
 9093TIP3   OH227235   4.472   0.640   6.007
 9093TIP3    H127236   4.415   0.604   6.074
 9093TIP3    H227237   4.558   0.602   6.025
 9094TIP3   OH227238   0.279   4.219   2.709
 9094TIP3    H127239   0.300   4.234   2.801
 9094TIP3    H227240   0.185   4.239   2.702
 9095TIP3   OH227241   5.245   2.948   6.314
 9095TIP3    H127242   5.274   3.023   6.262
 9095TIP3    H227243   5.172   2.911   6.264
 9096TIP3   OH227244   2.999   1.286   0.223
 9096TIP3    H127245   2.980   1.286   0.129
 9096TIP3    H227246   3.094   1.296   0.228
 9097TIP3   OH227247   7.264   4.828   2.060
 9097TIP3    H127248   7.228   4.758   2.115
 9097TIP3    H227249   7.294   4.783   1.981
 9098TIP3   OH227250   1.354   7.326   4.436
 9098TIP3    H127251   1.299   7.333   4.358
 9098TIP3    H227252   1.325   7.399   4.491
 9099TIP3   OH227253   4.084   2.897   0.490
 9099TIP3    H127254   4.031   2.822   0.517
 9099TIP3    H227255   4.033   2.939   0.421
 9100TIP3   OH227256   2.349   0.593   4.771
 9100TIP3    H127257   2.278   0.536   4.741
 9100TIP3    H227258   2.403   0.538   4.827
 9101TIP3   OH227259   3.599   7.701   3.350
 9101TIP3    H127260   3.581   7.753   3.272
 9101TIP3    H227261   3.518   7.704   3.401
 9102TIP3   OH227262   8.010   4.055   5.286
 9102TIP3    H127263   8.051   4.052   5.373
 9102TIP3    H227264   7.921   4.085   5.302
 9103TIP3   OH227265   4.567   5.414   0.035
 9103TIP3    H127266   4.567   5.482   0.102
 9103TIP3    H227267   4.478   5.417  -0.001
 9104TIP3   OH227268   7.031   3.380   2.562
 9104TIP3    H127269   6.952   3.404   2.610
 9104TIP3    H227270   7.077   3.320   2.621
 9105TIP3   OH227271   7.509   6.770   0.978
 9105TIP3    H127272   7.428   6.750   1.026
 9105TIP3    H227273   7.502   6.721   0.897
 9106TIP3   OH227274   4.326   5.240   4.308
 9106TIP3    H127275   4.307   5.229   4.215
 9106TIP3    H227276   4.246   5.277   4.345
 9107TIP3   OH227277   5.557   2.682   3.672
 9107TIP3    H127278   5.621   2.617   3.645
 9107TIP3    H227279   5.586   2.711   3.758
 9108TIP3   OH227280   7.100   0.087   0.059
 9108TIP3    H127281   7.149   0.147   0.003
 9108TIP3    H227282   7.050   0.143   0.117
 9109TIP3   OH227283   4.047   3.251   6.600
 9109TIP3    H127284   4.046   3.192   6.525
 9109TIP3    H227285   3.980   3.216   6.659
 9110TIP3   OH227286   7.622   2.421   2.498
 9110TIP3    H127287   7.682   2.476   2.549
 9110TIP3    H227288   7.551   2.400   2.559
 9111TIP3   OH227289   1.576   1.678   1.518
 9111TIP3    H127290   1.624   1.689   1.600
 9111TIP3    H227291   1.643   1.679   1.450
 9112TIP3   OH227292   3.180   3.911   0.067
 9112TIP3    H127293   3.113   3.932   0.002
 9112TIP3    H227294   3.257   3.887   0.015
 9113TIP3   OH227295   6.994   4.568   3.247
 9113TIP3    H127296   7.062   4.619   3.202
 9113TIP3    H227297   7.019   4.571   3.339
 9114TIP3   OH227298   8.063   1.218   0.700
 9114TIP3    H127299   8.061   1.283   0.770
 9114TIP3    H227300   8.101   1.140   0.740
 9115TIP3   OH227301   2.406   3.812   0.876
 9115TIP3    H127302   2.320   3.831   0.838
 9115TIP3    H227303   2.394   3.822   0.970
 9116TIP3   OH227304   6.163   6.137   6.285
 9116TIP3    H127305   6.091   6.196   6.305
 9116TIP3    H227306   6.241   6.193   6.284
 9117TIP3   OH227307   4.644   1.449   5.321
 9117TIP3    H127308   4.713   1.394   5.284
 9117TIP3    H227309   4.619   1.404   5.402
 9118TIP3   OH227310   3.054   6.916   2.925
 9118TIP3    H127311   3.078   6.918   2.833
 9118TIP3    H227312   3.077   7.002   2.959
 9119TIP3   OH227313   0.270   5.795   1.434
 9119TIP3    H127314   0.209   5.754   1.372
 9119TIP3    H227315   0.355   5.757   1.411
 9120TIP3   OH227316   0.670   4.884   6.260
 9120TIP3    H127317   0.660   4.836   6.178
 9120TIP3    H227318   0.764   4.882   6.278
 9121TIP3   OH227319   5.127   1.836   2.396
 9121TIP3    H127320   5.223   1.826   2.397
 9121TIP3    H227321   5.112   1.916   2.346
 9122TIP3   OH227322   2.719   7.503  -0.016
 9122TIP3    H127323   2.720   7.482   0.077
 9122TIP3    H227324   2.785   7.445  -0.054
 9123TIP3   OH227325   5.871   1.339   4.941
 9123TIP3    H127326   5.950   1.371   4.985
 9123TIP3    H227327   5.895   1.251   4.910
 9124TIP3   OH227328   3.450   6.973   2.449
 9124TIP3    H127329   3.430   7.043   2.388
 9124TIP3    H227330   3.489   7.017   2.525
 9125TIP3   OH227331   4.311   5.120   2.818
 9125TIP3    H127332   4.382   5.059   2.798
 9125TIP3    H227333   4.294   5.165   2.735
 9126TIP3   OH227334   4.931   5.262   2.984
 9126TIP3    H127335   4.865   5.308   2.932
 9126TIP3    H227336   4.923   5.301   3.071
 9127TIP3   OH227337   3.303   1.497   3.531
 9127TIP3    H127338   3.390   1.459   3.532
 9127TIP3    H227339   3.313   1.581   3.487
 9128TIP3   OH227340   7.900   5.089   3.567
 9128TIP3    H127341   7.910   5.037   3.646
 9128TIP3    H227342   7.808   5.077   3.542
 9129TIP3   OH227343   2.665   3.367   4.000
 9129TIP3    H127344   2.666   3.280   4.040
 9129TIP3    H227345   2.743   3.411   4.035
 9130TIP3   OH227346   2.190   3.960   6.287
 9130TIP3    H127347   2.175   3.999   6.200
 9130TIP3    H227348   2.125   3.890   6.292
 9131TIP3   OH227349   8.117   2.590   5.898
 9131TIP3    H127350   8.033   2.557   5.930
 9131TIP3    H227351   8.173   2.512   5.895
 9132TIP3   OH227352   5.265   4.961   3.465
 9132TIP3    H127353   5.298   4.878   3.431
 9132TIP3    H227354   5.315   4.977   3.545
 9133TIP3   OH227355   7.301   5.294   2.991
 9133TIP3    H127356   7.380   5.284   3.045
 9133TIP3    H227357   7.301   5.387   2.966
 9134TIP3   OH227358   2.219   3.396   6.041
 9134TIP3    H127359   2.267   3.393   5.958
 9134TIP3    H227360   2.242   3.314   6.085
 9135TIP3   OH227361   0.883   0.065   4.302
 9135TIP3    H127362   0.954   0.002   4.318
 9135TIP3    H227363   0.912   0.145   4.346
 9136TIP3   OH227364   2.078   1.248   3.324
 9136TIP3    H127365   2.166   1.283   3.308
 9136TIP3    H227366   2.070   1.247   3.420
 9137TIP3   OH227367   0.267   5.631   2.319
 9137TIP3    H127368   0.272   5.632   2.415
 9137TIP3    H227369   0.222   5.712   2.296
 9138TIP3   OH227370   2.946   1.783   2.523
 9138TIP3    H127371   2.977   1.790   2.613
 9138TIP3    H227372   2.952   1.872   2.489
 9139TIP3   OH227373   4.291   7.303   4.557
 9139TIP3    H127374   4.352   7.253   4.613
 9139TIP3    H227375   4.208   7.299   4.604
 9140TIP3   OH227376   3.021   2.083   5.457
 9140TIP3    H127377   3.045   2.051   5.370
 9140TIP3    H227378   3.091   2.144   5.480
 9141TIP3   OH227379   7.083   7.277   2.499
 9141TIP3    H127380   7.044   7.190   2.501
 9141TIP3    H227381   7.142   7.275   2.423
 9142TIP3   OH227382   0.607   6.759   4.845
 9142TIP3    H127383   0.565   6.787   4.926
 9142TIP3    H227384   0.541   6.772   4.777
 9143TIP3   OH227385   7.494   4.765   4.988
 9143TIP3    H127386   7.473   4.672   4.990
 9143TIP3    H227387   7.523   4.786   5.077
 9144TIP3   OH227388   3.042   1.415   2.457
 9144TIP3    H127389   2.979   1.479   2.489
 9144TIP3    H227390   3.037   1.421   2.361
 9145TIP3   OH227391   0.708   6.611   5.453
 9145TIP3    H127392   0.673   6.641   5.369
 9145TIP3    H227393   0.659   6.531   5.472
 9146TIP3   OH227394   0.044   4.435   2.981
 9146TIP3    H127395   0.133   4.468   2.967
 9146TIP3    H227396  -0.003   4.509   3.021
 9147TIP3   OH227397   7.168   5.260   6.548
 9147TIP3    H127398   7.232   5.300   6.608
 9147TIP3    H227399   7.083   5.289   6.582
 9148TIP3   OH227400   4.794   3.283   3.121
 9148TIP3    H127401   4.718   3.303   3.176
 9148TIP3    H227402   4.832   3.368   3.101
 9149TIP3   OH227403   0.203   0.452   4.280
 9149TIP3    H127404   0.116   0.490   4.270
 9149TIP3    H227405   0.263   0.526   4.282
 9150TIP3   OH227406   1.087   7.769   4.625
 9150TIP3    H127407   1.015   7.720   4.585
 9150TIP3    H227408   1.043   7.837   4.678
 9151TIP3   OH227409   4.480   2.054   0.868
 9151TIP3    H127410   4.556   2.085   0.916
 9151TIP3    H227411   4.457   2.125   0.809
 9152TIP3   OH227412   6.125   6.402   2.469
 9152TIP3    H127413   6.151   6.469   2.406
 9152TIP3    H227414   6.199   6.342   2.473
 9153TIP3   OH227415   3.937   1.223   2.796
 9153TIP3    H127416   3.843   1.225   2.779
 9153TIP3    H227417   3.977   1.259   2.718
 9154TIP3   OH227418   3.601   4.138   2.715
 9154TIP3    H127419   3.567   4.131   2.626
 9154TIP3    H227420   3.617   4.048   2.743
 9155TIP3   OH227421   7.858   0.293   3.989
 9155TIP3    H127422   7.928   0.357   4.000
 9155TIP3    H227423   7.852   0.248   4.073
 9156TIP3   OH227424   1.590   5.269   2.904
 9156TIP3    H127425   1.534   5.347   2.897
 9156TIP3    H227426   1.554   5.221   2.979
 9157TIP3   OH227427   6.018   3.784   3.975
 9157TIP3    H127428   6.058   3.870   3.985
 9157TIP3    H227429   6.073   3.726   4.029
 9158TIP3   OH227430   2.627   1.511   3.834
 9158TIP3    H127431   2.538   1.516   3.800
 9158TIP3    H227432   2.677   1.573   3.781
 9159TIP3   OH227433   7.540   3.668   2.680
 9159TIP3    H127434   7.454   3.687   2.641
 9159TIP3    H227435   7.536   3.575   2.702
 9160TIP3   OH227436   7.735   2.419   3.977
 9160TIP3    H127437   7.752   2.325   3.968
 9160TIP3    H227438   7.652   2.423   4.025
 9161TIP3   OH227439   5.888   7.433   5.899
 9161TIP3    H127440   5.956   7.483   5.854
 9161TIP3    H227441   5.807   7.452   5.851
 9162TIP3   OH227442   8.075   3.354   3.223
 9162TIP3    H127443   8.126   3.275   3.209
 9162TIP3    H227444   8.124   3.423   3.178
 9163TIP3   OH227445   0.975   3.631   1.656
 9163TIP3    H127446   0.959   3.582   1.737
 9163TIP3    H227447   0.945   3.720   1.675
 9164TIP3   OH227448   5.440   2.089   0.656
 9164TIP3    H127449   5.370   2.139   0.698
 9164TIP3    H227450   5.510   2.152   0.643
 9165TIP3   OH227451   1.523   5.077   2.366
 9165TIP3    H127452   1.437   5.077   2.324
 9165TIP3    H227453   1.549   5.169   2.367
 9166TIP3   OH227454   6.957   2.364   4.571
 9166TIP3    H127455   6.946   2.389   4.479
 9166TIP3    H227456   7.027   2.298   4.569
 9167TIP3   OH227457   7.856   3.325   5.976
 9167TIP3    H127458   7.817   3.384   6.040
 9167TIP3    H227459   7.830   3.361   5.891
 9168TIP3   OH227460   7.902   3.852   1.212
 9168TIP3    H127461   7.808   3.860   1.200
 9168TIP3    H227462   7.934   3.816   1.129
 9169TIP3   OH227463   7.918   6.884   2.242
 9169TIP3    H127464   7.982   6.937   2.195
 9169TIP3    H227465   7.835   6.931   2.231
 9170TIP3   OH227466   8.053   5.701   1.837
 9170TIP3    H127467   7.990   5.751   1.785
 9170TIP3    H227468   8.022   5.711   1.927
 9171TIP3   OH227469   6.257   4.131   6.229
 9171TIP3    H127470   6.225   4.086   6.308
 9171TIP3    H227471   6.273   4.221   6.258
 9172TIP3   OH227472   1.653   5.620   4.674
 9172TIP3    H127473   1.653   5.712   4.649
 9172TIP3    H227474   1.742   5.590   4.654
 9173TIP3   OH227475   1.686   0.467   0.579
 9173TIP3    H127476   1.726   0.520   0.648
 9173TIP3    H227477   1.743   0.479   0.503
 9174TIP3   OH227478   6.051   6.567   6.569
 9174TIP3    H127479   6.085   6.562   6.659
 9174TIP3    H227480   5.957   6.581   6.580
 9175TIP3   OH227481   6.949   1.492   6.505
 9175TIP3    H127482   6.944   1.397   6.496
 9175TIP3    H227483   7.038   1.509   6.536
 9176TIP3   OH227484   7.428   3.469   3.632
 9176TIP3    H127485   7.522   3.457   3.618
 9176TIP3    H227486   7.409   3.556   3.597
 9177TIP3   OH227487   1.642   6.144   0.537
 9177TIP3    H127488   1.571   6.143   0.472
 9177TIP3    H227489   1.643   6.055   0.573
 9178TIP3   OH227490   1.840   7.606   2.004
 9178TIP3    H127491   1.748   7.595   1.979
 9178TIP3    H227492   1.875   7.667   1.938
 9179TIP3   OH227493   2.866   1.093   3.070
 9179TIP3    H127494   2.957   1.100   3.042
 9179TIP3    H227495   2.869   1.039   3.149
 9180TIP3   OH227496   3.836   6.073   5.099
 9180TIP3    H127497   3.781   6.050   5.024
 9180TIP3    H227498   3.779   6.123   5.156
 9181TIP3   OH227499   2.344   0.656   0.410
 9181TIP3    H127500   2.391   0.704   0.343
 9181TIP3    H227501   2.277   0.717   0.442
 9182TIP3   OH227502   4.958   6.834   5.270
 9182TIP3    H127503   4.960   6.834   5.366
 9182TIP3    H227504   4.983   6.745   5.245
 9183TIP3   OH227505   2.431   0.045   3.018
 9183TIP3    H127506   2.449   0.084   3.103
 9183TIP3    H227507   2.427  -0.049   3.035
 9184TIP3   OH227508   6.536   0.494   6.454
 9184TIP3    H127509   6.537   0.447   6.538
 9184TIP3    H227510   6.533   0.587   6.479
 9185TIP3   OH227511   2.343   5.537   6.230
 9185TIP3    H127512   2.304   5.452   6.208
 9185TIP3    H227513   2.400   5.556   6.155
 9186TIP3   OH227514   2.271   6.528   3.937
 9186TIP3    H127515   2.183   6.551   3.909
 9186TIP3    H227516   2.276   6.432   3.928
 9187TIP3   OH227517   1.653   0.469   1.875
 9187TIP3    H127518   1.720   0.510   1.821
 9187TIP3    H227519   1.574   0.472   1.820
 9188TIP3   OH227520   6.170   1.706   0.338
 9188TIP3    H127521   6.251   1.738   0.378
 9188TIP3    H227522   6.160   1.617   0.371
 9189TIP3   OH227523   2.256   1.133   4.329
 9189TIP3    H127524   2.175   1.178   4.307
 9189TIP3    H227525   2.295   1.110   4.245
 9190TIP3   OH227526   3.221   2.368   2.811
 9190TIP3    H127527   3.153   2.431   2.787
 9190TIP3    H227528   3.303   2.408   2.780
 9191TIP3   OH227529   7.598   1.505   3.882
 9191TIP3    H127530   7.515   1.511   3.836
 9191TIP3    H227531   7.662   1.545   3.823
 9192TIP3   OH227532   1.748   0.665   0.272
 9192TIP3    H127533   1.823   0.628   0.318
 9192TIP3    H227534   1.771   0.756   0.257
 9193TIP3   OH227535   3.992   6.637   3.306
 9193TIP3    H127536   3.900   6.661   3.291
 9193TIP3    H227537   4.020   6.692   3.379
 9194TIP3   OH227538   5.248   6.641   3.574
 9194TIP3    H127539   5.171   6.655   3.630
 9194TIP3    H227540   5.323   6.654   3.632
 9195TIP3   OH227541   1.580   0.024   4.166
 9195TIP3    H127542   1.602   0.005   4.075
 9195TIP3    H227543   1.560  -0.061   4.205
 9196TIP3   OH227544   0.057   5.746   3.997
 9196TIP3    H127545   0.083   5.694   3.921
 9196TIP3    H227546   0.133   5.743   4.055
 9197TIP3   OH227547   1.965   5.531   6.453
 9197TIP3    H127548   1.904   5.584   6.402
 9197TIP3    H227549   2.023   5.595   6.494
 9198TIP3   OH227550   4.997   6.119   0.803
 9198TIP3    H127551   4.987   6.033   0.762
 9198TIP3    H227552   4.928   6.173   0.763
 9199TIP3   OH227553   4.874   4.005   4.846
 9199TIP3    H127554   4.824   4.002   4.765
 9199TIP3    H227555   4.899   3.914   4.863
 9200TIP3   OH227556   3.804   3.382   1.565
 9200TIP3    H127557   3.824   3.465   1.608
 9200TIP3    H227558   3.717   3.394   1.528
 9201TIP3   OH227559   6.647   2.385   4.620
 9201TIP3    H127560   6.604   2.299   4.615
 9201TIP3    H227561   6.739   2.366   4.601
 9202TIP3   OH227562   7.022   7.384   0.972
 9202TIP3    H127563   6.983   7.355   0.890
 9202TIP3    H227564   7.104   7.427   0.946
 9203TIP3   OH227565   4.746   0.544   3.056
 9203TIP3    H127566   4.756   0.449   3.048
 9203TIP3    H227567   4.791   0.566   3.137
 9204TIP3   OH227568   7.921   5.606   4.417
 9204TIP3    H127569   7.976   5.684   4.419
 9204TIP3    H227570   7.977   5.538   4.379
 9205TIP3   OH227571   6.816   3.081   3.750
 9205TIP3    H127572   6.904   3.049   3.769
 9205TIP3    H227573   6.770   3.006   3.712
 9206TIP3   OH227574   4.272   1.663   6.184
 9206TIP3    H127575   4.286   1.600   6.114
 9206TIP3    H227576   4.256   1.746   6.140
 9207TIP3   OH227577   1.212   3.869   4.946
 9207TIP3    H127578   1.238   3.805   5.012
 9207TIP3    H227579   1.118   3.856   4.936
 9208TIP3   OH227580   5.384   1.962   0.278
 9208TIP3    H127581   5.390   2.041   0.225
 9208TIP3    H227582   5.352   1.992   0.363
 9209TIP3   OH227583   5.827   6.660   5.724
 9209TIP3    H127584   5.787   6.621   5.801
 9209TIP3    H227585   5.880   6.733   5.757
 9210TIP3   OH227586   0.673   4.544   5.528
 9210TIP3    H127587   0.749   4.570   5.476
 9210TIP3    H227588   0.708   4.527   5.615
 9211TIP3   OH227589   1.258   5.324   1.161
 9211TIP3    H127590   1.283   5.407   1.120
 9211TIP3    H227591   1.218   5.350   1.244
 9212TIP3   OH227592   5.302   7.517   1.658
 9212TIP3    H127593   5.275   7.600   1.697
 9212TIP3    H227594   5.224   7.462   1.661
 9213TIP3   OH227595   6.209   3.567   1.527
 9213TIP3    H127596   6.230   3.475   1.517
 9213TIP3    H227597   6.198   3.599   1.437
 9214TIP3   OH227598   5.016   7.330   1.094
 9214TIP3    H127599   5.023   7.397   1.026
 9214TIP3    H227600   5.087   7.268   1.073
 9215TIP3   OH227601   3.557   1.382   3.534
 9215TIP3    H127602   3.635   1.438   3.543
 9215TIP3    H227603   3.580   1.303   3.582
 9216TIP3   OH227604   4.758   4.936   2.944
 9216TIP3    H127605   4.769   5.001   3.014
 9216TIP3    H227606   4.736   4.855   2.989
 9217TIP3   OH227607   0.170   0.905   5.141
 9217TIP3    H127608   0.156   0.820   5.099
 9217TIP3    H227609   0.149   0.969   5.073
 9218TIP3   OH227610   0.867   7.137   6.083
 9218TIP3    H127611   0.925   7.108   6.153
 9218TIP3    H227612   0.835   7.223   6.111
 9219TIP3   OH227613   6.827   6.533   3.831
 9219TIP3    H127614   6.779   6.606   3.791
 9219TIP3    H227615   6.766   6.459   3.828
 9220TIP3   OH227616   3.016   1.559   6.197
 9220TIP3    H127617   3.025   1.577   6.104
 9220TIP3    H227618   3.056   1.473   6.209
 9221TIP3   OH227619   3.679   1.261   2.730
 9221TIP3    H127620   3.612   1.219   2.783
 9221TIP3    H227621   3.631   1.303   2.659
 9222TIP3   OH227622   5.097   1.352   3.837
 9222TIP3    H127623   5.034   1.402   3.889
 9222TIP3    H227624   5.043   1.301   3.777
 9223TIP3   OH227625   6.797   6.515   4.689
 9223TIP3    H127626   6.825   6.590   4.743
 9223TIP3    H227627   6.809   6.439   4.745
 9224TIP3   OH227628   3.920   3.988   5.285
 9224TIP3    H127629   3.883   3.994   5.373
 9224TIP3    H227630   3.975   4.066   5.277
 9225TIP3   OH227631   6.616   1.406   2.115
 9225TIP3    H127632   6.566   1.327   2.133
 9225TIP3    H227633   6.555   1.478   2.135
 9226TIP3   OH227634   2.041   1.966   1.818
 9226TIP3    H127635   1.975   2.019   1.862
 9226TIP3    H227636   2.016   1.968   1.725
 9227TIP3   OH227637   4.682   2.596   1.770
 9227TIP3    H127638   4.678   2.670   1.710
 9227TIP3    H227639   4.683   2.635   1.857
 9228TIP3   OH227640   0.696   3.376   3.983
 9228TIP3    H127641   0.741   3.298   3.949
 9228TIP3    H227642   0.669   3.424   3.905
 9229TIP3   OH227643   1.163   4.753   0.248
 9229TIP3    H127644   1.198   4.836   0.218
 9229TIP3    H227645   1.226   4.722   0.313
 9230TIP3   OH227646   1.298   4.896   3.803
 9230TIP3    H127647   1.292   4.801   3.814
 9230TIP3    H227648   1.308   4.908   3.709
 9231TIP3   OH227649   7.763   6.595   0.406
 9231TIP3    H127650   7.785   6.557   0.321
 9231TIP3    H227651   7.679   6.639   0.392
 9232TIP3   OH227652   3.127   2.172   6.205
 9232TIP3    H127653   3.097   2.239   6.144
 9232TIP3    H227654   3.051   2.154   6.261
 9233TIP3   OH227655   2.692   2.720   2.973
 9233TIP3    H127656   2.704   2.701   3.067
 9233TIP3    H227657   2.676   2.814   2.970
 9234TIP3   OH227658   4.041   0.615   5.075
 9234TIP3    H127659   4.128   0.590   5.044
 9234TIP3    H227660   3.980   0.564   5.022
 9235TIP3   OH227661   5.322   2.614   4.392
 9235TIP3    H127662   5.254   2.677   4.366
 9235TIP3    H227663   5.308   2.539   4.333
 9236TIP3   OH227664   2.572   6.425   3.630
 9236TIP3    H127665   2.575   6.332   3.655
 9236TIP3    H227666   2.552   6.470   3.712
 9237TIP3   OH227667   4.727   3.985   2.083
 9237TIP3    H127668   4.727   4.080   2.097
 9237TIP3    H227669   4.685   3.973   1.998
 9238TIP3   OH227670   1.651   6.810   5.862
 9238TIP3    H127671   1.580   6.779   5.918
 9238TIP3    H227672   1.692   6.730   5.828
 9239TIP3   OH227673   0.978   5.171   1.917
 9239TIP3    H127674   0.896   5.210   1.886
 9239TIP3    H227675   1.001   5.107   1.849
 9240TIP3   OH227676   3.302   0.186   1.115
 9240TIP3    H127677   3.367   0.137   1.065
 9240TIP3    H227678   3.320   0.163   1.206
 9241TIP3   OH227679   5.833   3.878   5.502
 9241TIP3    H127680   5.756   3.909   5.455
 9241TIP3    H227681   5.906   3.929   5.466
 9242TIP3   OH227682   6.337   2.062   5.763
 9242TIP3    H127683   6.318   2.156   5.766
 9242TIP3    H227684   6.428   2.057   5.735
 9243TIP3   OH227685   6.539   5.405   2.656
 9243TIP3    H127686   6.552   5.465   2.583
 9243TIP3    H227687   6.464   5.441   2.703
 9244TIP3   OH227688   4.803   0.205   3.892
 9244TIP3    H127689   4.762   0.121   3.871
 9244TIP3    H227690   4.747   0.270   3.850
 9245TIP3   OH227691   5.668   6.624   6.065
 9245TIP3    H127692   5.685   6.577   6.147
 9245TIP3    H227693   5.624   6.560   6.009
 9246TIP3   OH227694   2.753   5.209   6.058
 9246TIP3    H127695   2.744   5.302   6.075
 9246TIP3    H227696   2.682   5.168   6.108
 9247TIP3   OH227697   2.496   3.881   0.260
 9247TIP3    H127698   2.526   3.965   0.223
 9247TIP3    H227699   2.423   3.905   0.318
 9248TIP3   OH227700   3.758   1.719   3.676
 9248TIP3    H127701   3.754   1.735   3.581
 9248TIP3    H227702   3.848   1.740   3.701
 9249TIP3   OH227703   3.102   7.514   0.940
 9249TIP3    H127704   3.135   7.429   0.912
 9249TIP3    H227705   3.023   7.528   0.888
 9250TIP3   OH227706   3.766   4.445   5.879
 9250TIP3    H127707   3.711   4.520   5.857
 9250TIP3    H227708   3.811   4.423   5.798
 9251TIP3   OH227709   2.793   0.406   2.110
 9251TIP3    H127710   2.788   0.326   2.058
 9251TIP3    H227711   2.703   0.436   2.117
 9252TIP3   OH227712   7.549   5.019   1.302
 9252TIP3    H127713   7.568   4.926   1.295
 9252TIP3    H227714   7.456   5.026   1.281
 9253TIP3   OH227715   7.759   0.507   3.499
 9253TIP3    H127716   7.742   0.574   3.433
 9253TIP3    H227717   7.810   0.440   3.453
 9254TIP3   OH227718   0.614   7.293   5.780
 9254TIP3    H127719   0.622   7.332   5.867
 9254TIP3    H227720   0.589   7.367   5.723
 9255TIP3   OH227721   6.547   3.367   4.481
 9255TIP3    H127722   6.611   3.419   4.530
 9255TIP3    H227723   6.478   3.348   4.544
 9256TIP3   OH227724   5.264   7.335   1.345
 9256TIP3    H127725   5.224   7.264   1.295
 9256TIP3    H227726   5.217   7.414   1.317
 9257TIP3   OH227727   2.720   2.479   5.811
 9257TIP3    H127728   2.652   2.488   5.878
 9257TIP3    H227729   2.720   2.386   5.789
 9258TIP3   OH227730   3.842   7.285   2.120
 9258TIP3    H127731   3.793   7.367   2.133
 9258TIP3    H227732   3.798   7.222   2.177
 9259TIP3   OH227733   2.444   4.102   2.984
 9259TIP3    H127734   2.372   4.073   3.039
 9259TIP3    H227735   2.506   4.029   2.984
 9260TIP3   OH227736   2.609   1.289   5.225
 9260TIP3    H127737   2.600   1.384   5.216
 9260TIP3    H227738   2.607   1.256   5.135
 9261TIP3   OH227739   2.345   0.880   0.000
 9261TIP3    H127740   2.285   0.818  -0.044
 9261TIP3    H227741   2.294   0.961   0.005
 9262TIP3   OH227742   8.019   2.851   3.845
 9262TIP3    H127743   8.007   2.756   3.850
 9262TIP3    H227744   7.931   2.886   3.836
 9263TIP3   OH227745   7.730   5.842   5.580
 9263TIP3    H127746   7.690   5.895   5.648
 9263TIP3    H227747   7.810   5.888   5.556
 9264TIP3   OH227748   3.487   3.498   5.541
 9264TIP3    H127749   3.580   3.478   5.551
 9264TIP3    H227750   3.460   3.533   5.625
 9265TIP3   OH227751   7.561   1.496   2.773
 9265TIP3    H127752   7.481   1.532   2.812
 9265TIP3    H227753   7.632   1.546   2.813
 9266TIP3   OH227754   6.430   1.789   1.850
 9266TIP3    H127755   6.494   1.848   1.890
 9266TIP3    H227756   6.399   1.735   1.923
 9267TIP3   OH227757   5.670   3.995   2.316
 9267TIP3    H127758   5.729   3.937   2.267
 9267TIP3    H227759   5.718   4.077   2.325
 9268TIP3   OH227760   7.203   7.487   2.835
 9268TIP3    H127761   7.272   7.501   2.770
 9268TIP3    H227762   7.138   7.555   2.816
 9269TIP3   OH227763   5.164   1.449   6.202
 9269TIP3    H127764   5.211   1.365   6.195
 9269TIP3    H227765   5.165   1.468   6.296
 9270TIP3   OH227766   3.456   6.575   0.482
 9270TIP3    H127767   3.434   6.537   0.567
 9270TIP3    H227768   3.470   6.500   0.425
 9271TIP3   OH227769   6.719   3.887   3.184
 9271TIP3    H127770   6.652   3.955   3.187
 9271TIP3    H227771   6.758   3.888   3.272
 9272TIP3   OH227772   6.232   6.770   6.356
 9272TIP3    H127773   6.292   6.765   6.430
 9272TIP3    H227774   6.276   6.721   6.287
 9273TIP3   OH227775   7.191   5.780   4.069
 9273TIP3    H127776   7.277   5.794   4.030
 9273TIP3    H227777   7.168   5.690   4.045
 9274TIP3   OH227778   4.820   1.667   2.216
 9274TIP3    H127779   4.788   1.639   2.302
 9274TIP3    H227780   4.890   1.606   2.195
 9275TIP3   OH227781   0.167   2.870   3.168
 9275TIP3    H127782   0.236   2.813   3.203
 9275TIP3    H227783   0.207   2.912   3.092
 9276TIP3   OH227784   7.202   7.042   3.734
 9276TIP3    H127785   7.150   6.962   3.745
 9276TIP3    H227786   7.264   7.021   3.664
 9277TIP3   OH227787   6.449   7.413   5.294
 9277TIP3    H127788   6.523   7.359   5.321
 9277TIP3    H227789   6.483   7.467   5.223
 9278TIP3   OH227790   4.997   1.427   5.973
 9278TIP3    H127791   5.064   1.415   6.041
 9278TIP3    H227792   4.986   1.341   5.934
 9279TIP3   OH227793   7.528   5.839   4.689
 9279TIP3    H127794   7.468   5.818   4.617
 9279TIP3    H227795   7.607   5.870   4.646
 9280TIP3   OH227796   1.332   1.435   1.591
 9280TIP3    H127797   1.289   1.369   1.646
 9280TIP3    H227798   1.271   1.508   1.589
 9281TIP3   OH227799   3.897   2.000   3.726
 9281TIP3    H127800   3.948   1.930   3.766
 9281TIP3    H227801   3.806   1.977   3.744
 9282TIP3   OH227802   1.342   5.504  -0.011
 9282TIP3    H127803   1.351   5.473  -0.101
 9282TIP3    H227804   1.257   5.469   0.017
 9283TIP3   OH227805   0.383   1.751   0.115
 9283TIP3    H127806   0.452   1.737   0.180
 9283TIP3    H227807   0.322   1.678   0.130
 9284TIP3   OH227808   5.493   4.703   5.362
 9284TIP3    H127809   5.467   4.746   5.280
 9284TIP3    H227810   5.557   4.762   5.401
 9285TIP3   OH227811   3.627   7.065   2.694
 9285TIP3    H127812   3.680   7.133   2.736
 9285TIP3    H227813   3.644   6.987   2.746
 9286TIP3   OH227814   4.578   0.065   4.983
 9286TIP3    H127815   4.519  -0.010   4.991
 9286TIP3    H227816   4.620   0.071   5.069
 9287TIP3   OH227817   3.859   0.754   3.022
 9287TIP3    H127818   3.941   0.764   3.069
 9287TIP3    H227819   3.880   0.779   2.931
 9288TIP3   OH227820   6.035   1.552   0.720
 9288TIP3    H127821   6.012   1.615   0.788
 9288TIP3    H227822   6.127   1.532   0.735
 9289TIP3   OH227823   6.771   6.328   1.119
 9289TIP3    H127824   6.779   6.329   1.023
 9289TIP3    H227825   6.839   6.388   1.149
 9290TIP3   OH227826   3.150   2.868   5.934
 9290TIP3    H127827   3.198   2.881   5.852
 9290TIP3    H227828   3.089   2.797   5.914
 9291TIP3   OH227829   4.707   4.784   1.893
 9291TIP3    H127830   4.618   4.750   1.903
 9291TIP3    H227831   4.755   4.748   1.968
 9292TIP3   OH227832   7.145   0.946   3.915
 9292TIP3    H127833   7.190   1.024   3.947
 9292TIP3    H227834   7.136   0.960   3.821
 9293TIP3   OH227835   2.483   5.685   2.395
 9293TIP3    H127836   2.548   5.701   2.326
 9293TIP3    H227837   2.535   5.666   2.473
 9294TIP3   OH227838   1.837   2.380   1.302
 9294TIP3    H127839   1.912   2.438   1.307
 9294TIP3    H227840   1.829   2.360   1.208
 9295TIP3   OH227841   1.335   0.051   1.403
 9295TIP3    H127842   1.367  -0.006   1.333
 9295TIP3    H227843   1.240   0.049   1.395
 9296TIP3   OH227844   4.212   3.968   1.184
 9296TIP3    H127845   4.177   3.885   1.217
 9296TIP3    H227846   4.135   4.024   1.173
 9297TIP3   OH227847   3.663   5.716   3.878
 9297TIP3    H127848   3.611   5.669   3.813
 9297TIP3    H227849   3.719   5.649   3.917
 9298TIP3   OH227850   8.224   7.368   4.849
 9298TIP3    H127851   8.163   7.294   4.853
 9298TIP3    H227852   8.270   7.358   4.766
 9299TIP3   OH227853   2.082   2.064   2.156
 9299TIP3    H127854   2.054   2.107   2.236
 9299TIP3    H227855   2.150   2.121   2.120
 9300TIP3   OH227856   8.238   1.923   0.089
 9300TIP3    H127857   8.256   1.986   0.020
 9300TIP3    H227858   8.207   1.975   0.163
 9301TIP3   OH227859   4.361   2.801   3.344
 9301TIP3    H127860   4.322   2.775   3.428
 9301TIP3    H227861   4.372   2.895   3.350
 9302TIP3   OH227862   3.618   0.826   6.516
 9302TIP3    H127863   3.591   0.904   6.468
 9302TIP3    H227864   3.702   0.801   6.478
 9303TIP3   OH227865   4.396   1.682   1.234
 9303TIP3    H127866   4.431   1.758   1.189
 9303TIP3    H227867   4.306   1.706   1.256
 9304TIP3   OH227868   1.616   0.583   5.318
 9304TIP3    H127869   1.604   0.617   5.230
 9304TIP3    H227870   1.682   0.514   5.309
 9305TIP3   OH227871   8.191   2.332   2.231
 9305TIP3    H127872   8.126   2.371   2.173
 9305TIP3    H227873   8.147   2.328   2.316
 9306TIP3   OH227874   1.586   4.243   1.736
 9306TIP3    H127875   1.540   4.315   1.778
 9306TIP3    H227876   1.653   4.285   1.682
 9307TIP3   OH227877   6.648   0.877   5.837
 9307TIP3    H127878   6.599   0.935   5.896
 9307TIP3    H227879   6.740   0.889   5.862
 9308TIP3   OH227880   7.111   6.241   0.733
 9308TIP3    H127881   7.144   6.216   0.646
 9308TIP3    H227882   7.150   6.327   0.749
 9309TIP3   OH227883   2.109   6.051   1.357
 9309TIP3    H127884   2.146   6.038   1.269
 9309TIP3    H227885   2.015   6.062   1.342
 9310TIP3   OH227886   5.251   6.508   1.538
 9310TIP3    H127887   5.214   6.493   1.625
 9310TIP3    H227888   5.342   6.479   1.546
 9311TIP3   OH227889   2.646   2.606   2.718
 9311TIP3    H127890   2.556   2.637   2.710
 9311TIP3    H227891   2.676   2.639   2.802
 9312TIP3   OH227892   7.965   0.629   3.652
 9312TIP3    H127893   7.902   0.615   3.581
 9312TIP3    H227894   8.050   0.609   3.613
 9313TIP3   OH227895   2.102   6.511   1.918
 9313TIP3    H127896   2.158   6.572   1.966
 9313TIP3    H227897   2.029   6.565   1.889
 9314TIP3   OH227898   8.009   5.833   4.963
 9314TIP3    H127899   8.093   5.879   4.967
 9314TIP3    H227900   7.956   5.885   4.903
 9315TIP3   OH227901   6.707   5.734   0.040
 9315TIP3    H127902   6.752   5.743   0.124
 9315TIP3    H227903   6.615   5.753   0.059
 9316TIP3   OH227904   6.545   7.175   2.968
 9316TIP3    H127905   6.553   7.083   2.943
 9316TIP3    H227906   6.499   7.173   3.052
 9317TIP3   OH227907   1.443   2.269   1.146
 9317TIP3    H127908   1.488   2.343   1.187
 9317TIP3    H227909   1.473   2.271   1.055
 9318TIP3   OH227910   7.119   3.343   6.621
 9318TIP3    H127911   7.086   3.253   6.620
 9318TIP3    H227912   7.175   3.347   6.698
 9319TIP3   OH227913   1.943   4.467   6.104
 9319TIP3    H127914   1.943   4.545   6.159
 9319TIP3    H227915   1.968   4.498   6.017
 9320TIP3   OH227916   4.759   6.985   0.928
 9320TIP3    H127917   4.671   6.946   0.928
 9320TIP3    H227918   4.744   7.078   0.914
 9321TIP3   OH227919   3.735   4.647   6.500
 9321TIP3    H127920   3.749   4.557   6.529
 9321TIP3    H227921   3.652   4.673   6.541
 9322TIP3   OH227922   3.924   7.445   6.808
 9322TIP3    H127923   3.883   7.526   6.838
 9322TIP3    H227924   3.948   7.463   6.717
 9323TIP3   OH227925   3.280   4.597   5.699
 9323TIP3    H127926   3.328   4.678   5.717
 9323TIP3    H227927   3.203   4.625   5.649
 9324TIP3   OH227928   1.907   3.638   3.604
 9324TIP3    H127929   1.963   3.665   3.677
 9324TIP3    H227930   1.823   3.681   3.620
 9325TIP3   OH227931   4.020   7.067   1.296
 9325TIP3    H127932   3.944   7.123   1.280
 9325TIP3    H227933   3.993   7.012   1.370
 9326TIP3   OH227934   3.751   6.852   0.642
 9326TIP3    H127935   3.672   6.900   0.668
 9326TIP3    H227936   3.736   6.831   0.549
 9327TIP3   OH227937   3.750   7.399   3.612
 9327TIP3    H127938   3.749   7.442   3.526
 9327TIP3    H227939   3.661   7.366   3.624
 9328TIP3   OH227940   3.813   2.031   6.180
 9328TIP3    H127941   3.815   2.001   6.089
 9328TIP3    H227942   3.876   2.103   6.183
 9329TIP3   OH227943   6.498   5.035   1.815
 9329TIP3    H127944   6.451   5.058   1.895
 9329TIP3    H227945   6.541   4.952   1.835
 9330TIP3   OH227946   7.317   3.231   6.264
 9330TIP3    H127947   7.340   3.315   6.302
 9330TIP3    H227948   7.311   3.247   6.170
 9331TIP3   OH227949   5.646   3.817   5.969
 9331TIP3    H127950   5.690   3.869   5.901
 9331TIP3    H227951   5.571   3.778   5.924
 9332TIP3   OH227952   2.285   4.373   1.239
 9332TIP3    H127953   2.335   4.453   1.257
 9332TIP3    H227954   2.330   4.333   1.164
 9333TIP3   OH227955   0.000   2.451   4.226
 9333TIP3    H127956   0.082   2.403   4.213
 9333TIP3    H227957  -0.055   2.391   4.278
 9334TIP3   OH227958   7.696   4.058   5.031
 9334TIP3    H127959   7.743   4.141   5.039
 9334TIP3    H227960   7.723   4.007   5.108
 9335TIP3   OH227961   2.004   2.538   4.205
 9335TIP3    H127962   2.065   2.610   4.188
 9335TIP3    H227963   2.051   2.460   4.175
 9336TIP3   OH227964   3.660   0.559   3.729
 9336TIP3    H127965   3.711   0.614   3.670
 9336TIP3    H227966   3.579   0.608   3.743
 9337TIP3   OH227967   1.206   3.506   5.900
 9337TIP3    H127968   1.224   3.443   5.970
 9337TIP3    H227969   1.212   3.455   5.820
 9338TIP3   OH227970   3.920   5.828   6.769
 9338TIP3    H127971   3.930   5.890   6.840
 9338TIP3    H227972   4.002   5.834   6.720
 9339TIP3   OH227973   4.781   1.803   6.238
 9339TIP3    H127974   4.820   1.723   6.274
 9339TIP3    H227975   4.694   1.775   6.208
 9340TIP3   OH227976   7.205   1.001   0.265
 9340TIP3    H127977   7.182   1.046   0.346
 9340TIP3    H227978   7.234   1.071   0.206
 9341TIP3   OH227979   5.708   3.285   4.695
 9341TIP3    H127980   5.729   3.261   4.786
 9341TIP3    H227981   5.675   3.374   4.701
 9342TIP3   OH227982   1.621   0.807   2.332
 9342TIP3    H127983   1.693   0.800   2.395
 9342TIP3    H227984   1.651   0.756   2.257
 9343TIP3   OH227985   4.818   6.895   3.435
 9343TIP3    H127986   4.753   6.829   3.459
 9343TIP3    H227987   4.858   6.862   3.355
 9344TIP3   OH227988   2.772   0.439   4.753
 9344TIP3    H127989   2.867   0.451   4.751
 9344TIP3    H227990   2.753   0.412   4.843
 9345TIP3   OH227991   2.697   4.793   4.908
 9345TIP3    H127992   2.640   4.818   4.981
 9345TIP3    H227993   2.682   4.860   4.841
 9346TIP3   OH227994   0.259   4.238   1.204
 9346TIP3    H127995   0.235   4.288   1.282
 9346TIP3    H227996   0.248   4.300   1.132
 9347TIP3   OH227997   4.061   3.829   0.534
 9347TIP3    H127998   3.970   3.829   0.504
 9347TIP3    H227999   4.068   3.752   0.590
 9348TIP3   OH228000   6.040   1.980   2.657
 9348TIP3    H128001   6.047   1.891   2.623
 9348TIP3    H228002   5.946   1.996   2.662
 9349TIP3   OH228003   3.814   1.367   3.250
 9349TIP3    H128004   3.851   1.394   3.334
 9349TIP3    H228005   3.782   1.278   3.266
 9350TIP3   OH228006   1.946   0.940   5.012
 9350TIP3    H128007   1.962   0.929   5.105
 9350TIP3    H228008   1.953   1.034   4.997
 9351TIP3   OH228009   6.593   5.422   3.864
 9351TIP3    H128010   6.636   5.423   3.779
 9351TIP3    H228011   6.508   5.464   3.848
 9352TIP3   OH228012   7.592   5.542   2.008
 9352TIP3    H128013   7.605   5.598   2.085
 9352TIP3    H228014   7.680   5.508   1.989
 9353TIP3   OH228015   0.588   0.802   4.223
 9353TIP3    H128016   0.628   0.715   4.220
 9353TIP3    H228017   0.638   0.847   4.291
 9354TIP3   OH228018   0.752   3.594   4.166
 9354TIP3    H128019   0.748   3.512   4.118
 9354TIP3    H228020   0.815   3.647   4.118
 9355TIP3   OH228021   2.323   1.774   5.140
 9355TIP3    H128022   2.406   1.731   5.160
 9355TIP3    H228023   2.339   1.823   5.060
 9356TIP3   OH228024   4.114   2.462   2.757
 9356TIP3    H128025   4.177   2.465   2.829
 9356TIP3    H228026   4.084   2.371   2.755
 9357TIP3   OH228027   1.995   2.070   0.939
 9357TIP3    H128028   2.082   2.073   0.900
 9357TIP3    H228029   1.935   2.094   0.868
 9358TIP3   OH228030   3.452   5.551   3.670
 9358TIP3    H128031   3.427   5.591   3.587
 9358TIP3    H228032   3.521   5.489   3.647
 9359TIP3   OH228033   8.254   6.968   4.876
 9359TIP3    H128034   8.190   6.905   4.842
 9359TIP3    H228035   8.243   6.965   4.971
 9360TIP3   OH228036   1.613   5.749   6.408
 9360TIP3    H128037   1.696   5.792   6.386
 9360TIP3    H228038   1.610   5.672   6.351
 9361TIP3   OH228039   1.954   6.260   5.342
 9361TIP3    H128040   2.040   6.295   5.319
 9361TIP3    H228041   1.897   6.286   5.269
 9362TIP3   OH228042   5.186   3.419   0.746
 9362TIP3    H128043   5.119   3.480   0.716
 9362TIP3    H228044   5.179   3.344   0.687
 9363TIP3   OH228045   7.660   0.894   2.419
 9363TIP3    H128046   7.601   0.968   2.430
 9363TIP3    H228047   7.612   0.819   2.454
 9364TIP3   OH228048   7.348   7.007   0.942
 9364TIP3    H128049   7.388   7.053   0.868
 9364TIP3    H228050   7.422   6.962   0.984
 9365TIP3   OH228051   5.159   1.307   0.697
 9365TIP3    H128052   5.086   1.310   0.635
 9365TIP3    H228053   5.208   1.387   0.679
 9366TIP3   OH228054   1.285   7.010   2.613
 9366TIP3    H128055   1.300   7.007   2.519
 9366TIP3    H228056   1.193   7.034   2.623
 9367TIP3   OH228057   3.918   4.712   4.449
 9367TIP3    H128058   4.001   4.690   4.407
 9367TIP3    H228059   3.860   4.734   4.377
 9368TIP3   OH228060   6.840   5.062   4.363
 9368TIP3    H128061   6.794   5.044   4.281
 9368TIP3    H228062   6.930   5.034   4.348
 9369TIP3   OH228063   4.328   6.452   1.412
 9369TIP3    H128064   4.271   6.525   1.436
 9369TIP3    H228065   4.415   6.490   1.406
 9370TIP3   OH228066   4.866   2.127   4.670
 9370TIP3    H128067   4.814   2.189   4.722
 9370TIP3    H228068   4.926   2.088   4.734
 9371TIP3   OH228069   5.128   0.151   2.858
 9371TIP3    H128070   5.061   0.210   2.821
 9371TIP3    H228071   5.202   0.158   2.798
 9372TIP3   OH228072   6.735   2.480   1.908
 9372TIP3    H128073   6.762   2.453   1.996
 9372TIP3    H228074   6.790   2.556   1.888
 9373TIP3   OH228075   3.038   6.545   6.506
 9373TIP3    H128076   3.073   6.502   6.428
 9373TIP3    H228077   3.095   6.621   6.520
 9374TIP3   OH228078   4.396   3.391   0.400
 9374TIP3    H128079   4.476   3.444   0.400
 9374TIP3    H228080   4.419   3.314   0.349
 9375TIP3   OH228081   8.137   2.698   0.459
 9375TIP3    H128082   8.148   2.633   0.389
 9375TIP3    H228083   8.055   2.673   0.502
 9376TIP3   OH228084   1.816   7.694   3.284
 9376TIP3    H128085   1.906   7.687   3.316
 9376TIP3    H228086   1.824   7.689   3.188
 9377TIP3   OH228087   6.112   7.493   0.058
 9377TIP3    H128088   6.061   7.462  -0.016
 9377TIP3    H228089   6.113   7.420   0.119
 9378TIP3   OH228090   1.026   1.360   3.531
 9378TIP3    H128091   1.075   1.442   3.531
 9378TIP3    H228092   0.977   1.361   3.613
 9379TIP3   OH228093   4.427   0.618   6.633
 9379TIP3    H128094   4.499   0.596   6.574
 9379TIP3    H228095   4.386   0.533   6.654
 9380TIP3   OH228096   8.125   7.705   5.690
 9380TIP3    H128097   8.085   7.747   5.614
 9380TIP3    H228098   8.219   7.713   5.675
 9381TIP3   OH228099   7.697   3.917   4.472
 9381TIP3    H128100   7.662   3.829   4.487
 9381TIP3    H228101   7.653   3.972   4.537
 9382TIP3   OH228102   0.960   2.001   4.601
 9382TIP3    H128103   0.928   1.955   4.678
 9382TIP3    H228104   0.884   2.006   4.542
 9383TIP3   OH228105   4.909   3.759   1.032
 9383TIP3    H128106   4.820   3.740   1.003
 9383TIP3    H228107   4.936   3.681   1.080
 9384TIP3   OH228108   7.637   2.761   1.639
 9384TIP3    H128109   7.553   2.781   1.680
 9384TIP3    H228110   7.655   2.671   1.664
 9385TIP3   OH228111   7.691   0.087   4.261
 9385TIP3    H128112   7.676   0.002   4.303
 9385TIP3    H228113   7.785   0.102   4.269
 9386TIP3   OH228114   6.903   3.747   1.955
 9386TIP3    H128115   6.990   3.713   1.935
 9386TIP3    H228116   6.907   3.839   1.929
 9387TIP3   OH228117   8.158   1.175   3.516
 9387TIP3    H128118   8.083   1.122   3.542
 9387TIP3    H228119   8.160   1.169   3.421
 9388TIP3   OH228120   5.825   0.888   3.386
 9388TIP3    H128121   5.912   0.918   3.412
 9388TIP3    H228122   5.813   0.805   3.433
 9389TIP3   OH228123   4.315   3.680   6.570
 9389TIP3    H128124   4.371   3.616   6.525
 9389TIP3    H228125   4.375   3.750   6.593
 9390TIP3   OH228126   7.475   1.474   4.638
 9390TIP3    H128127   7.472   1.396   4.583
 9390TIP3    H228128   7.399   1.526   4.610
 9391TIP3   OH228129   2.616   2.500   0.530
 9391TIP3    H128130   2.555   2.569   0.554
 9391TIP3    H228131   2.577   2.459   0.452
 9392TIP3   OH228132   4.031   0.065   3.337
 9392TIP3    H128133   4.065   0.146   3.299
 9392TIP3    H228134   3.962   0.094   3.397
 9393TIP3   OH228135   6.151   4.021   3.321
 9393TIP3    H128136   6.163   4.030   3.416
 9393TIP3    H228137   6.156   4.111   3.288
 9394TIP3   OH228138   7.842   6.918   6.255
 9394TIP3    H128139   7.754   6.934   6.289
 9394TIP3    H228140   7.849   6.975   6.179
 9395TIP3   OH228141   4.636   0.271   0.859
 9395TIP3    H128142   4.574   0.331   0.815
 9395TIP3    H228143   4.580   0.213   0.911
 9396TIP3   OH228144   1.076   4.344   3.532
 9396TIP3    H128145   1.092   4.418   3.473
 9396TIP3    H228146   1.031   4.383   3.607
 9397TIP3   OH228147   7.687   4.257   3.964
 9397TIP3    H128148   7.649   4.189   3.909
 9397TIP3    H228149   7.698   4.216   4.050
 9398TIP3   OH228150   2.789   6.412   1.001
 9398TIP3    H128151   2.833   6.365   0.930
 9398TIP3    H228152   2.846   6.488   1.019
 9399TIP3   OH228153   6.851   5.061   5.515
 9399TIP3    H128154   6.826   5.019   5.433
 9399TIP3    H228155   6.946   5.051   5.519
 9400TIP3   OH228156   5.098   3.371   4.583
 9400TIP3    H128157   5.063   3.325   4.659
 9400TIP3    H228158   5.173   3.319   4.555
 9401TIP3   OH228159   4.573   5.009   1.784
 9401TIP3    H128160   4.521   5.011   1.865
 9401TIP3    H228161   4.594   4.916   1.771
 9402TIP3   OH228162   0.435   7.010   4.716
 9402TIP3    H128163   0.370   7.080   4.714
 9402TIP3    H228164   0.417   6.964   4.798
 9403TIP3   OH228165   5.111   5.585   3.440
 9403TIP3    H128166   5.072   5.585   3.527
 9403TIP3    H228167   5.077   5.506   3.398
 9404TIP3   OH228168   0.531   0.057   5.598
 9404TIP3    H128169   0.593   0.066   5.526
 9404TIP3    H228170   0.469   0.130   5.586
 9405TIP3   OH228171   1.087   2.878   0.533
 9405TIP3    H128172   1.038   2.944   0.484
 9405TIP3    H228173   1.064   2.795   0.490
 9406TIP3   OH228174   4.475   3.679   2.240
 9406TIP3    H128175   4.504   3.635   2.320
 9406TIP3    H228176   4.525   3.638   2.170
 9407TIP3   OH228177   5.523   7.646   3.634
 9407TIP3    H128178   5.523   7.724   3.578
 9407TIP3    H228179   5.512   7.681   3.723
 9408TIP3   OH228180   7.918   0.298   3.440
 9408TIP3    H128181   7.948   0.258   3.521
 9408TIP3    H228182   7.835   0.254   3.421
 9409TIP3   OH228183   6.979   2.460   4.882
 9409TIP3    H128184   6.993   2.457   4.787
 9409TIP3    H228185   7.042   2.524   4.914
 9410TIP3   OH228186   4.895   4.414   0.878
 9410TIP3    H128187   4.876   4.354   0.806
 9410TIP3    H228188   4.859   4.498   0.849
 9411TIP3   OH228189   4.733   2.764   1.980
 9411TIP3    H128190   4.659   2.821   1.963
 9411TIP3    H228191   4.807   2.824   1.995
 9412TIP3   OH228192   1.164   3.941   1.990
 9412TIP3    H128193   1.257   3.918   1.992
 9412TIP3    H228194   1.163   4.036   1.976
 9413TIP3   OH228195   5.038   5.367   0.814
 9413TIP3    H128196   5.000   5.296   0.866
 9413TIP3    H228197   4.981   5.373   0.737
 9414TIP3   OH228198   1.747   4.366   5.528
 9414TIP3    H128199   1.723   4.446   5.575
 9414TIP3    H228200   1.663   4.324   5.508
 9415TIP3   OH228201   1.568   0.317   5.673
 9415TIP3    H128202   1.593   0.409   5.663
 9415TIP3    H228203   1.634   0.282   5.733
 9416TIP3   OH228204   7.204   1.455   4.339
 9416TIP3    H128205   7.246   1.413   4.264
 9416TIP3    H228206   7.135   1.394   4.365
 9417TIP3   OH228207   1.318   0.031   4.396
 9417TIP3    H128208   1.353  -0.046   4.440
 9417TIP3    H228209   1.223   0.023   4.404
 9418TIP3   OH228210   2.409   6.783   5.962
 9418TIP3    H128211   2.368   6.782   6.049
 9418TIP3    H228212   2.461   6.863   5.962
 9419TIP3   OH228213   1.985   5.417   5.023
 9419TIP3    H128214   2.076   5.441   5.009
 9419TIP3    H228215   1.935   5.491   4.988
 9420TIP3   OH228216   5.374   3.146   6.137
 9420TIP3    H128217   5.469   3.148   6.123
 9420TIP3    H228218   5.343   3.229   6.102
 9421TIP3   OH228219   7.541   5.843   0.480
 9421TIP3    H128220   7.564   5.933   0.459
 9421TIP3    H228221   7.479   5.817   0.412
 9422TIP3   OH228222   2.123   4.826   1.815
 9422TIP3    H128223   2.049   4.827   1.754
 9422TIP3    H228224   2.178   4.900   1.787
 9423TIP3   OH228225   3.170   3.788   3.667
 9423TIP3    H128226   3.140   3.792   3.758
 9423TIP3    H228227   3.220   3.707   3.662
 9424TIP3   OH228228   0.068   6.015   3.413
 9424TIP3    H128229   0.002   5.947   3.399
 9424TIP3    H228230   0.121   5.981   3.486
 9425TIP3   OH228231   6.001   5.664   4.724
 9425TIP3    H128232   5.954   5.582   4.735
 9425TIP3    H228233   6.087   5.638   4.693
 9426TIP3   OH228234   0.986   1.444   1.659
 9426TIP3    H128235   1.057   1.476   1.715
 9426TIP3    H228236   1.013   1.466   1.570
 9427TIP3   OH228237   7.789   2.860   4.431
 9427TIP3    H128238   7.787   2.936   4.488
 9427TIP3    H228239   7.718   2.874   4.368
 9428TIP3   OH228240   4.276   3.518   2.787
 9428TIP3    H128241   4.339   3.490   2.720
 9428TIP3    H228242   4.249   3.606   2.759
 9429TIP3   OH228243   3.019   0.706   6.347
 9429TIP3    H128244   3.020   0.630   6.289
 9429TIP3    H228245   2.996   0.670   6.433
 9430TIP3   OH228246   5.808   1.455   4.382
 9430TIP3    H128247   5.742   1.518   4.411
 9430TIP3    H228248   5.855   1.500   4.311
 9431TIP3   OH228249   7.691   3.828   5.776
 9431TIP3    H128250   7.667   3.778   5.854
 9431TIP3    H228251   7.785   3.846   5.787
 9432TIP3   OH228252   0.363   0.646   3.294
 9432TIP3    H128253   0.343   0.582   3.226
 9432TIP3    H228254   0.344   0.600   3.376
 9433TIP3   OH228255   6.123   2.861   2.584
 9433TIP3    H128256   6.143   2.837   2.674
 9433TIP3    H228257   6.076   2.786   2.548
 9434TIP3   OH228258   1.622   5.483   5.140
 9434TIP3    H128259   1.660   5.571   5.139
 9434TIP3    H228260   1.696   5.425   5.154
 9435TIP3   OH228261   5.071   3.735   3.781
 9435TIP3    H128262   5.008   3.691   3.836
 9435TIP3    H228263   5.103   3.808   3.834
 9436TIP3   OH228264   7.065   3.549   0.261
 9436TIP3    H128265   7.014   3.574   0.184
 9436TIP3    H228266   7.113   3.628   0.285
 9437TIP3   OH228267   4.099   0.178   5.708
 9437TIP3    H128268   4.194   0.169   5.708
 9437TIP3    H228269   4.069   0.111   5.647
 9438TIP3   OH228270   4.470   7.017   0.129
 9438TIP3    H128271   4.407   7.048   0.194
 9438TIP3    H228272   4.537   6.972   0.180
 9439TIP3   OH228273   2.187   6.246   2.743
 9439TIP3    H128274   2.168   6.317   2.683
 9439TIP3    H228275   2.282   6.251   2.756
 9440TIP3   OH228276   7.188   1.183   5.731
 9440TIP3    H128277   7.273   1.144   5.708
 9440TIP3    H228278   7.126   1.142   5.671
 9441TIP3   OH228279   1.831   3.391   2.305
 9441TIP3    H128280   1.753   3.366   2.354
 9441TIP3    H228281   1.874   3.457   2.359
 9442TIP3   OH228282   3.780   5.093   3.323
 9442TIP3    H128283   3.796   5.161   3.388
 9442TIP3    H228284   3.867   5.055   3.306
 9443TIP3   OH228285   1.373   6.247   6.509
 9443TIP3    H128286   1.429   6.183   6.553
 9443TIP3    H228287   1.327   6.195   6.442
 9444TIP3   OH228288   2.668   3.207   1.193
 9444TIP3    H128289   2.620   3.158   1.260
 9444TIP3    H228290   2.649   3.161   1.111
 9445TIP3   OH228291   6.296   3.426   2.388
 9445TIP3    H128292   6.358   3.450   2.319
 9445TIP3    H228293   6.332   3.468   2.467
 9446TIP3   OH228294   2.661   2.806   1.908
 9446TIP3    H128295   2.643   2.897   1.931
 9446TIP3    H228296   2.632   2.755   1.984
 9447TIP3   OH228297   5.267   5.121   0.262
 9447TIP3    H128298   5.215   5.058   0.211
 9447TIP3    H228299   5.355   5.084   0.263
 9448TIP3   OH228300   4.909   3.150   5.339
 9448TIP3    H128301   4.871   3.238   5.346
 9448TIP3    H228302   4.990   3.156   5.390
 9449TIP3   OH228303   6.611   7.696   5.812
 9449TIP3    H128304   6.595   7.620   5.868
 9449TIP3    H228305   6.526   7.714   5.772
 9450TIP3   OH228306   4.701   5.358   4.567
 9450TIP3    H128307   4.606   5.358   4.568
 9450TIP3    H228308   4.724   5.377   4.476
 9451TIP3   OH228309   7.968   5.789   3.342
 9451TIP3    H128310   7.936   5.706   3.377
 9451TIP3    H228311   7.889   5.836   3.316
 9452TIP3   OH228312   1.448   6.020   4.759
 9452TIP3    H128313   1.509   5.984   4.823
 9452TIP3    H228314   1.395   5.945   4.731
 9453TIP3   OH228315   8.136   7.009   2.111
 9453TIP3    H128316   8.130   6.982   2.019
 9453TIP3    H228317   8.089   7.092   2.114
 9454TIP3   OH228318   4.209   2.146   4.997
 9454TIP3    H128319   4.214   2.196   5.078
 9454TIP3    H228320   4.296   2.108   4.986
 9455TIP3   OH228321   7.360   0.558   3.219
 9455TIP3    H128322   7.281   0.505   3.218
 9455TIP3    H228323   7.432   0.496   3.204
 9456TIP3   OH228324   3.910   1.363   1.103
 9456TIP3    H128325   4.001   1.337   1.119
 9456TIP3    H228326   3.872   1.288   1.057
 9457TIP3   OH228327   5.521   3.397   4.921
 9457TIP3    H128328   5.555   3.308   4.926
 9457TIP3    H228329   5.537   3.434   5.008
 9458TIP3   OH228330   0.750   7.581   0.786
 9458TIP3    H128331   0.776   7.537   0.867
 9458TIP3    H228332   0.766   7.516   0.718
 9459TIP3   OH228333   1.283   1.114   2.732
 9459TIP3    H128334   1.310   1.077   2.816
 9459TIP3    H228335   1.195   1.080   2.717
 9460TIP3   OH228336   4.689   2.134   1.046
 9460TIP3    H128337   4.685   2.062   1.109
 9460TIP3    H228338   4.718   2.209   1.097
 9461TIP3   OH228339   2.609   4.272   3.867
 9461TIP3    H128340   2.701   4.296   3.855
 9461TIP3    H228341   2.577   4.251   3.779
 9462TIP3   OH228342   0.498   5.501   2.214
 9462TIP3    H128343   0.467   5.412   2.232
 9462TIP3    H228344   0.437   5.558   2.262
 9463TIP3   OH228345   7.205   2.722   3.890
 9463TIP3    H128346   7.207   2.680   3.803
 9463TIP3    H228347   7.231   2.812   3.873
 9464TIP3   OH228348   0.365   4.517   6.739
 9464TIP3    H128349   0.431   4.586   6.740
 9464TIP3    H228350   0.293   4.553   6.687
 9465TIP3   OH228351   4.207   2.493   2.999
 9465TIP3    H128352   4.209   2.408   3.042
 9465TIP3    H228353   4.191   2.556   3.070
 9466TIP3   OH228354   4.132   7.226   1.061
 9466TIP3    H128355   4.098   7.246   1.149
 9466TIP3    H228356   4.177   7.142   1.072
 9467TIP3   OH228357   5.906   5.772   5.182
 9467TIP3    H128358   5.910   5.703   5.116
 9467TIP3    H228359   5.821   5.759   5.225
 9468TIP3   OH228360   4.099   7.322   5.615
 9468TIP3    H128361   4.007   7.321   5.642
 9468TIP3    H228362   4.141   7.260   5.675
 9469TIP3   OH228363   1.244   4.300   5.719
 9469TIP3    H128364   1.281   4.228   5.770
 9469TIP3    H228365   1.292   4.297   5.636
 9470TIP3   OH228366   0.020   3.339   5.909
 9470TIP3    H128367  -0.031   3.269   5.949
 9470TIP3    H228368   0.031   3.404   5.978
 9471TIP3   OH228369   7.548   7.748   4.728
 9471TIP3    H128370   7.594   7.814   4.676
 9471TIP3    H228371   7.475   7.795   4.768
 9472TIP3   OH228372   2.000   5.377   0.168
 9472TIP3    H128373   2.056   5.421   0.231
 9472TIP3    H228374   2.050   5.377   0.087
 9473TIP3   OH228375   7.884   3.967   3.496
 9473TIP3    H128376   7.923   3.879   3.500
 9473TIP3    H228377   7.940   4.021   3.550
 9474TIP3   OH228378   1.446   3.234   1.469
 9474TIP3    H128379   1.414   3.150   1.500
 9474TIP3    H228380   1.473   3.280   1.549
 9475TIP3   OH228381   3.556   5.805   3.371
 9475TIP3    H128382   3.497   5.730   3.365
 9475TIP3    H228383   3.571   5.832   3.281
 9476TIP3   OH228384   4.509   3.046   4.832
 9476TIP3    H128385   4.458   2.981   4.881
 9476TIP3    H228386   4.588   2.998   4.805
 9477TIP3   OH228387   5.823   6.533   2.262
 9477TIP3    H128388   5.915   6.543   2.287
 9477TIP3    H228389   5.826   6.508   2.169
 9478TIP3   OH228390   0.503   0.614   3.713
 9478TIP3    H128391   0.591   0.650   3.723
 9478TIP3    H228392   0.445   0.688   3.729
 9479TIP3   OH228393   7.072   2.726   5.657
 9479TIP3    H128394   7.141   2.739   5.722
 9479TIP3    H228395   7.006   2.792   5.680
 9480TIP3   OH228396   5.745   3.387   3.215
 9480TIP3    H128397   5.745   3.363   3.308
 9480TIP3    H228398   5.819   3.337   3.178
 9481TIP3   OH228399   6.152   1.051   1.207
 9481TIP3    H128400   6.075   1.018   1.161
 9481TIP3    H228401   6.135   1.033   1.299
 9482TIP3   OH228402   7.799   7.135   6.033
 9482TIP3    H128403   7.890   7.155   6.056
 9482TIP3    H228404   7.748   7.190   6.092
 9483TIP3   OH228405   6.577   0.991   2.565
 9483TIP3    H128406   6.619   1.065   2.610
 9483TIP3    H228407   6.628   0.915   2.592
 9484TIP3   OH228408   4.988   0.609   2.438
 9484TIP3    H128409   4.929   0.573   2.372
 9484TIP3    H228410   4.941   0.597   2.521
 9485TIP3   OH228411   6.564   7.413   6.718
 9485TIP3    H128412   6.472   7.436   6.734
 9485TIP3    H228413   6.574   7.415   6.623
 9486TIP3   OH228414   0.445   6.062   3.506
 9486TIP3    H128415   0.405   6.010   3.436
 9486TIP3    H228416   0.512   6.004   3.543
 9487TIP3   OH228417   2.255   1.712   0.492
 9487TIP3    H128418   2.341   1.751   0.506
 9487TIP3    H228419   2.248   1.702   0.397
 9488TIP3   OH228420   5.277   1.576   4.209
 9488TIP3    H128421   5.223   1.645   4.170
 9488TIP3    H228422   5.271   1.503   4.148
 9489TIP3   OH228423   7.299   7.399   5.799
 9489TIP3    H128424   7.365   7.439   5.742
 9489TIP3    H228425   7.279   7.467   5.863
 9490TIP3   OH228426   4.775   5.895   4.409
 9490TIP3    H128427   4.749   5.825   4.469
 9490TIP3    H228428   4.733   5.871   4.326
 9491TIP3   OH228429   7.734   5.284   5.211
 9491TIP3    H128430   7.722   5.348   5.280
 9491TIP3    H228431   7.817   5.308   5.170
 9492TIP3   OH228432   6.335   7.226   1.101
 9492TIP3    H128433   6.261   7.282   1.123
 9492TIP3    H228434   6.323   7.206   1.008
 9493TIP3   OH228435   1.659   7.364   0.333
 9493TIP3    H128436   1.688   7.277   0.360
 9493TIP3    H228437   1.565   7.353   0.315
 9494TIP3   OH228438   2.584   3.244   5.657
 9494TIP3    H128439   2.648   3.253   5.727
 9494TIP3    H228440   2.566   3.334   5.629
 9495TIP3   OH228441   1.387   1.663   2.101
 9495TIP3    H128442   1.445   1.718   2.050
 9495TIP3    H228443   1.418   1.670   2.191
 9496TIP3   OH228444   3.998   2.445   2.173
 9496TIP3    H128445   4.094   2.455   2.178
 9496TIP3    H228446   3.973   2.493   2.094
 9497TIP3   OH228447   6.536   6.797   4.442
 9497TIP3    H128448   6.533   6.703   4.458
 9497TIP3    H228449   6.446   6.827   4.455
 9498TIP3   OH228450   0.881   1.781   6.455
 9498TIP3    H128451   0.915   1.866   6.429
 9498TIP3    H228452   0.950   1.719   6.432
 9499TIP3   OH228453   4.192   2.670   4.741
 9499TIP3    H128454   4.200   2.576   4.760
 9499TIP3    H228455   4.193   2.675   4.646
 9500TIP3   OH228456   3.003   0.132   0.496
 9500TIP3    H128457   3.081   0.178   0.464
 9500TIP3    H228458   2.974   0.079   0.422
 9501TIP3   OH228459   2.328   4.657   1.016
 9501TIP3    H128460   2.297   4.595   0.949
 9501TIP3    H228461   2.418   4.677   0.991
 9502TIP3   OH228462   3.599   3.597   6.236
 9502TIP3    H128463   3.522   3.567   6.189
 9502TIP3    H228464   3.567   3.669   6.291
 9503TIP3   OH228465   6.949   4.418   1.102
 9503TIP3    H128466   6.857   4.395   1.115
 9503TIP3    H228467   6.965   4.400   1.009
 9504TIP3   OH228468   5.711   2.837   2.841
 9504TIP3    H128469   5.730   2.778   2.767
 9504TIP3    H228470   5.704   2.778   2.916
 9505TIP3   OH228471   2.305   3.647   2.138
 9505TIP3    H128472   2.302   3.743   2.142
 9505TIP3    H228473   2.399   3.626   2.138
 9506TIP3   OH228474   5.808   0.280   0.672
 9506TIP3    H128475   5.795   0.239   0.587
 9506TIP3    H228476   5.735   0.342   0.681
 9507TIP3   OH228477   7.106   3.112   5.125
 9507TIP3    H128478   7.102   3.158   5.209
 9507TIP3    H228479   7.098   3.181   5.059
 9508TIP3   OH228480   7.089   3.161   5.385
 9508TIP3    H128481   7.133   3.213   5.453
 9508TIP3    H228482   7.009   3.129   5.427
 9509TIP3   OH228483   4.366   4.124   0.360
 9509TIP3    H128484   4.273   4.144   0.368
 9509TIP3    H228485   4.409   4.209   0.353
 9510TIP3   OH228486   3.797   3.899   0.485
 9510TIP3    H128487   3.758   3.986   0.483
 9510TIP3    H228488   3.797   3.875   0.578
 9511TIP3   OH228489   4.400   5.628   0.996
 9511TIP3    H128490   4.452   5.559   0.956
 9511TIP3    H228491   4.399   5.698   0.931
 9512TIP3   OH228492   5.719   0.101   4.578
 9512TIP3    H128493   5.719   0.052   4.496
 9512TIP3    H228494   5.765   0.044   4.639
 9513TIP3   OH228495   6.009   7.633   5.707
 9513TIP3    H128496   6.024   7.721   5.672
 9513TIP3    H228497   6.074   7.622   5.776
 9514TIP3   OH228498   3.901   5.012   0.013
 9514TIP3    H128499   3.969   4.999  -0.053
 9514TIP3    H228500   3.904   5.105   0.034
 9515TIP3   OH228501   4.793   7.575   5.265
 9515TIP3    H128502   4.774   7.502   5.324
 9515TIP3    H228503   4.707   7.614   5.247
 9516TIP3   OH228504   5.432   0.078   3.951
 9516TIP3    H128505   5.400  -0.001   3.907
 9516TIP3    H228506   5.450   0.139   3.879
 9517TIP3   OH228507   0.535   3.644   5.535
 9517TIP3    H128508   0.452   3.691   5.545
 9517TIP3    H228509   0.598   3.696   5.586
 9518TIP3   OH228510   7.526   0.988   3.485
 9518TIP3    H128511   7.518   0.932   3.408
 9518TIP3    H228512   7.604   0.957   3.530
 9519TIP3   OH228513   2.011   3.838   0.437
 9519TIP3    H128514   2.079   3.890   0.480
 9519TIP3    H228515   2.060   3.781   0.378
 9520TIP3   OH228516   7.437   7.526   2.676
 9520TIP3    H128517   7.532   7.527   2.688
 9520TIP3    H228518   7.411   7.618   2.682
 9521TIP3   OH228519   2.855   3.976   1.350
 9521TIP3    H128520   2.930   3.917   1.358
 9521TIP3    H228521   2.790   3.925   1.301
 9522TIP3   OH228522   0.217   3.689   6.579
 9522TIP3    H128523   0.277   3.620   6.606
 9522TIP3    H228524   0.181   3.723   6.661
 9523TIP3   OH228525   3.293   5.662   2.405
 9523TIP3    H128526   3.370   5.717   2.392
 9523TIP3    H228527   3.268   5.677   2.496
 9524TIP3   OH228528   1.091   4.670   1.429
 9524TIP3    H128529   1.138   4.610   1.371
 9524TIP3    H228530   1.018   4.618   1.463
 9525TIP3   OH228531   3.791   3.225   0.892
 9525TIP3    H128532   3.817   3.221   0.800
 9525TIP3    H228533   3.873   3.237   0.940
 9526TIP3   OH228534   6.004   4.482   5.257
 9526TIP3    H128535   5.919   4.503   5.297
 9526TIP3    H228536   6.068   4.502   5.325
 9527TIP3   OH228537   4.021   6.038   2.376
 9527TIP3    H128538   3.991   6.086   2.453
 9527TIP3    H228539   4.114   6.062   2.367
 9528TIP3   OH228540   6.091   2.670   4.954
 9528TIP3    H128541   6.114   2.579   4.973
 9528TIP3    H228542   6.038   2.664   4.874
 9529TIP3   OH228543   4.799   3.553   6.405
 9529TIP3    H128544   4.741   3.590   6.339
 9529TIP3    H228545   4.754   3.473   6.434
 9530TIP3   OH228546   1.583   6.971   5.613
 9530TIP3    H128547   1.652   6.938   5.670
 9530TIP3    H228548   1.629   7.009   5.539
 9531TIP3   OH228549   0.223   2.015   5.216
 9531TIP3    H128550   0.279   1.947   5.178
 9531TIP3    H228551   0.229   2.088   5.155
 9532TIP3   OH228552   5.003  -0.015   0.754
 9532TIP3    H128553   5.030   0.045   0.684
 9532TIP3    H228554   5.080  -0.068   0.772
 9533TIP3   OH228555   4.884   5.050   2.728
 9533TIP3    H128556   4.971   5.010   2.734
 9533TIP3    H228557   4.837   5.018   2.805
 9534TIP3   OH228558   5.833   4.298   5.158
 9534TIP3    H128559   5.914   4.343   5.184
 9534TIP3    H228560   5.835   4.301   5.062
 9535TIP3   OH228561   6.512   3.627   5.005
 9535TIP3    H128562   6.494   3.658   5.093
 9535TIP3    H228563   6.569   3.550   5.018
 9536TIP3   OH228564   7.134   0.693   5.507
 9536TIP3    H128565   7.227   0.693   5.483
 9536TIP3    H228566   7.092   0.747   5.440
 9537TIP3   OH228567   7.344   2.869   5.035
 9537TIP3    H128568   7.286   2.876   4.959
 9537TIP3    H228569   7.378   2.779   5.031
 9538TIP3   OH228570   3.036   4.694   6.364
 9538TIP3    H128571   3.093   4.755   6.316
 9538TIP3    H228572   3.086   4.669   6.441
 9539TIP3   OH228573   8.291   5.726   2.770
 9539TIP3    H128574   8.276   5.705   2.677
 9539TIP3    H228575   8.243   5.658   2.817
 9540TIP3   OH228576   5.974   0.877   5.731
 9540TIP3    H128577   5.917   0.801   5.744
 9540TIP3    H228578   5.984   0.883   5.636
 9541TIP3   OH228579   6.749   4.244   0.084
 9541TIP3    H128580   6.746   4.330   0.040
 9541TIP3    H228581   6.820   4.252   0.147
 9542TIP3   OH228582   6.575   6.732   5.421
 9542TIP3    H128583   6.487   6.762   5.445
 9542TIP3    H228584   6.627   6.813   5.415
 9543TIP3   OH228585   5.058   0.971   4.578
 9543TIP3    H128586   5.086   0.982   4.669
 9543TIP3    H228587   5.125   1.015   4.527
 9544TIP3   OH228588   3.195   7.513   3.238
 9544TIP3    H128589   3.164   7.501   3.327
 9544TIP3    H228590   3.272   7.457   3.232
 9545TIP3   OH228591   7.236   2.795   5.868
 9545TIP3    H128592   7.225   2.788   5.962
 9545TIP3    H228593   7.224   2.889   5.850
 9546TIP3   OH228594   7.938   7.865   6.250
 9546TIP3    H128595   7.852   7.889   6.216
 9546TIP3    H228596   7.954   7.776   6.219
 9547TIP3   OH228597   0.563   2.065   6.276
 9547TIP3    H128598   0.644   2.115   6.264
 9547TIP3    H228599   0.544   2.073   6.369
 9548TIP3   OH228600   3.747   2.580   4.365
 9548TIP3    H128601   3.656   2.564   4.337
 9548TIP3    H228602   3.791   2.496   4.353
 9549TIP3   OH228603   6.643   5.233   5.229
 9549TIP3    H128604   6.638   5.266   5.318
 9549TIP3    H228605   6.724   5.270   5.194
 9550TIP3   OH228606   7.733   1.835   4.431
 9550TIP3    H128607   7.786   1.906   4.396
 9550TIP3    H228608   7.668   1.818   4.363
 9551TIP3   OH228609   3.797   5.081   0.899
 9551TIP3    H128610   3.765   5.049   0.984
 9551TIP3    H228611   3.723   5.132   0.864
 9552TIP3   OH228612   7.022   1.009   5.503
 9552TIP3    H128613   7.094   0.945   5.502
 9552TIP3    H228614   6.943   0.956   5.495
 9553TIP3   OH228615   4.264   2.746   1.559
 9553TIP3    H128616   4.191   2.696   1.522
 9553TIP3    H228617   4.280   2.704   1.644
 9554TIP3   OH228618   2.295   2.653   3.657
 9554TIP3    H128619   2.391   2.660   3.655
 9554TIP3    H228620   2.275   2.615   3.742
 9555TIP3   OH228621   6.198   2.502   1.827
 9555TIP3    H128622   6.188   2.433   1.762
 9555TIP3    H228623   6.293   2.515   1.834
 9556TIP3   OH228624   7.391   0.693   5.783
 9556TIP3    H128625   7.430   0.610   5.756
 9556TIP3    H228626   7.465   0.747   5.810
 9557TIP3   OH228627   7.696   5.525   3.910
 9557TIP3    H128628   7.749   5.477   3.975
 9557TIP3    H228629   7.758   5.547   3.840
 9558TIP3   OH228630   0.774   5.327   3.843
 9558TIP3    H128631   0.839   5.283   3.898
 9558TIP3    H228632   0.748   5.261   3.779
 9559TIP3   OH228633   6.636   4.559   1.313
 9559TIP3    H128634   6.578   4.595   1.380
 9559TIP3    H228635   6.685   4.490   1.358
 9560TIP3   OH228636   2.010   5.378   2.214
 9560TIP3    H128637   1.943   5.323   2.173
 9560TIP3    H228638   2.073   5.316   2.251
 9561TIP3   OH228639   6.650   3.851   0.573
 9561TIP3    H128640   6.739   3.836   0.544
 9561TIP3    H228641   6.657   3.864   0.668
 9562TIP3   OH228642   6.019   6.414   3.145
 9562TIP3    H128643   6.040   6.327   3.180
 9562TIP3    H228644   5.950   6.398   3.081
 9563TIP3   OH228645   5.496   5.953   1.463
 9563TIP3    H128646   5.492   5.904   1.545
 9563TIP3    H228647   5.489   5.887   1.395
 9564TIP3   OH228648   5.937   0.404   1.658
 9564TIP3    H128649   6.023   0.403   1.617
 9564TIP3    H228650   5.884   0.461   1.602
 9565TIP3   OH228651   4.770   3.930   2.429
 9565TIP3    H128652   4.792   3.839   2.407
 9565TIP3    H228653   4.783   3.936   2.524
 9566TIP3   OH228654   4.239   6.261   2.504
 9566TIP3    H128655   4.278   6.295   2.584
 9566TIP3    H228656   4.310   6.213   2.462
 9567TIP3   OH228657   7.092   4.438   1.325
 9567TIP3    H128658   7.125   4.350   1.308
 9567TIP3    H228659   7.029   4.455   1.255
 9568TIP3   OH228660   1.020   0.168   5.197
 9568TIP3    H128661   0.949   0.176   5.134
 9568TIP3    H228662   1.070   0.092   5.167
 9569TIP3   OH228663   0.085   1.538   3.085
 9569TIP3    H128664   0.040   1.553   3.168
 9569TIP3    H228665   0.136   1.458   3.099
 9570TIP3   OH228666   7.096   6.633   3.569
 9570TIP3    H128667   7.149   6.673   3.500
 9570TIP3    H228668   7.040   6.570   3.523
 9571TIP3   OH228669   1.292   6.565   0.190
 9571TIP3    H128670   1.199   6.557   0.209
 9571TIP3    H228671   1.335   6.540   0.272
 9572TIP3   OH228672   4.857   7.084   2.771
 9572TIP3    H128673   4.868   6.990   2.760
 9572TIP3    H228674   4.789   7.092   2.838
 9573TIP3   OH228675   5.608   7.352   6.025
 9573TIP3    H128676   5.689   7.303   6.018
 9573TIP3    H228677   5.606   7.382   6.116
 9574TIP3   OH228678   7.903   0.646   2.622
 9574TIP3    H128679   7.822   0.665   2.669
 9574TIP3    H228680   7.938   0.732   2.598
 9575TIP3   OH228681   7.757   3.214   6.565
 9575TIP3    H128682   7.664   3.200   6.547
 9575TIP3    H228683   7.781   3.286   6.507
 9576TIP3   OH228684   2.811   0.687   5.248
 9576TIP3    H128685   2.777   0.692   5.159
 9576TIP3    H228686   2.763   0.755   5.295
 9577TIP3   OH228687   5.983   3.765   0.685
 9577TIP3    H128688   6.024   3.838   0.732
 9577TIP3    H228689   5.893   3.793   0.670
 9578TIP3   OH228690   1.915   5.898   5.702
 9578TIP3    H128691   1.823   5.922   5.693
 9578TIP3    H228692   1.951   5.906   5.614
 9579TIP3   OH228693   5.744   2.317   1.280
 9579TIP3    H128694   5.721   2.320   1.373
 9579TIP3    H228695   5.786   2.401   1.262
 9580TIP3   OH228696   6.226   2.061   0.214
 9580TIP3    H128697   6.273   2.141   0.191
 9580TIP3    H228698   6.267   1.993   0.160
 9581TIP3   OH228699   4.983   0.816   3.375
 9581TIP3    H128700   4.907   0.873   3.362
 9581TIP3    H228701   5.058   0.869   3.345
 9582TIP3   OH228702   3.758   6.100   3.357
 9582TIP3    H128703   3.836   6.155   3.344
 9582TIP3    H228704   3.707   6.147   3.423
 9583TIP3   OH228705   4.898   3.512   3.398
 9583TIP3    H128706   4.943   3.585   3.441
 9583TIP3    H228707   4.969   3.453   3.373
 9584TIP3   OH228708   4.760   5.470   0.893
 9584TIP3    H128709   4.855   5.468   0.900
 9584TIP3    H228710   4.741   5.424   0.811
 9585TIP3   OH228711   0.805   0.512   2.236
 9585TIP3    H128712   0.742   0.445   2.260
 9585TIP3    H228713   0.887   0.484   2.277
 9586TIP3   OH228714   0.979   0.511   0.214
 9586TIP3    H128715   1.068   0.535   0.189
 9586TIP3    H228716   0.930   0.593   0.214
 9587TIP3   OH228717   0.281   6.176   2.935
 9587TIP3    H128718   0.242   6.169   2.847
 9587TIP3    H228719   0.223   6.124   2.991
 9588TIP3   OH228720   7.825   4.637   3.231
 9588TIP3    H128721   7.795   4.591   3.309
 9588TIP3    H228722   7.893   4.696   3.262
 9589TIP3   OH228723   0.541   1.919   2.003
 9589TIP3    H128724   0.513   1.999   1.958
 9589TIP3    H228725   0.460   1.872   2.021
 9590TIP3   OH228726   4.535   2.393   5.903
 9590TIP3    H128727   4.599   2.328   5.933
 9590TIP3    H228728   4.534   2.385   5.808
 9591TIP3   OH228729   1.330   6.721   2.928
 9591TIP3    H128730   1.392   6.793   2.922
 9591TIP3    H228731   1.254   6.750   2.877
 9592TIP3   OH228732   5.967   4.985   6.397
 9592TIP3    H128733   5.982   4.965   6.305
 9592TIP3    H228734   6.054   4.982   6.437
 9593TIP3   OH228735   5.967   4.938   4.827
 9593TIP3    H128736   6.031   4.938   4.756
 9593TIP3    H228737   6.014   4.975   4.902
 9594TIP3   OH228738   5.738   7.414   4.475
 9594TIP3    H128739   5.720   7.452   4.561
 9594TIP3    H228740   5.833   7.414   4.468
 9595TIP3   OH228741   1.798   2.862   5.873
 9595TIP3    H128742   1.801   2.825   5.962
 9595TIP3    H228743   1.757   2.948   5.885
 9596TIP3   OH228744   2.187   2.029   4.996
 9596TIP3    H128745   2.143   1.944   4.983
 9596TIP3    H228746   2.152   2.061   5.079
 9597TIP3   OH228747   6.361   7.615   4.513
 9597TIP3    H128748   6.352   7.520   4.524
 9597TIP3    H228749   6.292   7.652   4.569
 9598TIP3   OH228750   0.603   7.399   6.596
 9598TIP3    H128751   0.567   7.417   6.683
 9598TIP3    H228752   0.557   7.459   6.538
 9599TIP3   OH228753   3.831   5.760   4.178
 9599TIP3    H128754   3.771   5.761   4.103
 9599TIP3    H228755   3.832   5.669   4.207
 9600TIP3   OH228756   0.407   3.966   5.556
 9600TIP3    H128757   0.350   3.889   5.564
 9600TIP3    H228758   0.372   4.029   5.619
 9601TIP3   OH228759   0.968   2.811   3.799
 9601TIP3    H128760   0.928   2.868   3.865
 9601TIP3    H228761   1.043   2.771   3.843
 9602TIP3   OH228762   4.477   6.430   2.953
 9602TIP3    H128763   4.401   6.398   3.002
 9602TIP3    H228764   4.535   6.466   3.020
 9603TIP3   OH228765   5.818   5.504   1.643
 9603TIP3    H128766   5.909   5.519   1.619
 9603TIP3    H228767   5.768   5.565   1.588
 9604TIP3   OH228768   4.902   5.281   1.405
 9604TIP3    H128769   4.868   5.294   1.316
 9604TIP3    H228770   4.989   5.322   1.403
 9605TIP3   OH228771   7.310   0.148   3.255
 9605TIP3    H128772   7.353   0.223   3.296
 9605TIP3    H228773   7.260   0.185   3.182
 9606TIP3   OH228774   6.294   7.411   6.284
 9606TIP3    H128775   6.264   7.393   6.373
 9606TIP3    H228776   6.215   7.437   6.237
 9607TIP3   OH228777   6.383   0.326   4.398
 9607TIP3    H128778   6.457   0.354   4.452
 9607TIP3    H228779   6.381   0.231   4.409
 9608TIP3   OH228780   3.879   5.236   0.371
 9608TIP3    H128781   3.966   5.197   0.370
 9608TIP3    H228782   3.850   5.228   0.462
 9609TIP3   OH228783   6.790   6.980   5.296
 9609TIP3    H128784   6.878   7.018   5.296
 9609TIP3    H228785   6.772   6.962   5.204
 9610TIP3   OH228786   2.024   1.813   0.778
 9610TIP3    H128787   2.021   1.864   0.697
 9610TIP3    H228788   2.077   1.866   0.838
 9611TIP3   OH228789  -0.015   2.778   2.668
 9611TIP3    H128790  -0.020   2.733   2.584
 9611TIP3    H228791   0.062   2.740   2.711
 9612TIP3   OH228792   0.983   1.674   4.116
 9612TIP3    H128793   0.890   1.671   4.093
 9612TIP3    H228794   1.027   1.638   4.039
 9613TIP3   OH228795   6.812   0.950   2.326
 9613TIP3    H128796   6.893   0.917   2.365
 9613TIP3    H228797   6.751   0.876   2.332
 9614TIP3   OH228798   5.405   7.195   5.648
 9614TIP3    H128799   5.310   7.202   5.649
 9614TIP3    H228800   5.432   7.223   5.736
 9615TIP3   OH228801   6.909   3.227   6.071
 9615TIP3    H128802   6.930   3.178   6.150
 9615TIP3    H228803   6.818   3.204   6.052
 9616TIP3   OH228804   0.522   1.374   0.166
 9616TIP3    H128805   0.573   1.295   0.149
 9616TIP3    H228806   0.521   1.420   0.082
 9617TIP3   OH228807   5.438   6.944   3.933
 9617TIP3    H128808   5.489   7.022   3.955
 9617TIP3    H228809   5.503   6.882   3.900
 9618TIP3   OH228810   8.298   4.892   2.900
 9618TIP3    H128811   8.288   4.820   2.838
 9618TIP3    H228812   8.210   4.927   2.910
 9619TIP3   OH228813   0.641   0.257   6.679
 9619TIP3    H128814   0.723   0.270   6.726
 9619TIP3    H228815   0.606   0.346   6.665
 9620TIP3   OH228816   1.394   4.903   5.071
 9620TIP3    H128817   1.355   4.817   5.087
 9620TIP3    H228818   1.467   4.886   5.011
 9621TIP3   OH228819   1.904   6.059   6.587
 9621TIP3    H128820   1.902   6.100   6.674
 9621TIP3    H228821   1.881   6.130   6.527
 9622TIP3   OH228822   7.362   5.576   4.789
 9622TIP3    H128823   7.292   5.639   4.802
 9622TIP3    H228824   7.433   5.627   4.749
 9623TIP3   OH228825   3.601   1.536   3.814
 9623TIP3    H128826   3.608   1.579   3.899
 9623TIP3    H228827   3.672   1.573   3.762
 9624TIP3   OH228828   4.421   0.101   0.180
 9624TIP3    H128829   4.386   0.097   0.091
 9624TIP3    H228830   4.429   0.009   0.206
 9625TIP3   OH228831   6.848   5.236   3.018
 9625TIP3    H128832   6.861   5.308   2.957
 9625TIP3    H228833   6.936   5.213   3.048
 9626TIP3   OH228834   3.962   2.217   6.288
 9626TIP3    H128835   3.888   2.243   6.343
 9626TIP3    H228836   4.032   2.278   6.312
 9627TIP3   OH228837   6.459   2.702   1.504
 9627TIP3    H128838   6.385   2.649   1.474
 9627TIP3    H228839   6.440   2.790   1.472
 9628TIP3   OH228840   7.717   7.506   6.120
 9628TIP3    H128841   7.798   7.465   6.091
 9628TIP3    H228842   7.662   7.433   6.150
 9629TIP3   OH228843   6.711   2.019   2.903
 9629TIP3    H128844   6.620   2.041   2.922
 9629TIP3    H228845   6.706   1.955   2.832
 9630TIP3   OH228846   4.445   5.426   4.489
 9630TIP3    H128847   4.389   5.364   4.441
 9630TIP3    H228848   4.392   5.506   4.494
 9631TIP3   OH228849   3.790   0.097   1.579
 9631TIP3    H128850   3.747   0.044   1.647
 9631TIP3    H228851   3.873   0.053   1.564
 9632TIP3   OH228852   2.402   5.934   4.130
 9632TIP3    H128853   2.350   5.855   4.115
 9632TIP3    H228854   2.487   5.901   4.160
 9633TIP3   OH228855   3.394   5.852   4.925
 9633TIP3    H128856   3.413   5.771   4.972
 9633TIP3    H228857   3.400   5.828   4.832
 9634TIP3   OH228858   3.386   1.250   2.768
 9634TIP3    H128859   3.317   1.190   2.796
 9634TIP3    H228860   3.339   1.326   2.734
 9635TIP3   OH228861   1.510   1.683   0.438
 9635TIP3    H128862   1.506   1.590   0.414
 9635TIP3    H228863   1.425   1.718   0.412
 9636TIP3   OH228864   4.212   3.825   5.230
 9636TIP3    H128865   4.198   3.866   5.145
 9636TIP3    H228866   4.268   3.749   5.212
 9637TIP3   OH228867   5.755   7.529   0.898
 9637TIP3    H128868   5.828   7.591   0.888
 9637TIP3    H228869   5.726   7.540   0.989
 9638TIP3   OH228870   1.946   5.395   0.845
 9638TIP3    H128871   1.947   5.354   0.931
 9638TIP3    H228872   1.883   5.344   0.795
 9639TIP3   OH228873   3.810   0.093   6.572
 9639TIP3    H128874   3.728   0.139   6.589
 9639TIP3    H228875   3.785   0.019   6.516
 9640TIP3   OH228876   0.613   7.204   2.638
 9640TIP3    H128877   0.581   7.157   2.715
 9640TIP3    H228878   0.595   7.146   2.564
 9641TIP3   OH228879   1.877   3.500   1.085
 9641TIP3    H128880   1.957   3.482   1.036
 9641TIP3    H228881   1.808   3.501   1.019
 9642TIP3   OH228882   5.116   4.733   2.032
 9642TIP3    H128883   5.066   4.655   2.006
 9642TIP3    H228884   5.123   4.784   1.951
 9643TIP3   OH228885   1.545   0.863   4.692
 9643TIP3    H128886   1.537   0.856   4.597
 9643TIP3    H228887   1.639   0.864   4.709
 9644TIP3   OH228888   3.514   6.493   2.238
 9644TIP3    H128889   3.530   6.587   2.242
 9644TIP3    H228890   3.504   6.474   2.145
 9645TIP3   OH228891   6.163   3.087   3.236
 9645TIP3    H128892   6.134   3.005   3.197
 9645TIP3    H228893   6.145   3.076   3.330
 9646TIP3   OH228894   5.077   1.526   1.995
 9646TIP3    H128895   5.054   1.459   1.931
 9646TIP3    H228896   5.088   1.479   2.077
 9647TIP3   OH228897   3.032   6.397   5.699
 9647TIP3    H128898   3.108   6.372   5.646
 9647TIP3    H228899   3.058   6.480   5.739
 9648TIP3   OH228900   4.323   1.151   6.788
 9648TIP3    H128901   4.229   1.137   6.775
 9648TIP3    H228902   4.365   1.091   6.726
 9649TIP3   OH228903   7.499   0.782   5.306
 9649TIP3    H128904   7.489   0.693   5.273
 9649TIP3    H228905   7.421   0.797   5.360
 9650TIP3   OH228906   7.003   2.569   1.998
 9650TIP3    H128907   7.006   2.517   2.078
 9650TIP3    H228908   7.094   2.575   1.969
 9651TIP3   OH228909   5.831   0.313   1.908
 9651TIP3    H128910   5.784   0.385   1.950
 9651TIP3    H228911   5.883   0.356   1.839
 9652TIP3   OH228912   0.625   0.765   2.012
 9652TIP3    H128913   0.716   0.740   2.024
 9652TIP3    H228914   0.610   0.759   1.918
 9653TIP3   OH228915   4.504   7.192   4.671
 9653TIP3    H128916   4.544   7.119   4.624
 9653TIP3    H228917   4.568   7.263   4.663
 9654TIP3   OH228918   4.286   3.193   2.585
 9654TIP3    H128919   4.339   3.175   2.663
 9654TIP3    H228920   4.196   3.186   2.616
 9655TIP3   OH228921   6.424   7.107   4.627
 9655TIP3    H128922   6.428   7.107   4.531
 9655TIP3    H228923   6.453   7.019   4.652
 9656TIP3   OH228924   8.168   0.555   2.241
 9656TIP3    H128925   8.108   0.629   2.250
 9656TIP3    H228926   8.251   0.586   2.276
 9657TIP3   OH228927   3.472   4.929   4.128
 9657TIP3    H128928   3.427   4.885   4.200
 9657TIP3    H228929   3.564   4.929   4.154
 9658TIP3   OH228930   7.125   1.443   0.256
 9658TIP3    H128931   7.057   1.408   0.313
 9658TIP3    H228932   7.164   1.514   0.308
 9659TIP3   OH228933   5.781   6.413   0.622
 9659TIP3    H128934   5.789   6.445   0.712
 9659TIP3    H228935   5.701   6.453   0.589
 9660TIP3   OH228936   6.104   2.069   4.856
 9660TIP3    H128937   6.065   2.142   4.905
 9660TIP3    H228938   6.077   1.991   4.903
 9661TIP3   OH228939   3.695   2.043   4.696
 9661TIP3    H128940   3.616   2.085   4.661
 9661TIP3    H228941   3.662   1.973   4.752
 9662TIP3   OH228942   0.060   5.154   1.041
 9662TIP3    H128943  -0.003   5.212   1.000
 9662TIP3    H228944   0.092   5.099   0.970
 9663TIP3   OH228945   8.142   6.019   4.206
 9663TIP3    H128946   8.133   6.002   4.112
 9663TIP3    H228947   8.219   6.076   4.212
 9664TIP3   OH228948   4.254   3.220   3.504
 9664TIP3    H128949   4.242   3.195   3.596
 9664TIP3    H228950   4.276   3.313   3.508
 9665TIP3   OH228951   3.372   2.561   1.077
 9665TIP3    H128952   3.350   2.574   0.984
 9665TIP3    H228953   3.380   2.650   1.112
 9666TIP3   OH228954   3.521   2.376   1.219
 9666TIP3    H128955   3.471   2.439   1.166
 9666TIP3    H228956   3.491   2.392   1.309
 9667TIP3   OH228957   2.306   5.573   4.196
 9667TIP3    H128958   2.280   5.527   4.116
 9667TIP3    H228959   2.246   5.648   4.200
 9668TIP3   OH228960   2.137   4.873   1.486
 9668TIP3    H128961   2.056   4.853   1.439
 9668TIP3    H228962   2.171   4.787   1.512
 9669TIP3   OH228963   4.756   4.789   1.561
 9669TIP3    H128964   4.829   4.818   1.616
 9669TIP3    H228965   4.733   4.703   1.596
 9670TIP3   OH228966   3.908   3.490   6.661
 9670TIP3    H128967   3.961   3.570   6.664
 9670TIP3    H228968   3.967   3.423   6.627
 9671TIP3   OH228969   0.532   7.137   5.043
 9671TIP3    H128970   0.552   7.227   5.019
 9671TIP3    H228971   0.438   7.136   5.059
 9672TIP3   OH228972   7.226   4.497   2.446
 9672TIP3    H128973   7.199   4.415   2.405
 9672TIP3    H228974   7.217   4.480   2.540
 9673TIP3   OH228975   3.876   2.318   6.523
 9673TIP3    H128976   3.904   2.408   6.506
 9673TIP3    H228977   3.926   2.292   6.600
 9674TIP3   OH228978   5.709   6.205   6.396
 9674TIP3    H128979   5.771   6.167   6.458
 9674TIP3    H228980   5.641   6.138   6.386
 9675TIP3   OH228981   2.457   6.466   3.297
 9675TIP3    H128982   2.517   6.532   3.331
 9675TIP3    H228983   2.370   6.498   3.321
 9676TIP3   OH228984   5.237   6.018   5.967
 9676TIP3    H128985   5.201   6.107   5.971
 9676TIP3    H228986   5.164   5.964   5.938
 9677TIP3   OH228987   5.318   7.719   1.870
 9677TIP3    H128988   5.388   7.784   1.879
 9677TIP3    H228989   5.341   7.650   1.932
 9678TIP3   OH228990   8.244   2.524   3.464
 9678TIP3    H128991   8.233   2.609   3.420
 9678TIP3    H228992   8.336   2.502   3.449
 9679TIP3   OH228993   7.760   2.147   5.299
 9679TIP3    H128994   7.696   2.151   5.227
 9679TIP3    H228995   7.773   2.053   5.314
 9680TIP3   OH228996   1.891   7.356   5.689
 9680TIP3    H128997   1.884   7.271   5.733
 9680TIP3    H228998   1.926   7.415   5.757
 9681TIP3   OH228999   6.664   6.828   4.218
 9681TIP3    H129000   6.582   6.819   4.170
 9681TIP3    H229001   6.643   6.802   4.307
 9682TIP3   OH229002   3.407   7.296   1.405
 9682TIP3    H129003   3.472   7.294   1.334
 9682TIP3    H229004   3.459   7.297   1.485
 9683TIP3   OH229005   3.912   1.658   1.093
 9683TIP3    H129006   3.851   1.665   1.019
 9683TIP3    H229007   3.931   1.565   1.100
 9684TIP3   OH229008   7.198   0.493   4.363
 9684TIP3    H129009   7.105   0.494   4.338
 9684TIP3    H229010   7.214   0.404   4.392
 9685TIP3   OH229011   0.938   2.783   5.863
 9685TIP3    H129012   0.945   2.751   5.773
 9685TIP3    H229013   0.986   2.719   5.915
 9686TIP3   OH229014   4.710   5.380   1.154
 9686TIP3    H129015   4.696   5.432   1.234
 9686TIP3    H229016   4.724   5.446   1.086
 9687TIP3   OH229017   6.123   3.253   3.955
 9687TIP3    H129018   6.030   3.257   3.974
 9687TIP3    H229019   6.157   3.186   4.014
 9688TIP3   OH229020   2.340   1.804   5.539
 9688TIP3    H129021   2.361   1.890   5.502
 9688TIP3    H229022   2.244   1.805   5.547
 9689TIP3   OH229023   1.877   0.217   4.580
 9689TIP3    H129024   1.933   0.183   4.510
 9689TIP3    H229025   1.868   0.310   4.559
 9690TIP3   OH229026   3.334   3.647   1.112
 9690TIP3    H129027   3.330   3.638   1.207
 9690TIP3    H229028   3.428   3.647   1.092
 9691TIP3   OH229029   2.693   4.544   1.359
 9691TIP3    H129030   2.667   4.579   1.444
 9691TIP3    H229031   2.621   4.568   1.300
 9692TIP3   OH229032   0.591   7.556   5.648
 9692TIP3    H129033   0.590   7.568   5.743
 9692TIP3    H229034   0.630   7.637   5.614
 9693TIP3   OH229035   4.928   4.683   1.124
 9693TIP3    H129036   4.949   4.731   1.204
 9693TIP3    H229037   4.925   4.591   1.151
 9694TIP3   OH229038   4.536   6.407   1.127
 9694TIP3    H129039   4.572   6.332   1.080
 9694TIP3    H229040   4.443   6.386   1.137
 9695TIP3   OH229041   2.272   2.410   4.453
 9695TIP3    H129042   2.335   2.338   4.455
 9695TIP3    H229043   2.320   2.484   4.492
 9696TIP3   OH229044   0.726   5.058   6.755
 9696TIP3    H129045   0.761   5.147   6.746
 9696TIP3    H229046   0.681   5.042   6.672
 9697TIP3   OH229047   4.706   4.433   3.810
 9697TIP3    H129048   4.630   4.477   3.849
 9697TIP3    H229049   4.782   4.472   3.854
 9698TIP3   OH229050   1.774   7.416   3.257
 9698TIP3    H129051   1.699   7.434   3.201
 9698TIP3    H229052   1.787   7.496   3.308
 9699TIP3   OH229053   4.496   5.589   5.745
 9699TIP3    H129054   4.546   5.671   5.749
 9699TIP3    H229055   4.531   5.536   5.817
 9700TIP3   OH229056   6.244   2.571   0.071
 9700TIP3    H129057   6.257   2.642   0.134
 9700TIP3    H229058   6.162   2.593   0.027
 9701TIP3   OH229059   1.139   6.238   1.903
 9701TIP3    H129060   1.098   6.152   1.891
 9701TIP3    H229061   1.143   6.249   1.998
 9702TIP3   OH229062   0.601   5.596   2.547
 9702TIP3    H129063   0.630   5.509   2.517
 9702TIP3    H229064   0.531   5.577   2.610
 9703TIP3   OH229065   4.090   4.382   5.207
 9703TIP3    H129066   4.014   4.369   5.263
 9703TIP3    H229067   4.122   4.470   5.230
 9704TIP3   OH229068   2.538   6.500   6.197
 9704TIP3    H129069   2.520   6.406   6.201
 9704TIP3    H229070   2.626   6.509   6.234
 9705TIP3   OH229071   1.281   0.795   5.156
 9705TIP3    H129072   1.356   0.803   5.097
 9705TIP3    H229073   1.245   0.708   5.136
 9706TIP3   OH229074   3.068   7.785   1.064
 9706TIP3    H129075   3.098   7.699   1.033
 9706TIP3    H229076   3.069   7.840   0.986
 9707TIP3   OH229077   5.462   5.456   0.437
 9707TIP3    H129078   5.429   5.546   0.434
 9707TIP3    H229079   5.384   5.401   0.426
 9708TIP3   OH229080   0.775   5.709   0.561
 9708TIP3    H129081   0.755   5.798   0.590
 9708TIP3    H229082   0.823   5.721   0.480
 9709TIP3   OH229083   6.273   6.513   2.972
 9709TIP3    H129084   6.251   6.426   3.004
 9709TIP3    H229085   6.243   6.572   3.042
 9710TIP3   OH229086   1.562   6.614   4.803
 9710TIP3    H129087   1.490   6.553   4.787
 9710TIP3    H229088   1.530   6.698   4.770
 9711TIP3   OH229089   3.452   0.222   6.254
 9711TIP3    H129090   3.437   0.254   6.343
 9711TIP3    H229091   3.500   0.140   6.266
 9712TIP3   OH229092   7.223   3.302   3.285
 9712TIP3    H129093   7.190   3.260   3.365
 9712TIP3    H229094   7.144   3.325   3.236
 9713TIP3   OH229095   1.389   6.857   5.760
 9713TIP3    H129096   1.450   6.901   5.701
 9713TIP3    H229097   1.424   6.874   5.847
 9714TIP3   OH229098   6.559   2.497   0.202
 9714TIP3    H129099   6.636   2.449   0.172
 9714TIP3    H229100   6.484   2.445   0.172
 9715TIP3   OH229101   6.291   2.476   1.450
 9715TIP3    H129102   6.250   2.479   1.364
 9715TIP3    H229103   6.223   2.440   1.507
 9716TIP3   OH229104   7.196   0.892   0.813
 9716TIP3    H129105   7.234   0.879   0.727
 9716TIP3    H229106   7.248   0.836   0.871
 9717TIP3   OH229107   4.553   7.500   1.126
 9717TIP3    H129108   4.478   7.550   1.159
 9717TIP3    H229109   4.516   7.417   1.097
 9718TIP3   OH229110   0.551   5.938   6.401
 9718TIP3    H129111   0.590   5.938   6.314
 9718TIP3    H229112   0.461   5.969   6.388
 9719TIP3   OH229113   6.742   4.877   6.501
 9719TIP3    H129114   6.699   4.913   6.423
 9719TIP3    H229115   6.790   4.951   6.539
 9720TIP3   OH229116   7.134   0.744   2.256
 9720TIP3    H129117   7.164   0.719   2.168
 9720TIP3    H229118   7.046   0.707   2.262
 9721TIP3   OH229119   7.434   5.877   2.009
 9721TIP3    H129120   7.453   5.818   2.082
 9721TIP3    H229121   7.480   5.839   1.934
 9722TIP3   OH229122   3.238   2.993   0.111
 9722TIP3    H129123   3.312   2.943   0.145
 9722TIP3    H229124   3.277   3.066   0.062
 9723TIP3   OH229125   1.991   0.379   6.419
 9723TIP3    H129126   2.004   0.290   6.451
 9723TIP3    H229127   2.055   0.431   6.467
 9724TIP3   OH229128   0.794   3.881   5.166
 9724TIP3    H129129   0.859   3.853   5.231
 9724TIP3    H229130   0.710   3.867   5.210
 9725TIP3   OH229131   3.869   6.168   2.577
 9725TIP3    H129132   3.837   6.255   2.554
 9725TIP3    H229133   3.799   6.108   2.550
 9726TIP3   OH229134   7.364   6.322   2.144
 9726TIP3    H129135   7.320   6.250   2.099
 9726TIP3    H229136   7.301   6.394   2.141
 9727TIP3   OH229137   0.616   1.884   5.686
 9727TIP3    H129138   0.711   1.877   5.689
 9727TIP3    H229139   0.586   1.819   5.750
 9728TIP3   OH229140   4.067   7.005   3.114
 9728TIP3    H129141   4.032   6.968   3.033
 9728TIP3    H229142   4.088   6.928   3.167
 9729TIP3   OH229143   1.352   4.361   0.918
 9729TIP3    H129144   1.433   4.365   0.867
 9729TIP3    H229145   1.290   4.316   0.861
 9730TIP3   OH229146   6.345   7.665   4.894
 9730TIP3    H129147   6.401   7.683   4.818
 9730TIP3    H229148   6.286   7.741   4.899
 9731TIP3   OH229149   7.338   0.068   2.923
 9731TIP3    H129150   7.386  -0.013   2.942
 9731TIP3    H229151   7.246   0.045   2.939
 9732TIP3   OH229152   1.654   2.123   2.932
 9732TIP3    H129153   1.690   2.061   2.996
 9732TIP3    H229154   1.614   2.068   2.865
 9733TIP3   OH229155   6.894   3.038   2.509
 9733TIP3    H129156   6.947   3.116   2.491
 9733TIP3    H229157   6.958   2.971   2.533
 9734TIP3   OH229158   5.989   3.505   3.368
 9734TIP3    H129159   6.082   3.526   3.374
 9734TIP3    H229160   5.973   3.497   3.274
 9735TIP3   OH229161   1.681   3.029   5.585
 9735TIP3    H129162   1.590   3.055   5.568
 9735TIP3    H229163   1.705   3.079   5.663
 9736TIP3   OH229164   1.741   3.424   5.142
 9736TIP3    H129165   1.737   3.480   5.064
 9736TIP3    H229166   1.815   3.458   5.192
 9737TIP3   OH229167   6.962   7.263   5.430
 9737TIP3    H129168   6.987   7.335   5.372
 9737TIP3    H229169   6.996   7.184   5.387
 9738TIP3   OH229170   6.517   0.480   6.735
 9738TIP3    H129171   6.580   0.550   6.718
 9738TIP3    H229172   6.563   0.422   6.796
 9739TIP3   OH229173   5.202   1.206   5.051
 9739TIP3    H129174   5.199   1.301   5.059
 9739TIP3    H229175   5.284   1.188   5.004
 9740TIP3   OH229176   7.100   6.359   4.803
 9740TIP3    H129177   7.071   6.288   4.745
 9740TIP3    H229178   7.196   6.354   4.801
 9741TIP3   OH229179   3.712   5.124   2.465
 9741TIP3    H129180   3.728   5.083   2.550
 9741TIP3    H229181   3.619   5.109   2.448
 9742TIP3   OH229182   4.059   3.149   3.323
 9742TIP3    H129183   4.093   3.171   3.410
 9742TIP3    H229184   3.991   3.084   3.339
 9743TIP3   OH229185   2.588   0.976   4.561
 9743TIP3    H129186   2.606   0.883   4.549
 9743TIP3    H229187   2.493   0.981   4.571
 9744TIP3   OH229188   0.774   7.065   0.507
 9744TIP3    H129189   0.754   7.020   0.590
 9744TIP3    H229190   0.759   6.999   0.440
 9745TIP3   OH229191   7.227   5.583   1.757
 9745TIP3    H129192   7.161   5.638   1.800
 9745TIP3    H229193   7.207   5.592   1.663
 9746TIP3   OH229194   1.002   0.000   1.932
 9746TIP3    H129195   0.923  -0.040   1.967
 9746TIP3    H229196   1.047   0.037   2.008
 9747TIP3   OH229197   0.729   6.267   0.732
 9747TIP3    H129198   0.658   6.313   0.776
 9747TIP3    H229199   0.689   6.187   0.697
 9748TIP3   OH229200   5.884   2.250   4.001
 9748TIP3    H129201   5.870   2.326   3.945
 9748TIP3    H229202   5.836   2.179   3.957
 9749TIP3   OH229203   0.579   6.378   5.548
 9749TIP3    H129204   0.569   6.417   5.635
 9749TIP3    H229205   0.632   6.300   5.563
 9750TIP3   OH229206   7.841   3.679   0.484
 9750TIP3    H129207   7.818   3.719   0.400
 9750TIP3    H229208   7.829   3.750   0.548
 9751TIP3   OH229209   1.608   0.186   5.281
 9751TIP3    H129210   1.557   0.131   5.341
 9751TIP3    H229211   1.671   0.232   5.337
 9752TIP3   OH229212   1.943   2.778   2.321
 9752TIP3    H129213   2.005   2.850   2.335
 9752TIP3    H229214   1.858   2.814   2.345
 9753TIP3   OH229215   6.711   3.723   0.192
 9753TIP3    H129216   6.718   3.639   0.238
 9753TIP3    H229217   6.799   3.760   0.197
 9754TIP3   OH229218   6.898   6.656   1.624
 9754TIP3    H129219   6.940   6.590   1.569
 9754TIP3    H229220   6.834   6.606   1.676
 9755TIP3   OH229221   6.445   5.620   2.857
 9755TIP3    H129222   6.535   5.642   2.830
 9755TIP3    H229223   6.455   5.582   2.944
 9756TIP3   OH229224   2.848   6.989   5.176
 9756TIP3    H129225   2.871   7.058   5.114
 9756TIP3    H229226   2.772   7.024   5.224
 9757TIP3   OH229227   1.920   4.540   0.376
 9757TIP3    H129228   1.841   4.505   0.335
 9757TIP3    H229229   1.899   4.631   0.396
 9758TIP3   OH229230   7.943   3.536   5.727
 9758TIP3    H129231   7.932   3.612   5.670
 9758TIP3    H229232   7.856   3.522   5.765
 9759TIP3   OH229233   3.592   1.644   4.074
 9759TIP3    H129234   3.593   1.592   4.154
 9759TIP3    H229235   3.554   1.728   4.100
 9760TIP3   OH229236   4.586   5.348   1.646
 9760TIP3    H129237   4.569   5.333   1.739
 9760TIP3    H229238   4.576   5.442   1.634
 9761TIP3   OH229239   0.922   0.794   4.276
 9761TIP3    H129240   0.918   0.885   4.246
 9761TIP3    H229241   1.004   0.789   4.325
 9762TIP3   OH229242   3.772   0.773   4.114
 9762TIP3    H129243   3.682   0.755   4.140
 9762TIP3    H229244   3.823   0.766   4.195
 9763TIP3   OH229245   7.832   4.497   2.281
 9763TIP3    H129246   7.839   4.562   2.350
 9763TIP3    H229247   7.863   4.542   2.202
 9764TIP3   OH229248   7.204   5.586   0.034
 9764TIP3    H129249   7.186   5.492   0.042
 9764TIP3    H229250   7.149   5.615  -0.038
 9765TIP3   OH229251   4.285   2.927   2.493
 9765TIP3    H129252   4.349   2.859   2.515
 9765TIP3    H229253   4.298   2.994   2.561
 9766TIP3   OH229254   2.814   7.253   2.367
 9766TIP3    H129255   2.884   7.205   2.412
 9766TIP3    H229256   2.736   7.199   2.379
 9767TIP3   OH229257   3.099   4.990   1.540
 9767TIP3    H129258   3.189   4.958   1.547
 9767TIP3    H229259   3.107   5.071   1.489
 9768TIP3   OH229260   3.334   2.527   6.481
 9768TIP3    H129261   3.422   2.509   6.450
 9768TIP3    H229262   3.287   2.559   6.404
 9769TIP3   OH229263   6.948   7.368   0.487
 9769TIP3    H129264   6.860   7.403   0.469
 9769TIP3    H229265   6.991   7.436   0.539
 9770TIP3   OH229266   7.255   3.108   1.281
 9770TIP3    H129267   7.242   3.097   1.375
 9770TIP3    H229268   7.250   3.202   1.266
 9771TIP3   OH229269   3.877   0.481   4.301
 9771TIP3    H129270   3.895   0.514   4.213
 9771TIP3    H229271   3.960   0.493   4.348
 9772TIP3   OH229272   1.066   5.600   3.596
 9772TIP3    H129273   1.050   5.674   3.538
 9772TIP3    H229274   0.981   5.583   3.636
 9773TIP3   OH229275   3.495   5.250   2.958
 9773TIP3    H129276   3.419   5.202   2.991
 9773TIP3    H229277   3.461   5.302   2.885
 9774TIP3   OH229278   8.325   3.452   3.661
 9774TIP3    H129279   8.258   3.507   3.702
 9774TIP3    H229280   8.276   3.392   3.605
 9775TIP3   OH229281   3.207   2.068   1.730
 9775TIP3    H129282   3.139   2.092   1.667
 9775TIP3    H229283   3.250   1.991   1.691
 9776TIP3   OH229284   2.677   7.106   5.393
 9776TIP3    H129285   2.610   7.068   5.450
 9776TIP3    H229286   2.758   7.098   5.444
 9777TIP3   OH229287   1.575   5.749   3.938
 9777TIP3    H129288   1.570   5.660   3.972
 9777TIP3    H229289   1.494   5.790   3.966
 9778TIP3   OH229290   3.140   4.945   3.008
 9778TIP3    H129291   3.176   5.030   2.987
 9778TIP3    H229292   3.180   4.920   3.091
 9779TIP3   OH229293   0.071   4.887   2.002
 9779TIP3    H129294   0.020   4.888   2.083
 9779TIP3    H229295   0.155   4.848   2.027
 9780TIP3   OH229296   0.911   3.968   4.929
 9780TIP3    H129297   0.866   3.923   5.001
 9780TIP3    H229298   0.923   3.900   4.863
 9781TIP3   OH229299   1.835   0.758   1.058
 9781TIP3    H129300   1.828   0.791   0.969
 9781TIP3    H229301   1.879   0.673   1.049
 9782TIP3   OH229302   6.721   6.931   2.306
 9782TIP3    H129303   6.718   6.932   2.402
 9782TIP3    H229304   6.803   6.974   2.284
 9783TIP3   OH229305   4.171   3.585   5.673
 9783TIP3    H129306   4.147   3.509   5.620
 9783TIP3    H229307   4.147   3.660   5.619
 9784TIP3   OH229308   1.701   0.821   1.480
 9784TIP3    H129309   1.612   0.788   1.491
 9784TIP3    H229310   1.712   0.884   1.552
 9785TIP3   OH229311   5.927   1.743   0.967
 9785TIP3    H129312   5.840   1.738   0.929
 9785TIP3    H229313   5.937   1.834   0.994
 9786TIP3   OH229314   7.527   5.072   2.477
 9786TIP3    H129315   7.495   5.014   2.408
 9786TIP3    H229316   7.455   5.133   2.493
 9787TIP3   OH229317   4.301   1.546   5.938
 9787TIP3    H129318   4.321   1.491   5.863
 9787TIP3    H229319   4.221   1.594   5.913
 9788TIP3   OH229320   1.180   2.596   0.953
 9788TIP3    H129321   1.213   2.585   1.042
 9788TIP3    H229322   1.086   2.580   0.961
 9789TIP3   OH229323   2.584   1.697   1.852
 9789TIP3    H129324   2.656   1.686   1.789
 9789TIP3    H229325   2.505   1.680   1.801
 9790TIP3   OH229326   7.511   4.427   1.800
 9790TIP3    H129327   7.515   4.469   1.714
 9790TIP3    H229328   7.491   4.335   1.780
 9791TIP3   OH229329  -0.013   4.690   2.710
 9791TIP3    H129330  -0.024   4.622   2.644
 9791TIP3    H229331   0.066   4.666   2.757
 9792TIP3   OH229332   1.171   4.509   4.404
 9792TIP3    H129333   1.140   4.526   4.315
 9792TIP3    H229334   1.143   4.419   4.422
 9793TIP3   OH229335   1.213   2.836   0.781
 9793TIP3    H129336   1.159   2.775   0.831
 9793TIP3    H229337   1.164   2.851   0.700
 9794TIP3   OH229338   1.285   5.101   5.643
 9794TIP3    H129339   1.342   5.072   5.572
 9794TIP3    H229340   1.345   5.118   5.716
 9795TIP3   OH229341   2.015   1.953   3.197
 9795TIP3    H129342   1.962   1.892   3.248
 9795TIP3    H229343   1.976   2.039   3.216
 9796TIP3   OH229344   0.010   6.262   6.135
 9796TIP3    H129345  -0.009   6.168   6.129
 9796TIP3    H229346  -0.045   6.302   6.069
 9797TIP3   OH229347   2.974   2.350   5.311
 9797TIP3    H129348   2.938   2.263   5.324
 9797TIP3    H229349   2.907   2.397   5.261
 9798TIP3   OH229350   1.015   3.334   1.196
 9798TIP3    H129351   0.979   3.377   1.273
 9798TIP3    H229352   1.107   3.322   1.216
 9799TIP3   OH229353   3.776   2.117   5.152
 9799TIP3    H129354   3.814   2.195   5.112
 9799TIP3    H229355   3.851   2.065   5.181
 9800TIP3   OH229356   6.939   0.628   6.632
 9800TIP3    H129357   6.985   0.545   6.634
 9800TIP3    H229358   6.879   0.621   6.558
 9801TIP3   OH229359   0.074   5.656   1.297
 9801TIP3    H129360  -0.015   5.646   1.331
 9801TIP3    H229361   0.097   5.569   1.264
 9802TIP3   OH229362   8.090   4.818   4.225
 9802TIP3    H129363   8.090   4.908   4.259
 9802TIP3    H229364   8.081   4.764   4.303
 9803TIP3   OH229365   0.597   0.411   2.014
 9803TIP3    H129366   0.538   0.444   2.081
 9803TIP3    H229367   0.668   0.475   2.010
 9804TIP3   OH229368   5.398   1.454   0.321
 9804TIP3    H129369   5.348   1.473   0.242
 9804TIP3    H229370   5.458   1.528   0.330
 9805TIP3   OH229371   5.638   3.246   1.564
 9805TIP3    H129372   5.701   3.312   1.595
 9805TIP3    H229373   5.638   3.179   1.632
 9806TIP3   OH229374   4.376   3.400   4.668
 9806TIP3    H129375   4.449   3.427   4.613
 9806TIP3    H229376   4.345   3.318   4.629
 9807TIP3   OH229377   0.219   5.991   3.718
 9807TIP3    H129378   0.255   6.080   3.721
 9807TIP3    H229379   0.296   5.934   3.730
 9808TIP3   OH229380   2.227   0.370   5.934
 9808TIP3    H129381   2.261   0.416   5.858
 9808TIP3    H229382   2.227   0.278   5.909
 9809TIP3   OH229383   2.141   7.812   1.643
 9809TIP3    H129384   2.085   7.736   1.628
 9809TIP3    H229385   2.228   7.784   1.617
 9810TIP3   OH229386   5.020   2.822   5.258
 9810TIP3    H129387   5.029   2.730   5.233
 9810TIP3    H229388   4.937   2.850   5.219
 9811TIP3   OH229389   1.283   4.614   0.434
 9811TIP3    H129390   1.301   4.626   0.527
 9811TIP3    H229391   1.217   4.545   0.431
 9812TIP3   OH229392   1.906   5.934   0.251
 9812TIP3    H129393   1.954   5.946   0.169
 9812TIP3    H229394   1.817   5.915   0.224
 9813TIP3   OH229395   3.985   6.345   0.339
 9813TIP3    H129396   4.079   6.341   0.358
 9813TIP3    H229397   3.944   6.365   0.423
 9814TIP3   OH229398   2.278   3.084   1.027
 9814TIP3    H129399   2.340   3.029   1.075
 9814TIP3    H229400   2.325   3.111   0.948
 9815TIP3   OH229401   2.537   7.174   2.396
 9815TIP3    H129402   2.467   7.117   2.362
 9815TIP3    H229403   2.491   7.237   2.452
 9816TIP3   OH229404   0.142   6.578   0.301
 9816TIP3    H129405   0.098   6.571   0.385
 9816TIP3    H229406   0.139   6.672   0.280
 9817TIP3   OH229407   6.628   0.324   3.022
 9817TIP3    H129408   6.584   0.358   3.100
 9817TIP3    H229409   6.616   0.393   2.956
 9818TIP3   OH229410   5.459   0.067   5.477
 9818TIP3    H129411   5.388   0.025   5.526
 9818TIP3    H229412   5.471   0.010   5.401
 9819TIP3   OH229413   3.687   2.972   5.574
 9819TIP3    H129414   3.621   2.961   5.506
 9819TIP3    H229415   3.665   2.906   5.640
 9820TIP3   OH229416   0.355   7.774   0.901
 9820TIP3    H129417   0.373   7.680   0.908
 9820TIP3    H229418   0.272   7.779   0.855
 9821TIP3   OH229419   6.755   7.384   6.235
 9821TIP3    H129420   6.763   7.462   6.179
 9821TIP3    H229421   6.833   7.386   6.290
 9822TIP3   OH229422   0.325   3.558   3.810
 9822TIP3    H129423   0.283   3.494   3.753
 9822TIP3    H229424   0.381   3.609   3.751
 9823TIP3   OH229425   2.955   6.883   2.221
 9823TIP3    H129426   2.887   6.877   2.153
 9823TIP3    H229427   2.992   6.795   2.225
 9824TIP3   OH229428   3.341   4.321   5.197
 9824TIP3    H129429   3.247   4.334   5.207
 9824TIP3    H229430   3.352   4.290   5.107
 9825TIP3   OH229431   4.943   1.684   3.893
 9825TIP3    H129432   4.897   1.603   3.915
 9825TIP3    H229433   5.031   1.673   3.930
 9826TIP3   OH229434   0.215   3.292   3.035
 9826TIP3    H129435   0.124   3.288   3.065
 9826TIP3    H229436   0.214   3.249   2.949
 9827TIP3   OH229437   1.533   2.909   6.614
 9827TIP3    H129438   1.520   2.912   6.709
 9827TIP3    H229439   1.450   2.876   6.580
 9828TIP3   OH229440   0.744   5.578   6.137
 9828TIP3    H129441   0.755   5.662   6.092
 9828TIP3    H229442   0.658   5.585   6.178
 9829TIP3   OH229443   0.667   2.976   2.259
 9829TIP3    H129444   0.578   2.942   2.252
 9829TIP3    H229445   0.711   2.914   2.317
 9830TIP3   OH229446   6.757   7.777   1.758
 9830TIP3    H129447   6.672   7.794   1.799
 9830TIP3    H229448   6.797   7.863   1.748
 9831TIP3   OH229449   4.460   4.538   6.735
 9831TIP3    H129450   4.483   4.559   6.826
 9831TIP3    H229451   4.448   4.624   6.694
 9832TIP3   OH229452   4.777   1.013   3.413
 9832TIP3    H129453   4.724   0.954   3.467
 9832TIP3    H229454   4.714   1.066   3.365
 9833TIP3   OH229455   4.777   3.160   4.372
 9833TIP3    H129456   4.738   3.172   4.286
 9833TIP3    H229457   4.702   3.153   4.431
 9834TIP3   OH229458   6.879   4.535   3.847
 9834TIP3    H129459   6.889   4.468   3.779
 9834TIP3    H229460   6.793   4.574   3.830
 9835TIP3   OH229461   6.432   3.799   1.337
 9835TIP3    H129462   6.521   3.814   1.305
 9835TIP3    H229463   6.383   3.774   1.259
 9836TIP3   OH229464   5.368   3.663   2.023
 9836TIP3    H129465   5.371   3.567   2.024
 9836TIP3    H229466   5.314   3.687   2.098
 9837TIP3   OH229467   6.374   3.329   5.787
 9837TIP3    H129468   6.426   3.280   5.723
 9837TIP3    H229469   6.296   3.276   5.801
 9838TIP3   OH229470   6.430   1.984   3.654
 9838TIP3    H129471   6.339   1.957   3.647
 9838TIP3    H229472   6.427   2.069   3.698
 9839TIP3   OH229473   0.237   6.313   6.597
 9839TIP3    H129474   0.266   6.272   6.515
 9839TIP3    H229475   0.290   6.271   6.664
 9840TIP3   OH229476   6.432   3.175   3.829
 9840TIP3    H129477   6.370   3.203   3.762
 9840TIP3    H229478   6.411   3.083   3.844
 9841TIP3   OH229479   3.170   6.042   5.070
 9841TIP3    H129480   3.227   5.965   5.065
 9841TIP3    H229481   3.192   6.094   4.992
 9842TIP3   OH229482   6.426   6.456   0.464
 9842TIP3    H129483   6.337   6.445   0.431
 9842TIP3    H229484   6.460   6.366   0.472
 9843TIP3   OH229485   4.987   5.277   1.902
 9843TIP3    H129486   5.080   5.280   1.881
 9843TIP3    H229487   4.943   5.268   1.818
 9844TIP3   OH229488   4.453   0.303   6.207
 9844TIP3    H129489   4.445   0.276   6.115
 9844TIP3    H229490   4.533   0.356   6.209
 9845TIP3   OH229491   1.803   1.447   3.401
 9845TIP3    H129492   1.709   1.446   3.385
 9845TIP3    H229493   1.830   1.356   3.386
 9846TIP3   OH229494   6.098   0.040   1.571
 9846TIP3    H129495   6.165  -0.027   1.585
 9846TIP3    H229496   6.129   0.116   1.621
 9847TIP3   OH229497   8.167   4.444   6.295
 9847TIP3    H129498   8.240   4.391   6.326
 9847TIP3    H229499   8.089   4.399   6.329
 9848TIP3   OH229500   1.456   6.055   5.858
 9848TIP3    H129501   1.379   6.001   5.879
 9848TIP3    H229502   1.419   6.137   5.824
 9849TIP3   OH229503   7.138   6.806   3.332
 9849TIP3    H129504   7.106   6.802   3.242
 9849TIP3    H229505   7.059   6.812   3.385
 9850TIP3   OH229506   6.357   2.105   5.208
 9850TIP3    H129507   6.406   2.174   5.163
 9850TIP3    H229508   6.334   2.143   5.292
 9851TIP3   OH229509   1.275   0.983   3.727
 9851TIP3    H129510   1.308   1.026   3.806
 9851TIP3    H229511   1.180   0.998   3.729
 9852TIP3   OH229512   1.465   0.429   6.552
 9852TIP3    H129513   1.379   0.402   6.520
 9852TIP3    H229514   1.526   0.406   6.482
 9853TIP3   OH229515   4.221   5.905   1.337
 9853TIP3    H129516   4.159   5.924   1.266
 9853TIP3    H229517   4.176   5.933   1.417
 9854TIP3   OH229518   3.710   6.720   5.371
 9854TIP3    H129519   3.751   6.735   5.285
 9854TIP3    H229520   3.726   6.801   5.419
 9855TIP3   OH229521   1.045   1.592   5.586
 9855TIP3    H129522   1.062   1.521   5.647
 9855TIP3    H229523   0.961   1.571   5.547
 9856TIP3   OH229524   3.086   2.202   0.595
 9856TIP3    H129525   2.990   2.196   0.597
 9856TIP3    H229526   3.104   2.263   0.523
 9857TIP3   OH229527   4.321   2.137   0.502
 9857TIP3    H129528   4.251   2.113   0.563
 9857TIP3    H229529   4.280   2.133   0.416
 9858TIP3   OH229530   3.453   6.040   3.485
 9858TIP3    H129531   3.425   5.957   3.447
 9858TIP3    H229532   3.521   6.072   3.426
 9859TIP3   OH229533   3.550   0.627   2.271
 9859TIP3    H129534   3.637   0.660   2.250
 9859TIP3    H229535   3.491   0.673   2.212
 9860TIP3   OH229536   6.368   1.074   0.974
 9860TIP3    H129537   6.344   1.045   0.885
 9860TIP3    H229538   6.463   1.086   0.971
 9861TIP3   OH229539   6.723   7.270   0.128
 9861TIP3    H129540   6.669   7.298   0.054
 9861TIP3    H229541   6.705   7.335   0.196
 9862TIP3   OH229542   6.086   7.678   0.683
 9862TIP3    H129543   6.039   7.715   0.757
 9862TIP3    H229544   6.178   7.688   0.704
 9863TIP3   OH229545   1.905   6.621   1.566
 9863TIP3    H129546   1.947   6.545   1.608
 9863TIP3    H229547   1.977   6.665   1.520
 9864TIP3   OH229548   2.741   5.629   4.575
 9864TIP3    H129549   2.826   5.607   4.614
 9864TIP3    H229550   2.752   5.612   4.482
 9865TIP3   OH229551   5.075   2.519   6.423
 9865TIP3    H129552   5.082   2.435   6.469
 9865TIP3    H229553   4.988   2.550   6.446
 9866TIP3   OH229554   3.408   0.071   1.672
 9866TIP3    H129555   3.473   0.002   1.682
 9866TIP3    H229556   3.442   0.127   1.602
 9867TIP3   OH229557   1.647   0.609   6.708
 9867TIP3    H129558   1.574   0.564   6.664
 9867TIP3    H229559   1.636   0.587   6.800
 9868TIP3   OH229560   5.291   5.990   0.957
 9868TIP3    H129561   5.235   6.045   0.901
 9868TIP3    H229562   5.306   6.043   1.035
 9869TIP3   OH229563   3.590   0.168   4.468
 9869TIP3    H129564   3.561   0.139   4.381
 9869TIP3    H229565   3.552   0.256   4.478
 9870TIP3   OH229566   1.847   3.267   0.663
 9870TIP3    H129567   1.880   3.299   0.578
 9870TIP3    H229568   1.758   3.302   0.669
 9871TIP3   OH229569   1.907   2.539   3.076
 9871TIP3    H129570   1.853   2.523   3.154
 9871TIP3    H229571   1.919   2.634   3.074
 9872TIP3   OH229572   5.627   6.266   2.749
 9872TIP3    H129573   5.637   6.182   2.704
 9872TIP3    H229574   5.540   6.261   2.790
 9873TIP3   OH229575   4.236   2.674   1.128
 9873TIP3    H129576   4.168   2.699   1.191
 9873TIP3    H229577   4.318   2.683   1.176
 9874TIP3   OH229578   1.801   4.411   6.567
 9874TIP3    H129579   1.759   4.413   6.480
 9874TIP3    H229580   1.817   4.503   6.587
 9875TIP3   OH229581   3.126   3.619   2.318
 9875TIP3    H129582   3.184   3.552   2.355
 9875TIP3    H229583   3.041   3.603   2.360
 9876TIP3   OH229584   7.938   3.812   2.935
 9876TIP3    H129585   7.973   3.901   2.935
 9876TIP3    H229586   8.007   3.759   2.895
 9877TIP3   OH229587   4.164   0.056   4.885
 9877TIP3    H129588   4.121  -0.015   4.932
 9877TIP3    H229589   4.175   0.023   4.796
 9878TIP3   OH229590   8.236   7.351   4.556
 9878TIP3    H129591   8.224   7.429   4.502
 9878TIP3    H229592   8.165   7.293   4.532
 9879TIP3   OH229593   2.265   1.475   0.057
 9879TIP3    H129594   2.302   1.387   0.068
 9879TIP3    H229595   2.279   1.518   0.142
 9880TIP3   OH229596   2.814   2.008   0.367
 9880TIP3    H129597   2.881   1.968   0.311
 9880TIP3    H229598   2.795   1.942   0.433
 9881TIP3   OH229599   1.957   5.021   3.297
 9881TIP3    H129600   2.015   4.946   3.310
 9881TIP3    H229601   1.953   5.030   3.201
 9882TIP3   OH229602   0.670   6.267   6.384
 9882TIP3    H129603   0.646   6.253   6.476
 9882TIP3    H229604   0.617   6.342   6.357
 9883TIP3   OH229605   6.457   2.464   2.539
 9883TIP3    H129606   6.381   2.440   2.591
 9883TIP3    H229607   6.532   2.433   2.590
 9884TIP3   OH229608   7.563   5.705   5.864
 9884TIP3    H129609   7.496   5.695   5.932
 9884TIP3    H229610   7.542   5.788   5.822
 9885TIP3   OH229611   7.786   7.454   5.095
 9885TIP3    H129612   7.853   7.479   5.030
 9885TIP3    H229613   7.734   7.533   5.106
 9886TIP3   OH229614   1.745   4.610   4.174
 9886TIP3    H129615   1.804   4.683   4.157
 9886TIP3    H229616   1.729   4.614   4.268
 9887TIP3   OH229617   3.163   0.633   2.847
 9887TIP3    H129618   3.118   0.564   2.798
 9887TIP3    H229619   3.248   0.641   2.804
 9888TIP3   OH229620   8.276   0.638   2.760
 9888TIP3    H129621   8.201   0.579   2.771
 9888TIP3    H229622   8.312   0.647   2.848
 9889TIP3   OH229623   6.406   7.005   5.793
 9889TIP3    H129624   6.415   7.099   5.805
 9889TIP3    H229625   6.390   6.971   5.881
 9890TIP3   OH229626   3.694   3.102   4.367
 9890TIP3    H129627   3.730   3.020   4.402
 9890TIP3    H229628   3.716   3.168   4.432
 9891TIP3   OH229629   6.109   3.954   1.734
 9891TIP3    H129630   6.082   3.999   1.814
 9891TIP3    H229631   6.079   4.010   1.663
 9892TIP3   OH229632   7.148   1.664   4.535
 9892TIP3    H129633   7.141   1.740   4.478
 9892TIP3    H229634   7.150   1.589   4.475
 9893TIP3   OH229635   7.902   0.849   6.567
 9893TIP3    H129636   7.992   0.834   6.539
 9893TIP3    H229637   7.860   0.893   6.493
 9894TIP3   OH229638   7.454   4.293   2.815
 9894TIP3    H129639   7.424   4.203   2.820
 9894TIP3    H229640   7.465   4.320   2.907
 9895TIP3   OH229641   6.809   3.151   6.500
 9895TIP3    H129642   6.870   3.129   6.570
 9895TIP3    H229643   6.785   3.067   6.461
 9896TIP3   OH229644   7.277   4.491   6.056
 9896TIP3    H129645   7.338   4.532   5.994
 9896TIP3    H229646   7.331   4.429   6.104
 9897TIP3   OH229647   4.275   5.687   3.112
 9897TIP3    H129648   4.219   5.716   3.040
 9897TIP3    H229649   4.216   5.642   3.172
 9898TIP3   OH229650   6.459   4.618   5.923
 9898TIP3    H129651   6.546   4.578   5.924
 9898TIP3    H229652   6.400   4.549   5.953
 9899TIP3   OH229653   1.007   1.656   0.280
 9899TIP3    H129654   0.913   1.643   0.295
 9899TIP3    H229655   1.037   1.705   0.356
 9900TIP3   OH229656   1.270   6.652   2.560
 9900TIP3    H129657   1.215   6.696   2.625
 9900TIP3    H229658   1.360   6.673   2.586
 9901TIP3   OH229659   3.089   5.185   2.883
 9901TIP3    H129660   3.094   5.147   2.795
 9901TIP3    H229661   3.031   5.260   2.874
 9902TIP3   OH229662   2.586   3.245   0.031
 9902TIP3    H129663   2.669   3.266   0.073
 9902TIP3    H229664   2.545   3.330   0.016
 9903TIP3   OH229665   0.195   2.019   4.074
 9903TIP3    H129666   0.198   2.054   3.985
 9903TIP3    H229667   0.217   1.926   4.064
 9904TIP3   OH229668   0.634   3.936   3.882
 9904TIP3    H129669   0.598   4.003   3.940
 9904TIP3    H229670   0.716   3.910   3.923
 9905TIP3   OH229671   6.408   5.505   4.909
 9905TIP3    H129672   6.349   5.510   4.834
 9905TIP3    H229673   6.365   5.555   4.977
 9906TIP3   OH229674   4.376   1.030   5.599
 9906TIP3    H129675   4.465   1.059   5.578
 9906TIP3    H229676   4.382   0.935   5.603
 9907TIP3   OH229677   3.218   1.771   2.198
 9907TIP3    H129678   3.263   1.836   2.145
 9907TIP3    H229679   3.262   1.775   2.283
 9908TIP3   OH229680   1.215   0.360   2.080
 9908TIP3    H129681   1.276   0.368   2.153
 9908TIP3    H229682   1.249   0.288   2.028
 9909TIP3   OH229683   1.415   7.713   0.294
 9909TIP3    H129684   1.406   7.725   0.388
 9909TIP3    H229685   1.508   7.697   0.281
 9910TIP3   OH229686   6.655   3.041   1.632
 9910TIP3    H129687   6.686   2.956   1.665
 9910TIP3    H229688   6.648   3.028   1.537
 9911TIP3   OH229689   2.369   0.962   0.984
 9911TIP3    H129690   2.322   0.894   1.032
 9911TIP3    H229691   2.446   0.980   1.038
 9912TIP3   OH229692   8.002   6.835   1.013
 9912TIP3    H129693   7.953   6.775   1.070
 9912TIP3    H229694   7.963   6.921   1.032
 9913TIP3   OH229695   4.372   2.176   6.243
 9913TIP3    H129696   4.351   2.260   6.283
 9913TIP3    H229697   4.343   2.111   6.308
 9914TIP3   OH229698   1.653   3.348   3.914
 9914TIP3    H129699   1.629   3.439   3.895
 9914TIP3    H229700   1.572   3.299   3.905
 9915TIP3   OH229701   6.685   1.613   5.613
 9915TIP3    H129702   6.652   1.646   5.697
 9915TIP3    H229703   6.734   1.534   5.636
 9916TIP3   OH229704   3.217   0.266   0.333
 9916TIP3    H129705   3.232   0.311   0.416
 9916TIP3    H229706   3.193   0.335   0.272
 9917TIP3   OH229707   1.574   5.465   1.587
 9917TIP3    H129708   1.482   5.477   1.610
 9917TIP3    H229709   1.575   5.387   1.531
 9918TIP3   OH229710  -0.027   2.736   1.466
 9918TIP3    H129711  -0.106   2.763   1.513
 9918TIP3    H229712  -0.016   2.802   1.399
 9919TIP3   OH229713   0.586   6.882   0.012
 9919TIP3    H129714   0.503   6.914   0.046
 9919TIP3    H229715   0.637   6.859   0.090
 9920TIP3   OH229716   3.814   6.370   1.105
 9920TIP3    H129717   3.768   6.360   1.189
 9920TIP3    H229718   3.820   6.280   1.071
 9921TIP3   OH229719   2.846   0.663   2.160
 9921TIP3    H129720   2.837   0.569   2.142
 9921TIP3    H229721   2.851   0.670   2.255
 9922TIP3   OH229722   1.072   0.674   1.715
 9922TIP3    H129723   1.047   0.642   1.628
 9922TIP3    H229724   1.055   0.768   1.711
 9923TIP3   OH229725   2.883   5.851   1.894
 9923TIP3    H129726   2.954   5.817   1.840
 9923TIP3    H229727   2.880   5.944   1.875
 9924TIP3   OH229728   1.487   3.611   4.673
 9924TIP3    H129729   1.488   3.681   4.739
 9924TIP3    H229730   1.406   3.563   4.690
 9925TIP3   OH229731   5.102   2.790   1.011
 9925TIP3    H129732   5.113   2.755   0.922
 9925TIP3    H229733   5.071   2.716   1.062
 9926TIP3   OH229734   1.229   4.699   4.780
 9926TIP3    H129735   1.241   4.721   4.872
 9926TIP3    H229736   1.153   4.640   4.779
 9927TIP3   OH229737   1.264   5.631   6.623
 9927TIP3    H129738   1.293   5.568   6.689
 9927TIP3    H229739   1.270   5.584   6.540
 9928TIP3   OH229740   2.098   1.717   6.219
 9928TIP3    H129741   2.058   1.802   6.238
 9928TIP3    H229742   2.086   1.666   6.299
 9929TIP3   OH229743   1.234   4.654   2.128
 9929TIP3    H129744   1.226   4.559   2.131
 9929TIP3    H229745   1.328   4.670   2.130
 9930TIP3   OH229746   1.300   0.715   6.200
 9930TIP3    H129747   1.276   0.632   6.243
 9930TIP3    H229748   1.218   0.764   6.196
 9931TIP3   OH229749   3.944   2.330   3.101
 9931TIP3    H129750   3.968   2.261   3.163
 9931TIP3    H229751   3.931   2.408   3.155
 9932TIP3   OH229752   4.680   1.310   3.584
 9932TIP3    H129753   4.764   1.287   3.545
 9932TIP3    H229754   4.691   1.401   3.611
 9933TIP3   OH229755   5.657   5.822   3.577
 9933TIP3    H129756   5.564   5.807   3.598
 9933TIP3    H229757   5.668   5.917   3.583
 9934TIP3   OH229758   2.894   1.020   2.484
 9934TIP3    H129759   2.841   1.072   2.424
 9934TIP3    H229760   2.879   1.060   2.570
 9935TIP3   OH229761   2.767   4.178   2.562
 9935TIP3    H129762   2.734   4.253   2.612
 9935TIP3    H229763   2.747   4.200   2.471
 9936TIP3   OH229764   0.548   7.061   6.757
 9936TIP3    H129765   0.613   7.037   6.692
 9936TIP3    H229766   0.477   6.998   6.745
 9937TIP3   OH229767   8.165   4.922   4.934
 9937TIP3    H129768   8.129   4.838   4.906
 9937TIP3    H229769   8.244   4.899   4.982
 9938TIP3   OH229770   0.772   2.420   4.483
 9938TIP3    H129771   0.771   2.455   4.395
 9938TIP3    H229772   0.793   2.495   4.539
 9939TIP3   OH229773   6.058   2.335   4.199
 9939TIP3    H129774   6.136   2.304   4.153
 9939TIP3    H229775   5.985   2.309   4.143
 9940TIP3   OH229776   3.877   1.850   2.683
 9940TIP3    H129777   3.897   1.757   2.674
 9940TIP3    H229778   3.819   1.869   2.609
 9941TIP3   OH229779   3.491   1.861   1.515
 9941TIP3    H129780   3.578   1.900   1.518
 9941TIP3    H229781   3.453   1.893   1.433
 9942TIP3   OH229782   4.770   0.450   5.733
 9942TIP3    H129783   4.726   0.524   5.773
 9942TIP3    H229784   4.713   0.424   5.660
 9943TIP3   OH229785   4.173   2.375   5.171
 9943TIP3    H129786   4.198   2.467   5.182
 9943TIP3    H229787   4.096   2.365   5.226
 9944TIP3   OH229788   2.873   1.544   5.826
 9944TIP3    H129789   2.956   1.523   5.870
 9944TIP3    H229790   2.893   1.539   5.733
 9945TIP3   OH229791   2.471   2.101   4.034
 9945TIP3    H129792   2.488   2.008   4.051
 9945TIP3    H229793   2.375   2.108   4.037
 9946TIP3   OH229794   4.838   1.874   3.655
 9946TIP3    H129795   4.885   1.812   3.711
 9946TIP3    H229796   4.844   1.958   3.701
 9947TIP3   OH229797   6.513   3.947   6.442
 9947TIP3    H129798   6.481   3.878   6.384
 9947TIP3    H229799   6.607   3.951   6.424
 9948TIP3   OH229800   3.202   0.864   1.213
 9948TIP3    H129801   3.135   0.830   1.154
 9948TIP3    H229802   3.200   0.804   1.288
 9949TIP3   OH229803   1.032   0.316   2.282
 9949TIP3    H129804   1.073   0.349   2.202
 9949TIP3    H229805   1.085   0.352   2.353
 9950TIP3   OH229806   8.023   0.345   5.900
 9950TIP3    H129807   8.038   0.392   5.983
 9950TIP3    H229808   8.109   0.342   5.858
 9951TIP3   OH229809   1.049   5.699   1.543
 9951TIP3    H129810   1.123   5.741   1.586
 9951TIP3    H229811   1.058   5.606   1.566
 9952TIP3   OH229812   1.499   0.275   4.209
 9952TIP3    H129813   1.522   0.182   4.203
 9952TIP3    H229814   1.579   0.317   4.241
 9953TIP3   OH229815   2.015   3.628   2.546
 9953TIP3    H129816   2.083   3.574   2.506
 9953TIP3    H229817   2.012   3.597   2.637
 9954TIP3   OH229818   5.492   5.506   6.594
 9954TIP3    H129819   5.465   5.569   6.660
 9954TIP3    H229820   5.421   5.506   6.530
 9955TIP3   OH229821   6.026   3.457   2.260
 9955TIP3    H129822   6.108   3.437   2.305
 9955TIP3    H229823   6.053   3.499   2.179
 9956TIP3   OH229824   1.688   4.407   6.113
 9956TIP3    H129825   1.650   4.476   6.059
 9956TIP3    H229826   1.783   4.420   6.106
 9957TIP3   OH229827   7.722   3.074   1.060
 9957TIP3    H129828   7.681   3.135   0.999
 9957TIP3    H229829   7.651   3.044   1.116
 9958TIP3   OH229830   4.465   5.937   3.931
 9958TIP3    H129831   4.374   5.960   3.909
 9958TIP3    H229832   4.461   5.846   3.958
 9959TIP3   OH229833   3.274   0.313   4.878
 9959TIP3    H129834   3.223   0.374   4.931
 9959TIP3    H229835   3.275   0.352   4.791
 9960TIP3   OH229836   0.131   1.636   5.303
 9960TIP3    H129837   0.136   1.547   5.337
 9960TIP3    H229838   0.128   1.691   5.381
 9961TIP3   OH229839   8.068   7.510   5.066
 9961TIP3    H129840   8.101   7.515   5.156
 9961TIP3    H229841   8.137   7.465   5.018
 9962TIP3   OH229842   3.792   7.397   1.510
 9962TIP3    H129843   3.767   7.311   1.476
 9962TIP3    H229844   3.792   7.454   1.434
 9963TIP3   OH229845   4.630   6.821   3.767
 9963TIP3    H129846   4.678   6.904   3.773
 9963TIP3    H229847   4.696   6.757   3.742
 9964TIP3   OH229848   7.166   6.628   4.832
 9964TIP3    H129849   7.127   6.545   4.805
 9964TIP3    H229850   7.244   6.603   4.882
 9965TIP3   OH229851   3.097   5.300   6.681
 9965TIP3    H129852   3.107   5.221   6.629
 9965TIP3    H229853   3.183   5.341   6.679
 9966TIP3   OH229854   5.791   6.270   1.259
 9966TIP3    H129855   5.836   6.192   1.291
 9966TIP3    H229856   5.732   6.238   1.191
 9967TIP3   OH229857   4.703   6.834   5.189
 9967TIP3    H129858   4.783   6.821   5.241
 9967TIP3    H229859   4.730   6.893   5.119
 9968TIP3   OH229860   2.575   1.853   4.034
 9968TIP3    H129861   2.514   1.785   4.005
 9968TIP3    H229862   2.644   1.806   4.080
 9969TIP3   OH229863   3.913   3.108   1.573
 9969TIP3    H129864   3.847   3.175   1.556
 9969TIP3    H229865   3.887   3.033   1.520
 9970TIP3   OH229866   5.378   7.820   0.096
 9970TIP3    H129867   5.443   7.754   0.119
 9970TIP3    H229868   5.303   7.771   0.064
 9971TIP3   OH229869   5.863   6.188   5.209
 9971TIP3    H129870   5.834   6.193   5.300
 9971TIP3    H229871   5.794   6.139   5.164
 9972TIP3   OH229872   1.506   6.054   6.644
 9972TIP3    H129873   1.546   6.069   6.729
 9972TIP3    H229874   1.495   5.959   6.639
 9973TIP3   OH229875   2.265   4.115   0.853
 9973TIP3    H129876   2.289   4.033   0.811
 9973TIP3    H229877   2.278   4.181   0.785
 9974TIP3   OH229878   6.059   2.916   5.395
 9974TIP3    H129879   5.992   2.893   5.331
 9974TIP3    H229880   6.133   2.859   5.375
 9975TIP3   OH229881   3.402   3.060   1.637
 9975TIP3    H129882   3.399   3.152   1.666
 9975TIP3    H229883   3.340   3.015   1.695
 9976TIP3   OH229884   3.512   5.857   1.445
 9976TIP3    H129885   3.499   5.945   1.409
 9976TIP3    H229886   3.572   5.870   1.519
 9977TIP3   OH229887   4.982   5.918   5.860
 9977TIP3    H129888   5.030   5.916   5.777
 9977TIP3    H229889   4.892   5.940   5.835
 9978TIP3   OH229890   0.567   5.317   5.150
 9978TIP3    H129891   0.609   5.394   5.189
 9978TIP3    H229892   0.474   5.327   5.171
 9979TIP3   OH229893   1.285   3.319   3.579
 9979TIP3    H129894   1.355   3.341   3.517
 9979TIP3    H229895   1.260   3.404   3.618
 9980TIP3   OH229896   7.904   1.278   1.134
 9980TIP3    H129897   7.889   1.371   1.152
 9980TIP3    H229898   7.952   1.246   1.211
 9981TIP3   OH229899   4.097   1.970   6.318
 9981TIP3    H129900   4.055   2.053   6.298
 9981TIP3    H229901   4.157   1.990   6.390
 9982TIP3   OH229902   6.433   7.594   3.799
 9982TIP3    H129903   6.414   7.503   3.822
 9982TIP3    H229904   6.455   7.591   3.706
 9983TIP3   OH229905   2.592   1.989   3.769
 9983TIP3    H129906   2.502   1.969   3.744
 9983TIP3    H229907   2.602   1.951   3.857
 9984TIP3   OH229908   5.546   4.980   4.360
 9984TIP3    H129909   5.634   4.972   4.396
 9984TIP3    H229910   5.488   4.960   4.433
 9985TIP3   OH229911   0.950   6.102   1.320
 9985TIP3    H129912   0.951   6.117   1.226
 9985TIP3    H229913   0.968   6.008   1.329
 9986TIP3   OH229914   0.404   7.105   3.093
 9986TIP3    H129915   0.489   7.109   3.048
 9986TIP3    H229916   0.408   7.175   3.157
 9987TIP3   OH229917  -0.050   5.734   6.276
 9987TIP3    H129918  -0.090   5.749   6.190
 9987TIP3    H229919  -0.015   5.646   6.271
 9988TIP3   OH229920   0.026   0.882   3.483
 9988TIP3    H129921   0.108   0.876   3.531
 9988TIP3    H229922  -0.037   0.915   3.547
 9989TIP3   OH229923   0.001   5.911   5.307
 9989TIP3    H129924  -0.046   5.831   5.282
 9989TIP3    H229925   0.080   5.879   5.350
 9990TIP3   OH229926   2.304   4.819   2.170
 9990TIP3    H129927   2.371   4.806   2.103
 9990TIP3    H229928   2.246   4.886   2.134
 9991TIP3   OH229929   0.991   6.998   4.569
 9991TIP3    H129930   0.904   6.988   4.608
 9991TIP3    H229931   1.008   7.092   4.570
 9992TIP3   OH229932   4.322   4.510   1.309
 9992TIP3    H129933   4.320   4.575   1.238
 9992TIP3    H229934   4.269   4.438   1.276
 9993TIP3   OH229935   0.221   4.969   4.662
 9993TIP3    H129936   0.260   5.055   4.644
 9993TIP3    H229937   0.140   4.990   4.708
 9994TIP3   OH229938   0.079   0.973   0.443
 9994TIP3    H129939   0.134   1.027   0.385
 9994TIP3    H229940   0.072   1.023   0.523
 9995TIP3   OH229941   7.545   3.009   1.271
 9995TIP3    H129942   7.461   3.051   1.254
 9995TIP3    H229943   7.593   3.073   1.324
 9996TIP3   OH229944   7.255   2.270   5.090
 9996TIP3    H129945   7.246   2.356   5.130
 9996TIP3    H229946   7.317   2.282   5.019
 9997TIP3   OH229947   0.366   0.683   2.682
 9997TIP3    H129948   0.287   0.657   2.634
 9997TIP3    H229949   0.341   0.762   2.730
 9998TIP3   OH229950   2.616   7.215   2.717
 9998TIP3    H129951   2.574   7.178   2.794
 9998TIP3    H229952   2.702   7.244   2.748
 9999TIP3   OH229953   6.830   4.584   4.307
 9999TIP3    H129954   6.892   4.589   4.380
 9999TIP3    H229955   6.745   4.599   4.347
10000TIP3   OH229956   3.840   4.608   2.542
10000TIP3    H129957   3.913   4.634   2.599
10000TIP3    H229958   3.881   4.587   2.459
10001TIP3   OH229959   1.376   6.440   2.799
10001TIP3    H129960   1.445   6.445   2.732
10001TIP3    H229961   1.390   6.518   2.853
10002TIP3   OH229962   2.387   3.469   4.443
10002TIP3    H129963   2.401   3.546   4.389
10002TIP3    H229964   2.407   3.395   4.386
10003TIP3   OH229965   2.351   6.989   2.267
10003TIP3    H129966   2.352   6.929   2.192
10003TIP3    H229967   2.269   6.969   2.313
10004TIP3   OH229968   4.825   6.380   3.314
10004TIP3    H129969   4.874   6.336   3.245
10004TIP3    H229970   4.762   6.314   3.344
10005TIP3   OH229971   4.674   5.051   5.464
10005TIP3    H129972   4.707   5.005   5.387
10005TIP3    H229973   4.578   5.042   5.458
10006TIP3   OH229974   5.660   0.687   0.831
10006TIP3    H129975   5.732   0.651   0.779
10006TIP3    H229976   5.591   0.702   0.767
10007TIP3   OH229977   4.043   0.615   6.774
10007TIP3    H129978   4.077   0.648   6.857
10007TIP3    H229979   4.070   0.679   6.709
10008TIP3   OH229980   1.302   7.390   1.490
10008TIP3    H129981   1.376   7.329   1.479
10008TIP3    H229982   1.329   7.469   1.442
10009TIP3   OH229983   4.070   1.203   0.301
10009TIP3    H129984   3.980   1.203   0.267
10009TIP3    H229985   4.076   1.123   0.353
10010TIP3   OH229986   6.905   7.414   4.111
10010TIP3    H129987   6.851   7.345   4.072
10010TIP3    H229988   6.960   7.368   4.174
10011TIP3   OH229989   6.695   2.397   0.463
10011TIP3    H129990   6.707   2.350   0.380
10011TIP3    H229991   6.605   2.428   0.459
10012TIP3   OH229992   4.083   3.759   5.460
10012TIP3    H129993   3.993   3.767   5.427
10012TIP3    H229994   4.135   3.739   5.383
10013TIP3   OH229995   2.523   0.619   1.900
10013TIP3    H129996   2.571   0.664   1.831
10013TIP3    H229997   2.434   0.611   1.865
10014TIP3   OH229998   4.822   2.639   6.126
10014TIP3    H129999   4.733   2.604   6.126
10014TIP3    H230000   4.878   2.561   6.128
10015TIP3   OH230001   7.637   5.639   3.160
10015TIP3    H130002   7.558   5.689   3.180
10015TIP3    H230003   7.709   5.689   3.199
10016TIP3   OH230004   2.099   7.385   6.392
10016TIP3    H130005   2.119   7.295   6.364
10016TIP3    H230006   2.022   7.409   6.342
10017TIP3   OH230007   2.578   6.151   3.761
10017TIP3    H130008   2.581   6.114   3.849
10017TIP3    H230009   2.665   6.189   3.748
10018TIP3   OH230010   3.351   4.907   1.452
10018TIP3    H130011   3.382   4.996   1.468
10018TIP3    H230012   3.423   4.865   1.405
10019TIP3   OH230013   1.293   2.969   5.497
10019TIP3    H130014   1.350   2.950   5.422
10019TIP3    H230015   1.256   3.055   5.478
10020TIP3   OH230016   3.761   2.931   5.929
10020TIP3    H130017   3.761   2.971   6.016
10020TIP3    H230018   3.672   2.896   5.919
10021TIP3   OH230019   0.183   5.314   4.073
10021TIP3    H130020   0.111   5.253   4.092
10021TIP3    H230021   0.231   5.319   4.156
10022TIP3   OH230022   6.259   2.254   4.652
10022TIP3    H130023   6.197   2.257   4.580
10022TIP3    H230024   6.212   2.209   4.722
10023TIP3   OH230025   3.168   0.999   2.456
10023TIP3    H130026   3.161   0.909   2.425
10023TIP3    H230027   3.077   1.026   2.471
10024TIP3   OH230028   6.427   5.375   0.455
10024TIP3    H130029   6.342   5.333   0.440
10024TIP3    H230030   6.457   5.398   0.368
10025TIP3   OH230031   1.156   0.068   2.155
10025TIP3    H130032   1.133   0.107   2.239
10025TIP3    H230033   1.181  -0.022   2.176
10026TIP3   OH230034   3.928   7.697   0.151
10026TIP3    H130035   3.953   7.716   0.060
10026TIP3    H230036   3.921   7.601   0.154
10027TIP3   OH230037   6.049   1.973   4.110
10027TIP3    H130038   6.108   1.964   4.035
10027TIP3    H230039   5.993   2.047   4.087
10028TIP3   OH230040   7.712   1.806   2.330
10028TIP3    H130041   7.690   1.807   2.424
10028TIP3    H230042   7.666   1.730   2.296
10029TIP3   OH230043   6.281   7.401   2.044
10029TIP3    H130044   6.264   7.460   2.117
10029TIP3    H230045   6.197   7.395   1.998
10030TIP3   OH230046   2.806   6.872   0.991
10030TIP3    H130047   2.762   6.801   1.038
10030TIP3    H230048   2.897   6.868   1.021
10031TIP3   OH230049   3.622   0.722   0.963
10031TIP3    H130050   3.625   0.629   0.987
10031TIP3    H230051   3.534   0.735   0.928
10032TIP3   OH230052   5.576   3.238   6.521
10032TIP3    H130053   5.544   3.328   6.524
10032TIP3    H230054   5.498   3.184   6.533
10033TIP3   OH230055   0.952   0.932   4.589
10033TIP3    H130056   1.030   0.947   4.643
10033TIP3    H230057   0.907   0.860   4.632
10034TIP3   OH230058   1.579   5.306   5.395
10034TIP3    H130059   1.615   5.354   5.470
10034TIP3    H230060   1.619   5.347   5.319
10035TIP3   OH230061   1.158   5.325   4.328
10035TIP3    H130062   1.242   5.336   4.373
10035TIP3    H230063   1.101   5.286   4.395
10036TIP3   OH230064   4.129   0.468   4.707
10036TIP3    H130065   4.132   0.372   4.705
10036TIP3    H230066   4.200   0.492   4.767
10037TIP3   OH230067   6.485   7.549   4.087
10037TIP3    H130068   6.407   7.582   4.131
10037TIP3    H230069   6.480   7.584   3.998
10038TIP3   OH230070   4.363   3.486   6.374
10038TIP3    H130071   4.437   3.522   6.325
10038TIP3    H230072   4.306   3.448   6.307
10039TIP3   OH230073   5.225   3.051   3.554
10039TIP3    H130074   5.207   3.092   3.639
10039TIP3    H230075   5.317   3.024   3.560
10040TIP3   OH230076   5.173   3.301   1.780
10040TIP3    H130077   5.245   3.239   1.795
10040TIP3    H230078   5.206   3.360   1.712
10041TIP3   OH230079   5.465   2.618   5.221
10041TIP3    H130080   5.491   2.709   5.211
10041TIP3    H230081   5.441   2.610   5.313
10042TIP3   OH230082   6.402   2.203   3.827
10042TIP3    H130083   6.322   2.152   3.845
10042TIP3    H230084   6.462   2.178   3.897
10043TIP3   OH230085   0.243   3.118   0.188
10043TIP3    H130086   0.243   3.043   0.248
10043TIP3    H230087   0.238   3.195   0.245
10044TIP3   OH230088   6.345   1.936   4.993
10044TIP3    H130089   6.337   1.985   5.075
10044TIP3    H230090   6.298   1.989   4.929
10045TIP3   OH230091   4.693   5.299   4.931
10045TIP3    H130092   4.613   5.346   4.908
10045TIP3    H230093   4.686   5.216   4.884
10046TIP3   OH230094   5.720   7.601   2.957
10046TIP3    H130095   5.714   7.678   3.013
10046TIP3    H230096   5.808   7.566   2.973
10047TIP3   OH230097   2.964   0.010   0.183
10047TIP3    H130098   2.962   0.104   0.163
10047TIP3    H230099   2.934  -0.032   0.103
10048TIP3   OH230100   4.317   1.820   3.626
10048TIP3    H130101   4.224   1.810   3.643
10048TIP3    H230102   4.356   1.835   3.712
10049TIP3   OH230103   7.960   6.640   5.112
10049TIP3    H130104   7.927   6.712   5.058
10049TIP3    H230105   7.920   6.562   5.074
10050TIP3   OH230106   5.236   5.827   2.539
10050TIP3    H130107   5.262   5.892   2.605
10050TIP3    H230108   5.166   5.777   2.581
10051TIP3   OH230109   5.996   5.317   6.034
10051TIP3    H130110   6.023   5.404   6.065
10051TIP3    H230111   6.073   5.284   5.988
10052TIP3   OH230112   3.831   1.085   1.475
10052TIP3    H130113   3.882   1.043   1.406
10052TIP3    H230114   3.789   1.160   1.432
10053TIP3   OH230115   5.127   5.428   6.197
10053TIP3    H130116   5.068   5.495   6.230
10053TIP3    H230117   5.095   5.346   6.236
10054TIP3   OH230118   6.141   4.882   4.570
10054TIP3    H130119   6.133   4.877   4.475
10054TIP3    H230120   6.198   4.808   4.593
10055TIP3   OH230121   1.801   1.338   2.578
10055TIP3    H130122   1.884   1.338   2.531
10055TIP3    H230123   1.822   1.374   2.664
10056TIP3   OH230124   6.618   7.093   1.992
10056TIP3    H130125   6.713   7.095   1.979
10056TIP3    H230126   6.595   7.001   1.988
10057TIP3   OH230127   7.864   6.254   4.310
10057TIP3    H130128   7.843   6.323   4.373
10057TIP3    H230129   7.945   6.215   4.343
10058TIP3   OH230130   7.430   3.123   6.554
10058TIP3    H130131   7.420   3.056   6.486
10058TIP3    H230132   7.404   3.204   6.511
10059TIP3   OH230133   3.951   7.685   3.006
10059TIP3    H130134   3.965   7.644   2.920
10059TIP3    H230135   4.003   7.632   3.066
10060TIP3   OH230136   8.143   7.744   6.039
10060TIP3    H130137   8.220   7.731   5.984
10060TIP3    H230138   8.156   7.686   6.114
10061TIP3   OH230139   7.707   3.099   6.026
10061TIP3    H130140   7.759   3.178   6.016
10061TIP3    H230141   7.748   3.035   5.968
10062TIP3   OH230142   0.540   4.444   1.673
10062TIP3    H130143   0.606   4.437   1.742
10062TIP3    H230144   0.516   4.353   1.655
10063TIP3   OH230145   5.008   5.976   5.295
10063TIP3    H130146   5.037   6.027   5.219
10063TIP3    H230147   5.012   5.885   5.265
10064TIP3   OH230148   2.947   2.463   1.102
10064TIP3    H130149   2.865   2.483   1.146
10064TIP3    H230150   2.995   2.409   1.164
10065TIP3   OH230151   0.495   4.498   2.953
10065TIP3    H130152   0.539   4.478   2.871
10065TIP3    H230153   0.562   4.485   3.020
10066TIP3   OH230154   5.204   4.909   2.745
10066TIP3    H130155   5.202   4.816   2.765
10066TIP3    H230156   5.298   4.930   2.740
10067TIP3   OH230157   3.119   7.103   0.150
10067TIP3    H130158   3.139   7.042   0.221
10067TIP3    H230159   3.024   7.114   0.154
10068TIP3   OH230160   2.389   0.707   5.737
10068TIP3    H130161   2.367   0.672   5.650
10068TIP3    H230162   2.476   0.672   5.756
10069TIP3   OH230163   1.217   1.387   6.539
10069TIP3    H130164   1.191   1.345   6.621
10069TIP3    H230165   1.237   1.315   6.480
10070TIP3   OH230166   6.449   1.400   1.552
10070TIP3    H130167   6.486   1.323   1.593
10070TIP3    H230168   6.472   1.473   1.609
10071TIP3   OH230169   2.772   7.024   1.321
10071TIP3    H130170   2.731   7.089   1.377
10071TIP3    H230171   2.776   7.066   1.235
10072TIP3   OH230172   1.844   6.715   1.237
10072TIP3    H130173   1.869   6.788   1.294
10072TIP3    H230174   1.915   6.711   1.173
10073TIP3   OH230175   8.080   4.030   0.162
10073TIP3    H130176   8.066   3.953   0.107
10073TIP3    H230177   8.106   3.994   0.247
10074TIP3   OH230178   2.647   1.967   1.819
10074TIP3    H130179   2.724   1.945   1.872
10074TIP3    H230180   2.573   1.933   1.870
10075TIP3   OH230181   0.709   3.454   1.688
10075TIP3    H130182   0.674   3.536   1.722
10075TIP3    H230183   0.784   3.434   1.744
10076TIP3   OH230184   0.109   3.314   0.381
10076TIP3    H130185   0.055   3.365   0.442
10076TIP3    H230186   0.187   3.291   0.432
10077TIP3   OH230187   3.638   5.706   4.483
10077TIP3    H130188   3.586   5.770   4.436
10077TIP3    H230189   3.667   5.644   4.416
10078TIP3   OH230190   1.071   5.320   2.819
10078TIP3    H130191   1.029   5.372   2.750
10078TIP3    H230192   1.161   5.306   2.787
10079TIP3   OH230193   1.646   2.672   2.951
10079TIP3    H130194   1.688   2.615   2.887
10079TIP3    H230195   1.715   2.731   2.981
10080TIP3   OH230196   2.791   5.116   5.816
10080TIP3    H130197   2.735   5.175   5.766
10080TIP3    H230198   2.782   5.145   5.907
10081TIP3   OH230199   3.051   0.606   4.845
10081TIP3    H130200   2.981   0.671   4.834
10081TIP3    H230201   3.083   0.589   4.756
10082TIP3   OH230202   4.874   4.440   1.218
10082TIP3    H130203   4.871   4.348   1.192
10082TIP3    H230204   4.784   4.470   1.210
10083TIP3   OH230205   6.946   1.152   4.187
10083TIP3    H130206   7.039   1.164   4.165
10083TIP3    H230207   6.906   1.120   4.107
10084TIP3   OH230208   7.603   2.622   5.251
10084TIP3    H130209   7.529   2.594   5.306
10084TIP3    H230210   7.675   2.564   5.278
10085TIP3   OH230211   1.564   4.177   0.347
10085TIP3    H130212   1.622   4.247   0.316
10085TIP3    H230213   1.505   4.160   0.274
10086TIP3   OH230214   1.594   7.230   6.214
10086TIP3    H130215   1.507   7.230   6.255
10086TIP3    H230216   1.651   7.192   6.280
10087TIP3   OH230217   6.079   7.166   4.004
10087TIP3    H130218   6.109   7.256   3.989
10087TIP3    H230219   6.142   7.130   4.067
10088TIP3   OH230220   0.419   0.344   5.541
10088TIP3    H130221   0.514   0.354   5.531
10088TIP3    H230222   0.387   0.329   5.453
10089TIP3   OH230223   1.595   6.949   1.557
10089TIP3    H130224   1.608   6.862   1.519
10089TIP3    H230225   1.684   6.981   1.574
10090TIP3   OH230226   4.931   3.967   4.259
10090TIP3    H130227   4.922   3.978   4.165
10090TIP3    H230228   5.024   3.982   4.277
10091TIP3   OH230229   3.934   3.875   1.891
10091TIP3    H130230   3.900   3.914   1.811
10091TIP3    H230231   4.029   3.883   1.883
10092TIP3   OH230232   0.165   6.182   2.687
10092TIP3    H130233   0.211   6.142   2.613
10092TIP3    H230234   0.145   6.271   2.658
10093TIP3   OH230235   2.111   2.734   4.018
10093TIP3    H130236   2.016   2.741   4.020
10093TIP3    H230237   2.129   2.659   3.960
10094TIP3   OH230238   7.748   1.703   2.610
10094TIP3    H130239   7.677   1.704   2.674
10094TIP3    H230240   7.738   1.619   2.564
10095TIP3   OH230241   4.414   0.534   2.206
10095TIP3    H130242   4.320   0.521   2.222
10095TIP3    H230243   4.419   0.564   2.115
10096TIP3   OH230244   2.208   5.598   0.247
10096TIP3    H130245   2.190   5.608   0.154
10096TIP3    H230246   2.138   5.646   0.291
10097TIP3   OH230247   5.081   1.380   2.980
10097TIP3    H130248   4.995   1.349   3.010
10097TIP3    H230249   5.081   1.364   2.886
10098TIP3   OH230250   3.474   0.570   1.581
10098TIP3    H130251   3.543   0.634   1.600
10098TIP3    H230252   3.394   0.621   1.573
10099TIP3   OH230253   3.255   1.262   2.406
10099TIP3    H130254   3.240   1.178   2.448
10099TIP3    H230255   3.189   1.320   2.443
10100TIP3   OH230256   2.379   4.457   2.016
10100TIP3    H130257   2.349   4.468   2.107
10100TIP3    H230258   2.303   4.420   1.971
10101TIP3   OH230259   7.362   7.565   2.046
10101TIP3    H130260   7.303   7.546   2.119
10101TIP3    H230261   7.445   7.588   2.087
10102TIP3   OH230262   1.488   3.554   0.246
10102TIP3    H130263   1.397   3.583   0.253
10102TIP3    H230264   1.512   3.531   0.336
10103TIP3   OH230265   4.156   4.931   4.167
10103TIP3    H130266   4.092   4.939   4.096
10103TIP3    H230267   4.190   5.019   4.179
10104TIP3   OH230268   0.442   6.051   4.012
10104TIP3    H130269   0.503   6.053   3.938
10104TIP3    H230270   0.356   6.039   3.973
10105TIP3   OH230271   3.578   5.506   5.951
10105TIP3    H130272   3.572   5.482   5.859
10105TIP3    H230273   3.496   5.551   5.969
10106TIP3   OH230274   2.643   5.704   0.613
10106TIP3    H130275   2.597   5.648   0.551
10106TIP3    H230276   2.591   5.784   0.616
10107TIP3   OH230277   3.850   0.040   0.045
10107TIP3    H130278   3.828  -0.031   0.105
10107TIP3    H230279   3.765   0.074   0.016
10108TIP3   OH230280   3.249   3.372   5.829
10108TIP3    H130281   3.230   3.453   5.782
10108TIP3    H230282   3.336   3.387   5.867
10109TIP3   OH230283   5.805   7.852   3.443
10109TIP3    H130284   5.853   7.819   3.367
10109TIP3    H230285   5.793   7.776   3.499
10110TIP3   OH230286   4.475   0.561   3.027
10110TIP3    H130287   4.427   0.482   3.002
10110TIP3    H230288   4.566   0.533   3.032
10111TIP3   OH230289   4.438   6.346   2.686
10111TIP3    H130290   4.459   6.408   2.616
10111TIP3    H230291   4.450   6.396   2.767
10112TIP3   OH230292   6.349   5.029   2.053
10112TIP3    H130293   6.266   5.068   2.024
10112TIP3    H230294   6.325   4.944   2.088
10113TIP3   OH230295   7.667   0.078   4.915
10113TIP3    H130296   7.690   0.060   4.824
10113TIP3    H230297   7.697   0.002   4.964
10114TIP3   OH230298   3.596   4.425   1.016
10114TIP3    H130299   3.559   4.430   0.928
10114TIP3    H230300   3.607   4.331   1.032
10115TIP3   OH230301   5.886   5.683   4.251
10115TIP3    H130302   5.805   5.666   4.300
10115TIP3    H230303   5.956   5.676   4.316
10116TIP3   OH230304   7.629   6.405   6.231
10116TIP3    H130305   7.597   6.414   6.321
10116TIP3    H230306   7.715   6.363   6.241
10117TIP3   OH230307   3.419   1.822   5.979
10117TIP3    H130308   3.421   1.732   6.014
10117TIP3    H230309   3.510   1.850   5.978
10118TIP3   OH230310   0.401   4.524   5.479
10118TIP3    H130311   0.493   4.531   5.506
10118TIP3    H230312   0.405   4.485   5.392
10119TIP3   OH230313   3.846   6.832   2.517
10119TIP3    H130314   3.897   6.755   2.544
10119TIP3    H230315   3.756   6.800   2.508
10120TIP3   OH230316   8.199   2.717   3.253
10120TIP3    H130317   8.135   2.770   3.300
10120TIP3    H230318   8.253   2.781   3.206
10121TIP3   OH230319   0.834   1.480   5.462
10121TIP3    H130320   0.838   1.523   5.377
10121TIP3    H230321   0.864   1.391   5.444
10122TIP3   OH230322   8.037   0.558   1.718
10122TIP3    H130323   8.106   0.607   1.763
10122TIP3    H230324   8.082   0.520   1.642
10123TIP3   OH230325   3.182   6.571   3.619
10123TIP3    H130326   3.141   6.636   3.563
10123TIP3    H230327   3.140   6.583   3.705
10124TIP3   OH230328   2.644   6.982   2.551
10124TIP3    H130329   2.598   7.003   2.469
10124TIP3    H230330   2.639   7.063   2.602
10125TIP3   OH230331   6.828   4.172   1.745
10125TIP3    H130332   6.780   4.094   1.772
10125TIP3    H230333   6.788   4.198   1.663
10126TIP3   OH230334   2.805   7.601   4.515
10126TIP3    H130335   2.855   7.563   4.587
10126TIP3    H230336   2.872   7.629   4.452
10127TIP3   OH230337   4.270   4.493   4.692
10127TIP3    H130338   4.299   4.550   4.763
10127TIP3    H230339   4.187   4.531   4.663
10128TIP3   OH230340   0.369   4.098   4.234
10128TIP3    H130341   0.410   4.176   4.271
10128TIP3    H230342   0.278   4.103   4.263
10129TIP3   OH230343   6.756   0.377   0.283
10129TIP3    H130344   6.803   0.452   0.320
10129TIP3    H230345   6.700   0.414   0.216
10130TIP3   OH230346   2.806   4.333   4.129
10130TIP3    H130347   2.770   4.405   4.078
10130TIP3    H230348   2.763   4.339   4.214
10131TIP3   OH230349   7.905   5.153   6.461
10131TIP3    H130350   7.831   5.197   6.503
10131TIP3    H230351   7.889   5.060   6.476
10132TIP3   OH230352   4.200   0.566   2.822
10132TIP3    H130353   4.108   0.548   2.840
10132TIP3    H230354   4.240   0.480   2.814
10133TIP3   OH230355   1.697   5.683   6.019
10133TIP3    H130356   1.730   5.677   6.109
10133TIP3    H230357   1.662   5.771   6.012
10134TIP3   OH230358   3.190   5.846   5.913
10134TIP3    H130359   3.263   5.862   5.854
10134TIP3    H230360   3.151   5.764   5.882
10135TIP3   OH230361   6.542   1.524   4.270
10135TIP3    H130362   6.599   1.476   4.211
10135TIP3    H230363   6.547   1.615   4.241
10136TIP3   OH230364   5.952   2.161   0.580
10136TIP3    H130365   6.017   2.116   0.526
10136TIP3    H230366   5.879   2.179   0.521
10137TIP3   OH230367   5.254   3.833   5.814
10137TIP3    H130368   5.270   3.926   5.825
10137TIP3    H230369   5.162   3.821   5.835
10138TIP3   OH230370   5.742   2.145   3.513
10138TIP3    H130371   5.836   2.151   3.531
10138TIP3    H230372   5.735   2.164   3.419
10139TIP3   OH230373   3.374   3.633   1.403
10139TIP3    H130374   3.283   3.605   1.414
10139TIP3    H230375   3.385   3.704   1.467
10140TIP3   OH230376   0.279   1.875   6.489
10140TIP3    H130377   0.289   1.878   6.394
10140TIP3    H230378   0.343   1.809   6.518
10141TIP3   OH230379   4.605   0.513   1.388
10141TIP3    H130380   4.610   0.587   1.448
10141TIP3    H230381   4.694   0.505   1.352
10142TIP3   OH230382   6.451   5.497   4.405
10142TIP3    H130383   6.386   5.427   4.403
10142TIP3    H230384   6.473   5.511   4.313
10143TIP3   OH230385   0.956   4.887   6.544
10143TIP3    H130386   0.950   4.836   6.463
10143TIP3    H230387   0.948   4.821   6.613
10144TIP3   OH230388   5.517   0.047   5.187
10144TIP3    H130389   5.466  -0.033   5.173
10144TIP3    H230390   5.453   0.117   5.182
10145TIP3   OH230391   3.611   0.346   5.879
10145TIP3    H130392   3.705   0.352   5.864
10145TIP3    H230393   3.593   0.415   5.943
10146TIP3   OH230394   5.519   2.789   6.716
10146TIP3    H130395   5.555   2.724   6.776
10146TIP3    H230396   5.593   2.813   6.660
10147TIP3   OH230397   1.977   5.277   3.021
10147TIP3    H130398   2.053   5.286   3.079
10147TIP3    H230399   1.980   5.186   2.992
10148TIP3   OH230400   3.926   4.870   0.503
10148TIP3    H130401   3.879   4.945   0.540
10148TIP3    H230402   3.865   4.835   0.438
10149TIP3   OH230403   0.475   7.639   2.965
10149TIP3    H130404   0.545   7.586   2.928
10149TIP3    H230405   0.497   7.646   3.058
10150TIP3   OH230406   7.709   2.223   5.633
10150TIP3    H130407   7.792   2.235   5.586
10150TIP3    H230408   7.697   2.129   5.638
10151TIP3   OH230409   0.711   2.167   4.479
10151TIP3    H130410   0.722   2.154   4.385
10151TIP3    H230411   0.726   2.260   4.493
10152TIP3   OH230412   6.775   1.582   4.541
10152TIP3    H130413   6.693   1.537   4.518
10152TIP3    H230414   6.789   1.561   4.633
10153TIP3   OH230415   7.080   6.034   5.175
10153TIP3    H130416   7.149   5.968   5.169
10153TIP3    H230417   7.036   6.031   5.090
10154TIP3   OH230418   5.861   7.236   0.801
10154TIP3    H130419   5.818   7.322   0.806
10154TIP3    H230420   5.950   7.255   0.771
10155TIP3   OH230421   2.867   0.626   2.432
10155TIP3    H130422   2.808   0.681   2.483
10155TIP3    H230423   2.897   0.560   2.495
10156TIP3   OH230424   6.823   0.735   3.008
10156TIP3    H130425   6.814   0.683   3.088
10156TIP3    H230426   6.831   0.670   2.938
10157TIP3   OH230427   7.337   2.270   1.175
10157TIP3    H130428   7.282   2.274   1.253
10157TIP3    H230429   7.308   2.192   1.129
10158TIP3   OH230430   7.384   3.486   6.315
10158TIP3    H130431   7.416   3.514   6.401
10158TIP3    H230432   7.376   3.568   6.265
10159TIP3   OH230433   7.233   1.904   5.008
10159TIP3    H130434   7.328   1.896   5.019
10159TIP3    H230435   7.201   1.814   5.013
10160TIP3   OH230436   4.820   5.052   4.319
10160TIP3    H130437   4.871   5.076   4.397
10160TIP3    H230438   4.731   5.080   4.340
10161TIP3   OH230439   2.934   2.476   0.633
10161TIP3    H130440   2.885   2.394   0.636
10161TIP3    H230441   2.993   2.472   0.709
10162TIP3   OH230442   0.280   0.904   3.796
10162TIP3    H130443   0.208   0.841   3.795
10162TIP3    H230444   0.306   0.912   3.704
10163TIP3   OH230445   2.167   2.595   2.089
10163TIP3    H130446   2.230   2.666   2.078
10163TIP3    H230447   2.102   2.610   2.021
10164TIP3   OH230448   2.102   3.084   0.627
10164TIP3    H130449   2.046   3.114   0.556
10164TIP3    H230450   2.046   3.029   0.681
10165TIP3   OH230451   3.759   4.314   3.605
10165TIP3    H130452   3.830   4.333   3.544
10165TIP3    H230453   3.683   4.300   3.549
10166TIP3   OH230454   6.465   1.962   2.207
10166TIP3    H130455   6.439   1.996   2.121
10166TIP3    H230456   6.440   2.032   2.268
10167TIP3   OH230457   3.219   1.434   5.087
10167TIP3    H130458   3.306   1.467   5.108
10167TIP3    H230459   3.160   1.507   5.105
10168TIP3   OH230460   4.110   2.479   4.386
10168TIP3    H130461   4.128   2.505   4.295
10168TIP3    H230462   4.171   2.531   4.438
10169TIP3   OH230463   5.883   4.337   3.132
10169TIP3    H130464   5.900   4.339   3.038
10169TIP3    H230465   5.887   4.244   3.155
10170TIP3   OH230466   5.989   2.001   6.427
10170TIP3    H130467   6.019   2.071   6.484
10170TIP3    H230468   5.893   2.011   6.425
10171TIP3   OH230469   3.041   1.990   2.178
10171TIP3    H130470   3.130   2.001   2.209
10171TIP3    H230471   3.033   1.896   2.159
10172TIP3   OH230472   6.990   3.361   2.209
10172TIP3    H130473   6.905   3.327   2.181
10172TIP3    H230474   7.037   3.284   2.241
10173TIP3   OH230475   1.443   3.980   1.648
10173TIP3    H130476   1.507   4.046   1.622
10173TIP3    H230477   1.495   3.910   1.686
10174TIP3   OH230478   5.687   5.400   0.292
10174TIP3    H130479   5.740   5.339   0.345
10174TIP3    H230480   5.613   5.422   0.348
10175TIP3   OH230481   3.738   7.143   1.421
10175TIP3    H130482   3.650   7.107   1.407
10175TIP3    H230483   3.790   7.068   1.451
10176TIP3   OH230484   0.165   0.897   5.674
10176TIP3    H130485   0.206   0.843   5.606
10176TIP3    H230486   0.090   0.936   5.630
10177TIP3   OH230487   7.483   6.616   2.308
10177TIP3    H130488   7.395   6.591   2.280
10177TIP3    H230489   7.507   6.549   2.372
10178TIP3   OH230490   7.166   7.493   2.219
10178TIP3    H130491   7.237   7.455   2.271
10178TIP3    H230492   7.105   7.527   2.283
10179TIP3   OH230493   1.932   0.477   0.952
10179TIP3    H130494   2.005   0.417   0.936
10179TIP3    H230495   1.899   0.452   1.038
10180TIP3   OH230496   7.891   4.702   1.417
10180TIP3    H130497   7.826   4.718   1.485
10180TIP3    H230498   7.932   4.787   1.402
10181TIP3   OH230499   1.556   5.427   3.218
10181TIP3    H130500   1.531   5.499   3.160
10181TIP3    H230501   1.568   5.468   3.304
10182TIP3   OH230502   2.792   5.376   4.927
10182TIP3    H130503   2.710   5.327   4.926
10182TIP3    H230504   2.766   5.466   4.905
10183TIP3   OH230505   2.619   1.859   6.412
10183TIP3    H130506   2.601   1.895   6.325
10183TIP3    H230507   2.691   1.798   6.397
10184TIP3   OH230508   2.572   7.031   5.962
10184TIP3    H130509   2.538   7.026   5.873
10184TIP3    H230510   2.665   7.052   5.952
10185TIP3   OH230511   5.359   1.868   1.179
10185TIP3    H130512   5.338   1.775   1.186
10185TIP3    H230513   5.453   1.870   1.160
10186TIP3   OH230514   1.318   4.612   5.070
10186TIP3    H130515   1.276   4.528   5.091
10186TIP3    H230516   1.373   4.593   4.994
10187TIP3   OH230517   1.617   7.662   0.584
10187TIP3    H130518   1.526   7.687   0.567
10187TIP3    H230519   1.651   7.732   0.639
10188TIP3   OH230520   0.535   0.312   1.261
10188TIP3    H130521   0.461   0.284   1.314
10188TIP3    H230522   0.526   0.407   1.254
10189TIP3   OH230523   8.023   6.627   0.131
10189TIP3    H130524   8.052   6.536   0.137
10189TIP3    H230525   8.099   6.674   0.097
10190TIP3   OH230526   0.910   2.189   2.195
10190TIP3    H130527   0.899   2.103   2.235
10190TIP3    H230528   0.906   2.251   2.268
10191TIP3   OH230529   2.515   1.982   6.163
10191TIP3    H130530   2.499   2.073   6.187
10191TIP3    H230531   2.610   1.974   6.161
10192TIP3   OH230532   7.848   2.157   4.046
10192TIP3    H130533   7.860   2.101   3.969
10192TIP3    H230534   7.935   2.159   4.087
10193TIP3   OH230535   5.483   6.341   4.609
10193TIP3    H130536   5.387   6.342   4.604
10193TIP3    H230537   5.512   6.369   4.522
10194TIP3   OH230538   7.294   5.167   5.885
10194TIP3    H130539   7.224   5.108   5.913
10194TIP3    H230540   7.352   5.111   5.833
10195TIP3   OH230541   1.274   7.782   5.517
10195TIP3    H130542   1.228   7.731   5.583
10195TIP3    H230543   1.347   7.725   5.490
10196TIP3   OH230544   5.772   3.741   3.887
10196TIP3    H130545   5.754   3.657   3.845
10196TIP3    H230546   5.866   3.741   3.901
10197TIP3   OH230547   1.098   3.640   4.409
10197TIP3    H130548   1.072   3.664   4.320
10197TIP3    H230549   1.117   3.724   4.452
10198TIP3   OH230550   6.709   5.592   0.341
10198TIP3    H130551   6.673   5.636   0.418
10198TIP3    H230552   6.632   5.572   0.286
10199TIP3   OH230553   7.828   2.501   1.936
10199TIP3    H130554   7.808   2.537   1.850
10199TIP3    H230555   7.742   2.476   1.972
10200TIP3   OH230556   2.904   4.755   6.049
10200TIP3    H130557   2.906   4.821   6.118
10200TIP3    H230558   2.820   4.769   6.005
10201TIP3   OH230559   4.405   6.098   2.811
10201TIP3    H130560   4.423   6.184   2.772
10201TIP3    H230561   4.315   6.106   2.845
10202TIP3   OH230562   7.343   7.735   5.768
10202TIP3    H130563   7.259   7.769   5.798
10202TIP3    H230564   7.367   7.670   5.833
10203TIP3   OH230565   0.241   0.295   5.760
10203TIP3    H130566   0.304   0.319   5.692
10203TIP3    H230567   0.267   0.207   5.786
10204TIP3   OH230568   5.681   1.711   4.351
10204TIP3    H130569   5.666   1.700   4.257
10204TIP3    H230570   5.764   1.758   4.356
10205TIP3   OH230571   2.796   2.663   2.502
10205TIP3    H130572   2.793   2.755   2.526
10205TIP3    H230573   2.729   2.621   2.556
10206TIP3   OH230574   5.493   0.292   2.455
10206TIP3    H130575   5.488   0.258   2.365
10206TIP3    H230576   5.410   0.338   2.467
10207TIP3   OH230577   4.717   2.869   4.782
10207TIP3    H130578   4.715   2.785   4.827
10207TIP3    H230579   4.763   2.852   4.700
10208TIP3   OH230580   3.718   2.279   0.275
10208TIP3    H130581   3.638   2.299   0.323
10208TIP3    H230582   3.690   2.223   0.203
10209TIP3   OH230583   5.073   2.190   2.619
10209TIP3    H130584   4.983   2.202   2.587
10209TIP3    H230585   5.125   2.174   2.540
10210TIP3   OH230586   0.582   1.805   4.496
10210TIP3    H130587   0.627   1.721   4.490
10210TIP3    H230588   0.580   1.824   4.590
10211TIP3   OH230589   7.697   5.165   3.978
10211TIP3    H130590   7.785   5.192   3.954
10211TIP3    H230591   7.671   5.226   4.047
10212TIP3   OH230592   1.499   2.123   4.477
10212TIP3    H130593   1.492   2.110   4.572
10212TIP3    H230594   1.530   2.039   4.444
10213TIP3   OH230595   2.810   7.737   0.788
10213TIP3    H130596   2.795   7.786   0.708
10213TIP3    H230597   2.834   7.649   0.759
10214TIP3   OH230598   2.368   5.109   6.460
10214TIP3    H130599   2.352   5.063   6.377
10214TIP3    H230600   2.348   5.044   6.528
10215TIP3   OH230601   0.407   6.405   2.242
10215TIP3    H130602   0.462   6.483   2.251
10215TIP3    H230603   0.368   6.414   2.155
10216TIP3   OH230604   2.447   7.450   1.943
10216TIP3    H130605   2.502   7.481   2.015
10216TIP3    H230606   2.359   7.445   1.981
10217TIP3   OH230607   2.282   4.366   6.614
10217TIP3    H130608   2.201   4.340   6.570
10217TIP3    H230609   2.348   4.363   6.545
10218TIP3   OH230610   1.365   7.426   0.594
10218TIP3    H130611   1.324   7.357   0.646
10218TIP3    H230612   1.364   7.392   0.505
10219TIP3   OH230613   4.102   7.184   0.110
10219TIP3    H130614   4.167   7.175   0.040
10219TIP3    H230615   4.062   7.097   0.116
10220TIP3   OH230616   5.973   1.835   5.990
10220TIP3    H130617   5.885   1.848   6.028
10220TIP3    H230618   5.956   1.820   5.897
10221TIP3   OH230619   7.217   4.901   2.716
10221TIP3    H130620   7.205   4.892   2.621
10221TIP3    H230621   7.188   4.990   2.736
10222TIP3   OH230622   1.004   0.557   3.957
10222TIP3    H130623   0.920   0.521   3.928
10222TIP3    H230624   1.022   0.514   4.041
10223TIP3   OH230625   1.820   1.441   2.080
10223TIP3    H130626   1.892   1.388   2.113
10223TIP3    H230627   1.776   1.384   2.016
10224TIP3   OH230628   5.859   4.110   0.237
10224TIP3    H130629   5.927   4.130   0.301
10224TIP3    H230630   5.902   4.053   0.174
10225TIP3   OH230631   7.841   5.194   6.116
10225TIP3    H130632   7.889   5.275   6.132
10225TIP3    H230633   7.896   5.126   6.156
10226TIP3   OH230634   2.920   2.986   4.639
10226TIP3    H130635   2.907   3.049   4.710
10226TIP3    H230636   2.841   2.932   4.639
10227TIP3   OH230637   1.301   6.153   4.563
10227TIP3    H130638   1.363   6.085   4.588
10227TIP3    H230639   1.294   6.145   4.468
10228TIP3   OH230640   3.652   1.392   5.499
10228TIP3    H130641   3.599   1.334   5.445
10228TIP3    H230642   3.602   1.401   5.580
10229TIP3   OH230643   7.497   0.760   4.730
10229TIP3    H130644   7.562   0.730   4.667
10229TIP3    H230645   7.436   0.687   4.739
10230TIP3   OH230646   2.511   4.813   6.615
10230TIP3    H130647   2.518   4.828   6.521
10230TIP3    H230648   2.417   4.822   6.634
10231TIP3   OH230649   7.177   5.388   1.156
10231TIP3    H130650   7.095   5.339   1.167
10231TIP3    H230651   7.153   5.479   1.176
10232TIP3   OH230652   6.498   7.171   5.573
10232TIP3    H130653   6.569   7.202   5.516
10232TIP3    H230654   6.542   7.115   5.637
10233TIP3   OH230655   8.308   7.060   4.519
10233TIP3    H130656   8.290   7.153   4.503
10233TIP3    H230657   8.235   7.014   4.478
10234TIP3   OH230658   0.991   4.375   3.951
10234TIP3    H130659   1.069   4.321   3.959
10234TIP3    H230660   0.932   4.325   3.895
10235TIP3   OH230661   4.897   2.508   4.284
10235TIP3    H130662   4.890   2.583   4.225
10235TIP3    H230663   4.905   2.433   4.226
10236TIP3   OH230664   0.905   7.775   1.810
10236TIP3    H130665   0.971   7.843   1.822
10236TIP3    H230666   0.904   7.728   1.893
10237TIP3   OH230667   2.603   5.047   0.423
10237TIP3    H130668   2.560   5.092   0.349
10237TIP3    H230669   2.580   5.100   0.499
10238TIP3   OH230670   2.994   2.225   5.826
10238TIP3    H130671   2.936   2.212   5.901
10238TIP3    H230672   2.936   2.230   5.750
10239TIP3   OH230673   7.063   1.989   0.846
10239TIP3    H130674   6.974   2.008   0.817
10239TIP3    H230675   7.083   2.058   0.910
10240TIP3   OH230676   6.556   5.539   6.685
10240TIP3    H130677   6.634   5.575   6.643
10240TIP3    H230678   6.524   5.610   6.741
10241TIP3   OH230679   5.636   3.204   6.194
10241TIP3    H130680   5.622   3.259   6.272
10241TIP3    H230681   5.728   3.180   6.198
10242TIP3   OH230682   6.098   4.614   0.769
10242TIP3    H130683   6.101   4.666   0.849
10242TIP3    H230684   6.015   4.567   0.774
10243TIP3   OH230685   7.404   0.411   0.643
10243TIP3    H130686   7.377   0.403   0.734
10243TIP3    H230687   7.346   0.351   0.595
10244TIP3   OH230688   0.252   4.100   5.728
10244TIP3    H130689   0.171   4.073   5.770
10244TIP3    H230690   0.230   4.182   5.684
10245TIP3   OH230691   3.003   6.594   2.162
10245TIP3    H130692   2.920   6.556   2.191
10245TIP3    H230693   3.005   6.577   2.068
10246TIP3   OH230694   3.831   6.634   1.978
10246TIP3    H130695   3.773   6.694   1.930
10246TIP3    H230696   3.889   6.598   1.910
10247TIP3   OH230697   6.632   1.340   1.099
10247TIP3    H130698   6.655   1.255   1.061
10247TIP3    H230699   6.651   1.330   1.193
10248TIP3   OH230700   7.156   6.058   2.292
10248TIP3    H130701   7.063   6.075   2.282
10248TIP3    H230702   7.191   6.066   2.203
10249TIP3   OH230703   6.663   1.656   1.408
10249TIP3    H130704   6.747   1.655   1.455
10249TIP3    H230705   6.667   1.580   1.350
10250TIP3   OH230706   5.682   1.044   2.200
10250TIP3    H130707   5.718   1.053   2.288
10250TIP3    H230708   5.702   1.127   2.158
10251TIP3   OH230709   0.524   5.180   1.856
10251TIP3    H130710   0.472   5.152   1.931
10251TIP3    H230711   0.557   5.267   1.881
10252TIP3   OH230712   3.323   7.333   0.998
10252TIP3    H130713   3.359   7.420   0.983
10252TIP3    H230714   3.378   7.296   1.067
10253TIP3   OH230715   2.330   6.796   6.253
10253TIP3    H130716   2.364   6.750   6.329
10253TIP3    H230717   2.241   6.820   6.277
10254TIP3   OH230718   4.881   7.191   0.613
10254TIP3    H130719   4.925   7.131   0.673
10254TIP3    H230720   4.810   7.139   0.575
10255TIP3   OH230721   3.994   5.982   4.041
10255TIP3    H130722   3.924   5.930   4.079
10255TIP3    H230723   4.063   5.982   4.107
10256TIP3   OH230724   1.635   6.400   6.489
10256TIP3    H130725   1.543   6.398   6.516
10256TIP3    H230726   1.649   6.315   6.447
10257TIP3   OH230727   8.230   4.178   4.226
10257TIP3    H130728   8.231   4.266   4.188
10257TIP3    H230729   8.145   4.172   4.269
10258TIP3   OH230730   6.633   3.815   4.296
10258TIP3    H130731   6.671   3.817   4.383
10258TIP3    H230732   6.614   3.722   4.280
10259TIP3   OH230733   7.466   5.926   3.306
10259TIP3    H130734   7.454   5.908   3.399
10259TIP3    H230735   7.462   6.022   3.299
10260TIP3   OH230736   3.465   0.027   6.570
10260TIP3    H130737   3.476  -0.040   6.638
10260TIP3    H230738   3.517   0.101   6.600
10261TIP3   OH230739   7.356   0.517   2.241
10261TIP3    H130740   7.299   0.556   2.176
10261TIP3    H230741   7.435   0.493   2.193
10262TIP3   OH230742   1.931   7.382   2.127
10262TIP3    H130743   1.924   7.478   2.127
10262TIP3    H230744   1.880   7.354   2.203
10263TIP3   OH230745   0.582   5.138   5.453
10263TIP3    H130746   0.531   5.057   5.460
10263TIP3    H230747   0.657   5.114   5.399
10264TIP3   OH230748   1.604   1.762   3.458
10264TIP3    H130749   1.624   1.689   3.517
10264TIP3    H230750   1.627   1.729   3.371
10265TIP3   OH230751   5.804   2.520   3.296
10265TIP3    H130752   5.742   2.491   3.363
10265TIP3    H230753   5.886   2.534   3.343
10266TIP3   OH230754   4.704   5.850   4.163
10266TIP3    H130755   4.758   5.783   4.120
10266TIP3    H230756   4.678   5.909   4.093
10267TIP3   OH230757   2.385   1.044   2.974
10267TIP3    H130758   2.411   1.106   3.042
10267TIP3    H230759   2.294   1.023   2.994
10268TIP3   OH230760   4.418   0.199   1.459
10268TIP3    H130761   4.462   0.139   1.519
10268TIP3    H230762   4.338   0.153   1.434
10269TIP3   OH230763   4.822   6.412   0.960
10269TIP3    H130764   4.726   6.407   0.956
10269TIP3    H230765   4.852   6.378   0.876
10270TIP3   OH230766   6.634   6.109   3.706
10270TIP3    H130767   6.587   6.062   3.637
10270TIP3    H230768   6.686   6.041   3.750
10271TIP3   OH230769   6.089   3.174   5.495
10271TIP3    H130770   6.058   3.083   5.493
10271TIP3    H230771   6.135   3.182   5.578
10272TIP3   OH230772   5.567   4.741   0.429
10272TIP3    H130773   5.484   4.715   0.469
10272TIP3    H230774   5.625   4.667   0.443
10273TIP3   OH230775   7.274   6.093   2.046
10273TIP3    H130776   7.356   6.051   2.024
10273TIP3    H230777   7.206   6.038   2.007
10274TIP3   OH230778   7.180   2.257   5.378
10274TIP3    H130779   7.114   2.282   5.313
10274TIP3    H230780   7.235   2.192   5.333
10275TIP3   OH230781   4.620   0.327   3.438
10275TIP3    H130782   4.547   0.268   3.459
10275TIP3    H230783   4.698   0.271   3.441
10276TIP3   OH230784   2.853   6.256   0.787
10276TIP3    H130785   2.913   6.187   0.757
10276TIP3    H230786   2.793   6.270   0.715
10277TIP3   OH230787   1.024   0.938   1.741
10277TIP3    H130788   0.987   0.919   1.827
10277TIP3    H230789   0.955   0.988   1.696
10278TIP3   OH230790   4.299   1.906   1.035
10278TIP3    H130791   4.356   1.945   0.969
10278TIP3    H230792   4.321   1.951   1.116
10279TIP3   OH230793   3.955   6.450   6.088
10279TIP3    H130794   3.924   6.396   6.160
10279TIP3    H230795   3.972   6.387   6.017
10280TIP3   OH230796   3.081   0.092   5.754
10280TIP3    H130797   3.024   0.160   5.789
10280TIP3    H230798   3.026   0.045   5.691
10281TIP3   OH230799   0.400   2.268   2.366
10281TIP3    H130800   0.375   2.184   2.327
10281TIP3    H230801   0.492   2.279   2.341
10282TIP3   OH230802   8.133   2.098   5.043
10282TIP3    H130803   8.063   2.033   5.034
10282TIP3    H230804   8.089   2.183   5.038
10283TIP3   OH230805   5.800   5.367   2.712
10283TIP3    H130806   5.799   5.295   2.775
10283TIP3    H230807   5.774   5.444   2.763
10284TIP3   OH230808   0.078   1.343   5.658
10284TIP3    H130809   0.066   1.422   5.710
10284TIP3    H230810   0.098   1.275   5.722
10285TIP3   OH230811   1.649   4.642   2.237
10285TIP3    H130812   1.709   4.645   2.163
10285TIP3    H230813   1.580   4.705   2.215
10286TIP3   OH230814   4.020   3.165   5.311
10286TIP3    H130815   3.963   3.124   5.246
10286TIP3    H230816   3.967   3.168   5.391
10287TIP3   OH230817   6.063   5.114   4.118
10287TIP3    H130818   6.042   5.190   4.065
10287TIP3    H230819   6.147   5.083   4.083
10288TIP3   OH230820   7.138   4.870   3.643
10288TIP3    H130821   7.230   4.869   3.620
10288TIP3    H230822   7.135   4.830   3.730
10289TIP3   OH230823   2.141   0.067   1.585
10289TIP3    H130824   2.233   0.055   1.559
10289TIP3    H230825   2.109   0.136   1.528
10290TIP3   OH230826   6.409   5.213   5.077
10290TIP3    H130827   6.477   5.186   5.139
10290TIP3    H230828   6.457   5.237   4.998
10291TIP3   OH230829   3.174   3.585   4.546
10291TIP3    H130830   3.261   3.556   4.574
10291TIP3    H230831   3.139   3.510   4.497
10292TIP3   OH230832   8.178   3.187   5.007
10292TIP3    H130833   8.244   3.117   4.997
10292TIP3    H230834   8.193   3.245   4.932
10293TIP3   OH230835   0.750   4.733   0.997
10293TIP3    H130836   0.721   4.669   0.931
10293TIP3    H230837   0.845   4.734   0.989
10294TIP3   OH230838   7.646   6.717   5.083
10294TIP3    H130839   7.678   6.710   4.993
10294TIP3    H230840   7.680   6.801   5.113
10295TIP3   OH230841   0.528   1.149   4.329
10295TIP3    H130842   0.595   1.124   4.391
10295TIP3    H230843   0.447   1.150   4.380
10296TIP3   OH230844   5.972   0.135   6.597
10296TIP3    H130845   6.016   0.162   6.516
10296TIP3    H230846   5.888   0.180   6.595
10297TIP3   OH230847   3.592   7.187   1.662
10297TIP3    H130848   3.648   7.111   1.645
10297TIP3    H230849   3.645   7.243   1.720
10298TIP3   OH230850   0.245   3.664   3.093
10298TIP3    H130851   0.216   3.755   3.098
10298TIP3    H230852   0.219   3.636   3.005
10299TIP3   OH230853   3.532   4.355   1.971
10299TIP3    H130854   3.551   4.433   2.024
10299TIP3    H230855   3.560   4.282   2.025
10300TIP3   OH230856   1.363   2.276   4.290
10300TIP3    H130857   1.417   2.212   4.338
10300TIP3    H230858   1.277   2.268   4.330
10301TIP3   OH230859   0.544   3.844   4.926
10301TIP3    H130860   0.626   3.804   4.954
10301TIP3    H230861   0.550   3.848   4.830
10302TIP3   OH230862   4.922   6.572   4.434
10302TIP3    H130863   4.908   6.563   4.340
10302TIP3    H230864   4.838   6.548   4.474
10303TIP3   OH230865   5.459   0.117   1.675
10303TIP3    H130866   5.543   0.162   1.671
10303TIP3    H230867   5.439   0.095   1.583
10304TIP3   OH230868   1.070   6.459   2.995
10304TIP3    H130869   1.100   6.483   2.907
10304TIP3    H230870   0.979   6.491   2.998
10305TIP3   OH230871   3.277   2.757   5.434
10305TIP3    H130872   3.231   2.672   5.432
10305TIP3    H230873   3.343   2.750   5.365
10306TIP3   OH230874   2.193   6.728   2.594
10306TIP3    H130875   2.114   6.760   2.638
10306TIP3    H230876   2.265   6.777   2.636
10307TIP3   OH230877   3.298   2.533   2.454
10307TIP3    H130878   3.214   2.532   2.501
10307TIP3    H230879   3.360   2.572   2.516
10308TIP3   OH230880   5.460   2.519   4.599
10308TIP3    H130881   5.426   2.578   4.532
10308TIP3    H230882   5.401   2.532   4.674
10309TIP3   OH230883   4.218   7.700   5.551
10309TIP3    H130884   4.250   7.647   5.478
10309TIP3    H230885   4.145   7.650   5.587
10310TIP3   OH230886   1.688   3.773   6.685
10310TIP3    H130887   1.618   3.714   6.713
10310TIP3    H230888   1.659   3.860   6.714
10311TIP3   OH230889   0.609   7.545   4.738
10311TIP3    H130890   0.674   7.596   4.787
10311TIP3    H230891   0.527   7.591   4.753
10312TIP3   OH230892   0.641   2.597   0.342
10312TIP3    H130893   0.648   2.581   0.248
10312TIP3    H230894   0.726   2.571   0.377
10313TIP3   OH230895   0.971   6.074   5.468
10313TIP3    H130896   1.015   6.038   5.392
10313TIP3    H230897   1.024   6.047   5.543
10314TIP3   OH230898   2.063   7.080   0.084
10314TIP3    H130899   2.129   7.101   0.018
10314TIP3    H230900   2.062   7.157   0.141
10315TIP3   OH230901   4.515   2.302   4.831
10315TIP3    H130902   4.502   2.287   4.924
10315TIP3    H230903   4.588   2.243   4.807
10316TIP3   OH230904   4.639   4.386   5.850
10316TIP3    H130905   4.690   4.323   5.799
10316TIP3    H230906   4.672   4.472   5.823
10317TIP3   OH230907   7.764   5.550   0.131
10317TIP3    H130908   7.698   5.500   0.180
10317TIP3    H230909   7.806   5.485   0.075
10318TIP3   OH230910   3.805   5.879   1.235
10318TIP3    H130911   3.871   5.925   1.184
10318TIP3    H230912   3.787   5.937   1.309
10319TIP3   OH230913   1.806   6.101   6.039
10319TIP3    H130914   1.774   6.184   6.075
10319TIP3    H230915   1.734   6.040   6.055
10320TIP3   OH230916   4.819   5.687   1.588
10320TIP3    H130917   4.802   5.621   1.655
10320TIP3    H230918   4.794   5.770   1.630
10321TIP3   OH230919   7.531   6.536   0.808
10321TIP3    H130920   7.541   6.453   0.761
10321TIP3    H230921   7.552   6.515   0.899
10322TIP3   OH230922   1.409   1.047   5.681
10322TIP3    H130923   1.491   1.025   5.726
10322TIP3    H230924   1.421   1.136   5.649
10323TIP3   OH230925   3.049   4.471   3.388
10323TIP3    H130926   3.090   4.508   3.466
10323TIP3    H230927   2.974   4.527   3.371
10324TIP3   OH230928   6.523   3.582   3.274
10324TIP3    H130929   6.568   3.556   3.355
10324TIP3    H230930   6.566   3.532   3.205
10325TIP3   OH230931   0.834   7.839   5.237
10325TIP3    H130932   0.774   7.887   5.179
10325TIP3    H230933   0.848   7.756   5.192
10326TIP3   OH230934   4.288   5.562   4.986
10326TIP3    H130935   4.228   5.623   4.943
10326TIP3    H230936   4.254   5.554   5.075
10327TIP3   OH230937   3.195   7.044   2.026
10327TIP3    H130938   3.109   7.086   2.023
10327TIP3    H230939   3.242   7.080   1.951
10328TIP3   OH230940   6.816   1.500   4.835
10328TIP3    H130941   6.908   1.515   4.813
10328TIP3    H230942   6.804   1.542   4.920
10329TIP3   OH230943   5.690   1.951   0.408
10329TIP3    H130944   5.661   1.905   0.487
10329TIP3    H230945   5.779   1.919   0.393
10330TIP3   OH230946   0.753   7.055   4.910
10330TIP3    H130947   0.844   7.036   4.933
10330TIP3    H230948   0.708   7.059   4.994
10331TIP3   OH230949   3.410   0.633   0.313
10331TIP3    H130950   3.378   0.706   0.260
10331TIP3    H230951   3.411   0.559   0.253
10332TIP3   OH230952   4.336   0.748   4.483
10332TIP3    H130953   4.252   0.793   4.476
10332TIP3    H230954   4.392   0.793   4.419
10333TIP3   OH230955   2.910   6.398   2.413
10333TIP3    H130956   2.967   6.460   2.458
10333TIP3    H230957   2.851   6.366   2.482
10334TIP3   OH230958   4.795   3.961   2.716
10334TIP3    H130959   4.752   3.878   2.694
10334TIP3    H230960   4.724   4.015   2.752
10335TIP3   OH230961   0.861   5.469   4.475
10335TIP3    H130962   0.816   5.385   4.471
10335TIP3    H230963   0.822   5.520   4.403
10336TIP3   OH230964   3.466   0.739   3.379
10336TIP3    H130965   3.405   0.805   3.346
10336TIP3    H230966   3.438   0.657   3.337
10337TIP3   OH230967   2.271   5.615   5.875
10337TIP3    H130968   2.318   5.598   5.794
10337TIP3    H230969   2.182   5.638   5.847
10338TIP3   OH230970   7.934   0.236   6.677
10338TIP3    H130971   7.916   0.328   6.659
10338TIP3    H230972   8.029   0.229   6.675
10339TIP3   OH230973   0.194   3.499   1.681
10339TIP3    H130974   0.153   3.502   1.768
10339TIP3    H230975   0.224   3.408   1.672
10340TIP3   OH230976   5.759   6.694   2.696
10340TIP3    H130977   5.741   6.657   2.782
10340TIP3    H230978   5.738   6.623   2.635
10341TIP3   OH230979   7.924   1.405   2.117
10341TIP3    H130980   7.884   1.481   2.160
10341TIP3    H230981   7.864   1.382   2.047
10342TIP3   OH230982   7.672   3.498   5.361
10342TIP3    H130983   7.637   3.562   5.424
10342TIP3    H230984   7.730   3.550   5.305
10343TIP3   OH230985   3.553   4.550   3.523
10343TIP3    H130986   3.537   4.624   3.581
10343TIP3    H230987   3.486   4.486   3.546
10344TIP3   OH230988   4.589   2.673   5.936
10344TIP3    H130989   4.552   2.738   5.876
10344TIP3    H230990   4.615   2.600   5.879
10345TIP3   OH230991   5.623   2.390   4.767
10345TIP3    H130992   5.696   2.365   4.711
10345TIP3    H230993   5.569   2.448   4.712
10346TIP3   OH230994   1.047   3.515   0.948
10346TIP3    H130995   1.065   3.551   1.035
10346TIP3    H230996   1.077   3.425   0.953
10347TIP3   OH230997   6.882   4.211   3.061
10347TIP3    H130998   6.881   4.127   3.107
10347TIP3    H230999   6.811   4.261   3.101
10348TIP3   OH231000   2.811   5.207   6.636
10348TIP3    H131001   2.785   5.124   6.676
10348TIP3    H231002   2.907   5.206   6.638
10349TIP3   OH231003   2.863   5.004   6.311
10349TIP3    H131004   2.956   5.021   6.328
10349TIP3    H231005   2.817   5.066   6.368
10350TIP3   OH231006   2.179   0.582   6.629
10350TIP3    H131007   2.223   0.501   6.656
10350TIP3    H231008   2.231   0.652   6.668
10351TIP3   OH231009   4.991   1.294   0.950
10351TIP3    H131010   5.069   1.332   0.911
10351TIP3    H231011   4.986   1.334   1.038
10352TIP3   OH231012   5.552   6.269   2.030
10352TIP3    H131013   5.477   6.321   2.001
10352TIP3    H231014   5.614   6.334   2.064
10353TIP3   OH231015   5.754   2.894   6.167
10353TIP3    H131016   5.671   2.849   6.181
10353TIP3    H231017   5.804   2.880   6.247
10354TIP3   OH231018   4.056   2.567   1.542
10354TIP3    H131019   4.106   2.515   1.605
10354TIP3    H231020   3.986   2.509   1.513
10355TIP3   OH231021   4.279   6.708   2.876
10355TIP3    H131022   4.265   6.667   2.961
10355TIP3    H231023   4.232   6.651   2.814
10356TIP3   OH231024   0.647   0.960   2.430
10356TIP3    H131025   0.575   1.023   2.420
10356TIP3    H231026   0.618   0.884   2.380
10357TIP3   OH231027   8.096   2.091   3.505
10357TIP3    H131028   8.046   2.018   3.540
10357TIP3    H231029   8.185   2.077   3.537
10358TIP3   OH231030   3.043   1.945   3.219
10358TIP3    H131031   2.963   1.897   3.240
10358TIP3    H231032   3.113   1.896   3.263
10359TIP3   OH231033   7.156   2.869   4.590
10359TIP3    H131034   7.101   2.879   4.668
10359TIP3    H231035   7.176   2.776   4.585
10360TIP3   OH231036   5.881   7.818   0.536
10360TIP3    H131037   5.923   7.760   0.599
10360TIP3    H231038   5.947   7.885   0.516
10361TIP3   OH231039   5.287   4.806   1.221
10361TIP3    H131040   5.230   4.873   1.182
10361TIP3    H231041   5.247   4.787   1.306
10362TIP3   OH231042   2.148   5.622   2.605
10362TIP3    H131043   2.234   5.582   2.616
10362TIP3    H231044   2.088   5.548   2.595
10363TIP3   OH231045   1.555   1.503   6.723
10363TIP3    H131046   1.535   1.596   6.713
10363TIP3    H231047   1.488   1.470   6.784
10364TIP3   OH231048   6.155   3.649   2.592
10364TIP3    H131049   6.134   3.571   2.642
10364TIP3    H231050   6.240   3.630   2.552
10365TIP3   OH231051   2.257   6.268   3.797
10365TIP3    H131052   2.208   6.192   3.766
10365TIP3    H231053   2.349   6.245   3.784
10366TIP3   OH231054   4.498   6.856   2.381
10366TIP3    H131055   4.477   6.840   2.473
10366TIP3    H231056   4.572   6.917   2.384
10367TIP3   OH231057   4.230   6.307   5.027
10367TIP3    H131058   4.256   6.357   4.950
10367TIP3    H231059   4.284   6.342   5.098
10368TIP3   OH231060   3.851   2.696   5.836
10368TIP3    H131061   3.847   2.784   5.872
10368TIP3    H231062   3.775   2.690   5.778
10369TIP3   OH231063   2.634   7.596   4.092
10369TIP3    H131064   2.637   7.545   4.173
10369TIP3    H231065   2.726   7.615   4.073
10370TIP3   OH231066   1.163   6.567   1.207
10370TIP3    H131067   1.212   6.486   1.214
10370TIP3    H231068   1.084   6.552   1.260
10371TIP3   OH231069   3.201   1.978   0.047
10371TIP3    H131070   3.197   2.002  -0.045
10371TIP3    H231071   3.294   1.967   0.065
10372TIP3   OH231072   7.965   5.352   5.107
10372TIP3    H131073   7.954   5.295   5.031
10372TIP3    H231074   7.986   5.437   5.070
10373TIP3   OH231075   2.863   3.202   2.613
10373TIP3    H131076   2.912   3.261   2.671
10373TIP3    H231077   2.804   3.260   2.565
10374TIP3   OH231078   2.954   0.891   0.611
10374TIP3    H131079   2.918   0.805   0.633
10374TIP3    H231080   3.036   0.895   0.660
10375TIP3   OH231081   3.909   2.587   3.775
10375TIP3    H131082   3.972   2.516   3.785
10375TIP3    H231083   3.929   2.647   3.847
10376TIP3   OH231084   4.809   1.589   4.864
10376TIP3    H131085   4.774   1.662   4.915
10376TIP3    H231086   4.739   1.524   4.865
10377TIP3   OH231087   6.044   2.339   5.727
10377TIP3    H131088   5.987   2.324   5.651
10377TIP3    H231089   6.133   2.340   5.691
10378TIP3   OH231090   2.650   1.627   2.993
10378TIP3    H131091   2.727   1.600   2.943
10378TIP3    H231092   2.587   1.555   2.982
10379TIP3   OH231093   6.165   3.523   2.011
10379TIP3    H131094   6.234   3.505   1.947
10379TIP3    H231095   6.095   3.463   1.989
10380TIP3   OH231096   0.215   1.286   2.684
10380TIP3    H131097   0.231   1.201   2.643
10380TIP3    H231098   0.155   1.266   2.756
10381TIP3   OH231099   2.152   4.021   4.978
10381TIP3    H131100   2.219   4.008   4.911
10381TIP3    H231101   2.184   3.972   5.054
10382TIP3   OH231102   8.176   6.914   4.291
10382TIP3    H131103   8.182   6.954   4.204
10382TIP3    H231104   8.083   6.901   4.306
10383TIP3   OH231105   0.623   5.522   4.767
10383TIP3    H131106   0.702   5.469   4.758
10383TIP3    H231107   0.655   5.613   4.768
10384TIP3   OH231108   1.286   5.452   6.097
10384TIP3    H131109   1.356   5.489   6.043
10384TIP3    H231110   1.251   5.379   6.046
10385TIP3   OH231111   6.761   7.255   1.141
10385TIP3    H131112   6.708   7.237   1.219
10385TIP3    H231113   6.813   7.332   1.164
10386TIP3   OH231114   6.698   6.866   0.580
10386TIP3    H131115   6.732   6.780   0.555
10386TIP3    H231116   6.710   6.870   0.675
10387TIP3   OH231117   6.323   6.816   1.809
10387TIP3    H131118   6.271   6.736   1.798
10387TIP3    H231119   6.260   6.887   1.796
10388TIP3   OH231120   3.987   5.212   5.706
10388TIP3    H131121   4.027   5.278   5.763
10388TIP3    H231122   4.044   5.210   5.628
10389TIP3   OH231123   1.070   2.933   2.556
10389TIP3    H131124   1.160   2.958   2.534
10389TIP3    H231125   1.079   2.848   2.600
10390TIP3   OH231126   1.890   2.285   2.024
10390TIP3    H131127   1.977   2.301   1.989
10390TIP3    H231128   1.890   2.326   2.110
10391TIP3   OH231129   5.400   2.798   1.925
10391TIP3    H131130   5.432   2.818   1.838
10391TIP3    H231131   5.478   2.778   1.976
10392TIP3   OH231132   6.960   7.447   1.231
10392TIP3    H131133   6.986   7.537   1.248
10392TIP3    H231134   6.961   7.439   1.135
10393TIP3   OH231135   2.345   7.761   5.944
10393TIP3    H131136   2.287   7.700   5.989
10393TIP3    H231137   2.392   7.805   6.014
10394TIP3   OH231138   0.828   3.663   2.517
10394TIP3    H131139   0.784   3.578   2.524
10394TIP3    H231140   0.771   3.723   2.566
10395TIP3   OH231141   0.181   4.863   1.029
10395TIP3    H131142   0.256   4.824   1.074
10395TIP3    H231143   0.155   4.798   0.965
10396TIP3   OH231144   6.797   6.735   5.717
10396TIP3    H131145   6.846   6.742   5.635
10396TIP3    H231146   6.755   6.649   5.712
10397TIP3   OH231147   0.456   6.256   5.831
10397TIP3    H131148   0.550   6.266   5.843
10397TIP3    H231149   0.423   6.345   5.822
10398TIP3   OH231150   3.352   3.757   2.294
10398TIP3    H131151   3.335   3.687   2.231
10398TIP3    H231152   3.267   3.778   2.331
10399TIP3   OH231153   7.988   2.656   5.297
10399TIP3    H131154   7.954   2.645   5.208
10399TIP3    H231155   8.044   2.733   5.292
10400TIP3   OH231156   5.544   6.602   1.908
10400TIP3    H131157   5.530   6.696   1.902
10400TIP3    H231158   5.456   6.564   1.901
10401TIP3   OH231159   5.875   5.863   5.611
10401TIP3    H131160   5.928   5.797   5.565
10401TIP3    H231161   5.920   5.946   5.594
10402TIP3   OH231162   7.182   6.938   6.189
10402TIP3    H131163   7.227   6.994   6.125
10402TIP3    H231164   7.240   6.862   6.199
10403TIP3   OH231165   7.745   7.465   3.313
10403TIP3    H131166   7.774   7.510   3.233
10403TIP3    H231167   7.806   7.495   3.381
10404TIP3   OH231168   5.206   3.945   6.544
10404TIP3    H131169   5.204   4.041   6.536
10404TIP3    H231170   5.116   3.918   6.527
10405TIP3   OH231171   4.616   5.191   2.229
10405TIP3    H131172   4.607   5.286   2.229
10405TIP3    H231173   4.711   5.177   2.237
10406TIP3   OH231174   8.083   4.476   1.590
10406TIP3    H131175   8.053   4.503   1.677
10406TIP3    H231176   8.034   4.530   1.530
10407TIP3   OH231177   0.710   0.139   6.328
10407TIP3    H131178   0.683   0.221   6.288
10407TIP3    H231179   0.648   0.125   6.400
10408TIP3   OH231180   0.132   2.682   4.824
10408TIP3    H131181   0.157   2.652   4.911
10408TIP3    H231182   0.161   2.613   4.765
10409TIP3   OH231183   7.125   0.941   6.191
10409TIP3    H131184   7.049   0.907   6.144
10409TIP3    H231185   7.180   0.979   6.123
10410TIP3   OH231186   2.222  -0.019   0.908
10410TIP3    H131187   2.227  -0.044   0.816
10410TIP3    H231188   2.272   0.062   0.914
10411TIP3   OH231189   4.314   5.780   5.556
10411TIP3    H131190   4.259   5.817   5.625
10411TIP3    H231191   4.273   5.695   5.537
10412TIP3   OH231192   4.131   7.414   4.133
10412TIP3    H131193   4.166   7.462   4.209
10412TIP3    H231194   4.049   7.376   4.165
10413TIP3   OH231195   3.190   1.075   4.833
10413TIP3    H131196   3.164   1.050   4.922
10413TIP3    H231197   3.254   1.144   4.845
10414TIP3   OH231198   3.534   3.174   6.482
10414TIP3    H131199   3.587   3.254   6.475
10414TIP3    H231200   3.594   3.104   6.459
10415TIP3   OH231201   1.457   3.004   4.177
10415TIP3    H131202   1.492   3.022   4.264
10415TIP3    H231203   1.493   2.919   4.153
10416TIP3   OH231204   6.600   5.787   5.900
10416TIP3    H131205   6.538   5.805   5.971
10416TIP3    H231206   6.661   5.723   5.936
10417TIP3   OH231207   0.371   4.932   1.490
10417TIP3    H131208   0.295   4.961   1.440
10417TIP3    H231209   0.421   5.012   1.507
10418TIP3   OH231210   2.973   5.621   4.334
10418TIP3    H131211   3.022   5.664   4.404
10418TIP3    H231212   3.040   5.600   4.268
10419TIP3   OH231213   3.968   3.602   0.673
10419TIP3    H131214   4.036   3.534   0.674
10419TIP3    H231215   3.893   3.560   0.631
10420TIP3   OH231216   6.088   3.030   6.218
10420TIP3    H131217   6.176   3.013   6.184
10420TIP3    H231218   6.047   2.944   6.224
10421TIP3   OH231219   6.157   3.519   0.583
10421TIP3    H131220   6.193   3.606   0.601
10421TIP3    H231221   6.154   3.514   0.488
10422TIP3   OH231222   7.280   4.572   3.440
10422TIP3    H131223   7.375   4.572   3.435
10422TIP3    H231224   7.251   4.538   3.355
10423TIP3   OH231225   2.929   0.486   6.539
10423TIP3    H131226   2.853   0.446   6.498
10423TIP3    H231227   2.900   0.509   6.628
10424TIP3   OH231228   3.711   1.215   0.513
10424TIP3    H131229   3.710   1.177   0.425
10424TIP3    H231230   3.802   1.241   0.527
10425TIP3   OH231231   0.487   6.376   4.055
10425TIP3    H131232   0.537   6.355   4.134
10425TIP3    H231233   0.419   6.436   4.086
10426TIP3   OH231234   4.274   0.896   2.596
10426TIP3    H131235   4.323   0.870   2.674
10426TIP3    H231236   4.183   0.879   2.618
10427TIP3   OH231237   1.262   5.506   2.200
10427TIP3    H131238   1.282   5.423   2.155
10427TIP3    H231239   1.206   5.480   2.273
10428TIP3   OH231240   7.574   6.225   0.953
10428TIP3    H131241   7.495   6.185   0.990
10428TIP3    H231242   7.567   6.210   0.859
10429TIP3   OH231243   5.819   3.043   3.970
10429TIP3    H131244   5.727   3.025   3.948
10429TIP3    H231245   5.820   3.047   4.066
10430TIP3   OH231246   0.932   1.307   3.918
10430TIP3    H131247   0.839   1.319   3.899
10430TIP3    H231248   0.944   1.212   3.916
10431TIP3   OH231249   1.581   1.874   0.637
10431TIP3    H131250   1.564   1.785   0.604
10431TIP3    H231251   1.670   1.894   0.607
10432TIP3   OH231252   3.645   3.225   2.883
10432TIP3    H131253   3.594   3.146   2.899
10432TIP3    H231254   3.690   3.242   2.966
10433TIP3   OH231255   6.645   1.817   3.670
10433TIP3    H131256   6.583   1.890   3.665
10433TIP3    H231257   6.660   1.805   3.764
10434TIP3   OH231258   2.213   3.018   4.749
10434TIP3    H131259   2.158   2.962   4.694
10434TIP3    H231260   2.266   2.957   4.801
10435TIP3   OH231261   5.606   1.892   2.069
10435TIP3    H131262   5.652   1.860   1.991
10435TIP3    H231263   5.528   1.936   2.035
10436TIP3   OH231264   3.930   2.376   5.331
10436TIP3    H131265   3.891   2.290   5.347
10436TIP3    H231266   3.859   2.428   5.292
10437TIP3   OH231267   1.562   0.770   0.992
10437TIP3    H131268   1.532   0.831   0.925
10437TIP3    H231269   1.580   0.825   1.068
10438TIP3   OH231270   5.912   5.722   0.950
10438TIP3    H131271   5.946   5.706   0.862
10438TIP3    H231272   5.818   5.706   0.942
10439TIP3   OH231273   7.459   3.146   3.786
10439TIP3    H131274   7.547   3.135   3.822
10439TIP3    H231275   7.470   3.130   3.692
10440TIP3   OH231276   0.166   3.422   1.947
10440TIP3    H131277   0.096   3.415   2.012
10440TIP3    H231278   0.184   3.332   1.921
10441TIP3   OH231279   4.819   7.330   6.575
10441TIP3    H131280   4.909   7.301   6.564
10441TIP3    H231281   4.800   7.380   6.495
10442TIP3   OH231282   2.857   0.177   1.633
10442TIP3    H131283   2.831   0.114   1.700
10442TIP3    H231284   2.922   0.131   1.580
10443TIP3   OH231285   2.603   4.657   0.446
10443TIP3    H131286   2.688   4.682   0.409
10443TIP3    H231287   2.622   4.635   0.537
10444TIP3   OH231288   2.096   3.611   5.522
10444TIP3    H131289   2.175   3.612   5.576
10444TIP3    H231290   2.129   3.599   5.433
10445TIP3   OH231291   2.158   2.884   6.090
10445TIP3    H131292   2.129   2.814   6.031
10445TIP3    H231293   2.115   2.863   6.174
10446TIP3   OH231294   6.351   1.746   2.827
10446TIP3    H131295   6.430   1.723   2.878
10446TIP3    H231296   6.356   1.689   2.750
10447TIP3   OH231297   1.566   1.103   2.638
10447TIP3    H131298   1.589   1.012   2.652
10447TIP3    H231299   1.482   1.114   2.684
10448TIP3   OH231300   6.641   2.656   1.273
10448TIP3    H131301   6.562   2.705   1.248
10448TIP3    H231302   6.677   2.624   1.191
10449TIP3   OH231303   8.038   1.641   4.335
10449TIP3    H131304   8.067   1.550   4.328
10449TIP3    H231305   8.052   1.664   4.427
10450TIP3   OH231306   5.213   2.400   3.792
10450TIP3    H131307   5.153   2.394   3.866
10450TIP3    H231308   5.260   2.482   3.806
10451TIP3   OH231309   5.100   6.347   2.189
10451TIP3    H131310   5.104   6.349   2.285
10451TIP3    H231311   5.050   6.425   2.165
10452TIP3   OH231312   3.896   2.477   2.431
10452TIP3    H131313   3.804   2.503   2.429
10452TIP3    H231314   3.923   2.475   2.339
10453TIP3   OH231315   7.391   6.937   1.841
10453TIP3    H131316   7.449   6.960   1.913
10453TIP3    H231317   7.315   6.994   1.851
10454TIP3   OH231318   1.806   3.107   5.140
10454TIP3    H131319   1.717   3.127   5.170
10454TIP3    H231320   1.855   3.087   5.220
10455TIP3   OH231321   0.817   2.172   6.171
10455TIP3    H131322   0.899   2.185   6.218
10455TIP3    H231323   0.808   2.251   6.117
10456TIP3   OH231324   7.917   4.576   5.667
10456TIP3    H131325   7.976   4.651   5.680
10456TIP3    H231326   7.850   4.609   5.608
10457TIP3   OH231327   2.732   3.605   5.352
10457TIP3    H131328   2.734   3.617   5.257
10457TIP3    H231329   2.823   3.611   5.379
10458TIP3   OH231330   2.983   3.669   5.035
10458TIP3    H131331   2.998   3.600   4.970
10458TIP3    H231332   3.057   3.729   5.024
10459TIP3   OH231333   3.073   2.485   6.031
10459TIP3    H131334   2.987   2.442   6.033
10459TIP3    H231335   3.134   2.417   6.003
10460TIP3   OH231336   0.662   1.286   4.721
10460TIP3    H131337   0.740   1.266   4.670
10460TIP3    H231338   0.692   1.283   4.812
10461TIP3   OH231339   8.163   3.317   3.950
10461TIP3    H131340   8.234   3.377   3.929
10461TIP3    H231341   8.206   3.234   3.968
10462TIP3   OH231342   3.261   6.578   2.372
10462TIP3    H131343   3.291   6.488   2.385
10462TIP3    H231344   3.216   6.576   2.288
10463TIP3   OH231345   8.272   0.542   5.309
10463TIP3    H131346   8.262   0.478   5.239
10463TIP3    H231347   8.287   0.489   5.387
10464TIP3   OH231348   1.774   0.202   5.798
10464TIP3    H131349   1.806   0.209   5.888
10464TIP3    H231350   1.743   0.112   5.790
10465TIP3   OH231351   3.666   2.564   2.082
10465TIP3    H131352   3.727   2.585   2.011
10465TIP3    H231353   3.580   2.585   2.048
10466TIP3   OH231354   4.955   2.390   3.196
10466TIP3    H131355   4.913   2.395   3.282
10466TIP3    H231356   5.036   2.441   3.206
10467TIP3   OH231357   6.424   4.726   1.467
10467TIP3    H131358   6.366   4.658   1.434
10467TIP3    H231359   6.379   4.808   1.447
10468TIP3   OH231360   5.553   2.598   4.944
10468TIP3    H131361   5.591   2.527   4.892
10468TIP3    H231362   5.544   2.561   5.032
10469TIP3   OH231363   1.346   2.030   5.860
10469TIP3    H131364   1.331   2.123   5.842
10469TIP3    H231365   1.349   2.024   5.955
10470TIP3   OH231366   1.151   4.953   2.589
10470TIP3    H131367   1.185   4.865   2.604
10470TIP3    H231368   1.089   4.968   2.660
10471TIP3   OH231369   0.677   4.216   2.176
10471TIP3    H131370   0.730   4.247   2.249
10471TIP3    H231371   0.648   4.296   2.132
10472TIP3   OH231372   4.923   1.786   2.834
10472TIP3    H131373   4.999   1.760   2.782
10472TIP3    H231374   4.959   1.847   2.899
10473TIP3   OH231375   2.476   3.034   1.879
10473TIP3    H131376   2.440   3.117   1.908
10473TIP3    H231377   2.399   2.978   1.864
10474TIP3   OH231378   0.326   6.692   1.135
10474TIP3    H131379   0.274   6.759   1.090
10474TIP3    H231380   0.264   6.620   1.150
10475TIP3   OH231381   2.630   7.623   5.345
10475TIP3    H131382   2.584   7.570   5.279
10475TIP3    H231383   2.692   7.562   5.385
10476TIP3   OH231384   2.485   6.230   2.727
10476TIP3    H131385   2.521   6.201   2.811
10476TIP3    H231386   2.510   6.322   2.721
10477TIP3   OH231387   1.746   7.253   4.460
10477TIP3    H131388   1.777   7.281   4.374
10477TIP3    H231389   1.691   7.177   4.443
10478TIP3   OH231390   7.467   3.260   3.133
10478TIP3    H131391   7.413   3.231   3.206
10478TIP3    H231392   7.404   3.286   3.065
10479TIP3   OH231393   5.052   7.159   4.960
10479TIP3    H131394   5.134   7.122   4.995
10479TIP3    H231395   4.988   7.143   5.029
10480TIP3   OH231396   4.485   5.677   6.089
10480TIP3    H131397   4.550   5.709   6.026
10480TIP3    H231398   4.403   5.716   6.060
10481TIP3   OH231399   4.288   0.633   1.082
10481TIP3    H131400   4.288   0.728   1.092
10481TIP3    H231401   4.380   0.608   1.094
10482TIP3   OH231402   3.789   5.184   6.361
10482TIP3    H131403   3.820   5.122   6.295
10482TIP3    H231404   3.697   5.161   6.374
10483TIP3   OH231405   5.406   4.447   6.312
10483TIP3    H131406   5.501   4.449   6.298
10483TIP3    H231407   5.381   4.539   6.319
10484TIP3   OH231408   5.640   5.183   1.654
10484TIP3    H131409   5.679   5.150   1.573
10484TIP3    H231410   5.713   5.224   1.700
10485TIP3   OH231411   6.464   2.111   3.417
10485TIP3    H131412   6.551   2.113   3.378
10485TIP3    H231413   6.470   2.047   3.488
10486TIP3   OH231414   0.028   4.076   5.381
10486TIP3    H131415   0.102   4.020   5.358
10486TIP3    H231416   0.058   4.164   5.358
10487TIP3   OH231417   5.949   4.685   5.964
10487TIP3    H131418   6.006   4.627   5.915
10487TIP3    H231419   5.865   4.638   5.968
10488TIP3   OH231420   0.339   5.874   4.728
10488TIP3    H131421   0.435   5.875   4.726
10488TIP3    H231422   0.317   5.874   4.821
10489TIP3   OH231423   3.848   0.626   1.582
10489TIP3    H131424   3.795   0.546   1.578
10489TIP3    H231425   3.784   0.697   1.588
10490TIP3   OH231426   5.302   1.453   3.412
10490TIP3    H131427   5.211   1.477   3.428
10490TIP3    H231428   5.322   1.386   3.478
10491TIP3   OH231429   0.459   5.821   2.022
10491TIP3    H131430   0.459   5.845   2.115
10491TIP3    H231431   0.368   5.797   2.003
10492TIP3   OH231432   1.540   1.914   3.689
10492TIP3    H131433   1.600   1.867   3.631
10492TIP3    H231434   1.453   1.891   3.657
10493TIP3   OH231435   6.682   0.403   3.408
10493TIP3    H131436   6.691   0.438   3.497
10493TIP3    H231437   6.739   0.326   3.406
10494TIP3   OH231438   2.227   3.116   5.127
10494TIP3    H131439   2.305   3.116   5.182
10494TIP3    H231440   2.253   3.069   5.048
10495TIP3   OH231441   4.282   2.673   6.546
10495TIP3    H131442   4.239   2.715   6.620
10495TIP3    H231443   4.371   2.656   6.576
10496TIP3   OH231444   7.343   7.848   1.903
10496TIP3    H131445   7.353   7.763   1.944
10496TIP3    H231446   7.276   7.893   1.955
10497TIP3   OH231447   0.636   4.703   4.294
10497TIP3    H131448   0.668   4.709   4.384
10497TIP3    H231449   0.541   4.712   4.302
10498TIP3   OH231450   8.241   6.203   1.727
10498TIP3    H131451   8.251   6.136   1.660
10498TIP3    H231452   8.323   6.253   1.724
10499TIP3   OH231453   7.320   4.233   1.500
10499TIP3    H131454   7.267   4.196   1.429
10499TIP3    H231455   7.265   4.223   1.578
10500TIP3   OH231456   4.711   1.054   5.203
10500TIP3    H131457   4.762   1.115   5.150
10500TIP3    H231458   4.660   1.004   5.140
10501TIP3   OH231459   4.773   0.462   1.021
10501TIP3    H131460   4.861   0.438   0.992
10501TIP3    H231461   4.720   0.384   1.006
10502TIP3   OH231462   7.532   0.904   1.950
10502TIP3    H131463   7.487   0.916   2.033
10502TIP3    H231464   7.528   0.810   1.933
10503TIP3   OH231465   1.384   7.419   1.081
10503TIP3    H131466   1.394   7.458   0.994
10503TIP3    H231467   1.451   7.351   1.085
10504TIP3   OH231468   4.538   5.185   0.802
10504TIP3    H131469   4.477   5.227   0.862
10504TIP3    H231470   4.554   5.251   0.734
10505TIP3   OH231471   3.759   6.507   0.509
10505TIP3    H131472   3.694   6.548   0.566
10505TIP3    H231473   3.755   6.558   0.428
10506TIP3   OH231474   6.456   2.372   3.630
10506TIP3    H131475   6.452   2.315   3.708
10506TIP3    H231476   6.514   2.326   3.570
10507TIP3   OH231477   1.510   0.658   3.497
10507TIP3    H131478   1.570   0.602   3.546
10507TIP3    H231479   1.436   0.602   3.476
10508TIP3   OH231480   6.761   1.131   0.393
10508TIP3    H131481   6.748   1.043   0.429
10508TIP3    H231482   6.695   1.140   0.325
10509TIP3   OH231483   1.870   3.835   5.191
10509TIP3    H131484   1.837   3.788   5.114
10509TIP3    H231485   1.828   3.793   5.265
10510TIP3   OH231486   5.049   3.295   3.636
10510TIP3    H131487   5.098   3.284   3.717
10510TIP3    H231488   4.957   3.289   3.662
10511TIP3   OH231489   6.596   2.407   2.992
10511TIP3    H131490   6.506   2.436   3.004
10511TIP3    H231491   6.592   2.312   3.002
10512TIP3   OH231492   5.440   1.627   2.935
10512TIP3    H131493   5.494   1.554   2.964
10512TIP3    H231494   5.503   1.692   2.904
10513TIP3   OH231495   3.421   0.873   2.535
10513TIP3    H131496   3.381   0.786   2.542
10513TIP3    H231497   3.346   0.934   2.538
10514TIP3   OH231498   7.927   3.256   4.723
10514TIP3    H131499   7.955   3.314   4.652
10514TIP3    H231500   7.860   3.306   4.770
10515TIP3   OH231501   8.217   5.179   4.066
10515TIP3    H131502   8.212   5.105   4.005
10515TIP3    H231503   8.174   5.251   4.021
10516TIP3   OH231504   3.668   2.408   5.660
10516TIP3    H131505   3.761   2.426   5.642
10516TIP3    H231506   3.639   2.483   5.712
10517TIP3   OH231507   3.761   4.095   1.358
10517TIP3    H131508   3.680   4.050   1.334
10517TIP3    H231509   3.744   4.134   1.443
10518TIP3   OH231510   7.187   6.998   5.842
10518TIP3    H131511   7.166   7.079   5.795
10518TIP3    H231512   7.110   6.981   5.896
10519TIP3   OH231513   2.573   3.718   6.187
10519TIP3    H131514   2.507   3.648   6.186
10519TIP3    H231515   2.529   3.792   6.228
10520TIP3   OH231516   8.207   1.393   1.092
10520TIP3    H131517   8.151   1.343   1.032
10520TIP3    H231518   8.158   1.394   1.174
10521TIP3   OH231519   3.445   5.647   2.964
10521TIP3    H131520   3.363   5.695   2.973
10521TIP3    H231521   3.438   5.575   3.028
10522TIP3   OH231522   5.600   0.049   6.282
10522TIP3    H131523   5.592   0.143   6.270
10522TIP3    H231524   5.596   0.012   6.194
10523TIP3   OH231525   6.666   3.132   6.063
10523TIP3    H131526   6.628   3.049   6.036
10523TIP3    H231527   6.592   3.184   6.095
10524TIP3   OH231528   7.163   1.639   5.036
10524TIP3    H131529   7.109   1.582   5.092
10524TIP3    H231530   7.132   1.621   4.947
10525TIP3   OH231531   5.812   0.992   5.137
10525TIP3    H131532   5.745   1.057   5.118
10525TIP3    H231533   5.803   0.976   5.231
10526TIP3   OH231534   3.481   2.430   3.336
10526TIP3    H131535   3.545   2.384   3.390
10526TIP3    H231536   3.531   2.496   3.289
10527TIP3   OH231537   7.682   6.974   4.749
10527TIP3    H131538   7.671   7.053   4.695
10527TIP3    H231539   7.626   6.989   4.825
10528TIP3   OH231540   1.409   1.945   3.367
10528TIP3    H131541   1.357   1.906   3.297
10528TIP3    H231542   1.447   1.871   3.414
10529TIP3   OH231543   7.128   3.294   4.930
10529TIP3    H131544   7.116   3.341   4.848
10529TIP3    H231545   7.173   3.357   4.987
10530TIP3   OH231546   6.361   0.076   3.988
10530TIP3    H131547   6.425   0.136   3.950
10530TIP3    H231548   6.370  -0.004   3.937
10531TIP3   OH231549   7.080   6.434   3.789
10531TIP3    H131550   7.093   6.494   3.716
10531TIP3    H231551   6.987   6.444   3.812
10532TIP3   OH231552   0.292   1.785   2.180
10532TIP3    H131553   0.274   1.730   2.257
10532TIP3    H231554   0.208   1.826   2.160
10533TIP3   OH231555   7.810   6.785   4.057
10533TIP3    H131556   7.726   6.805   4.017
10533TIP3    H231557   7.821   6.852   4.125
10534TIP3   OH231558   0.642   7.514   5.192
10534TIP3    H131559   0.705   7.479   5.130
10534TIP3    H231560   0.650   7.457   5.269
10535TIP3   OH231561   7.548   2.771   6.718
10535TIP3    H131562   7.509   2.699   6.768
10535TIP3    H231563   7.553   2.844   6.780
10536TIP3   OH231564   6.102   6.879   0.925
10536TIP3    H131565   6.184   6.844   0.960
10536TIP3    H231566   6.064   6.929   0.996
10537TIP3   OH231567   3.620   6.637   1.055
10537TIP3    H131568   3.631   6.670   1.144
10537TIP3    H231569   3.698   6.666   1.008
10538TIP3   OH231570   1.915   7.195   0.812
10538TIP3    H131571   1.933   7.137   0.886
10538TIP3    H231572   1.954   7.279   0.837
10539TIP3   OH231573   1.482   4.476   5.359
10539TIP3    H131574   1.549   4.544   5.353
10539TIP3    H231575   1.406   4.520   5.397
10540TIP3   OH231576   6.940   7.555   6.588
10540TIP3    H131577   6.962   7.519   6.674
10540TIP3    H231578   6.859   7.603   6.601
10541TIP3   OH231579   3.226   4.020   2.079
10541TIP3    H131580   3.193   3.974   2.002
10541TIP3    H231581   3.148   4.051   2.124
10542TIP3   OH231582   3.575   1.620   5.621
10542TIP3    H131583   3.559   1.714   5.622
10542TIP3    H231584   3.612   1.603   5.534
10543TIP3   OH231585   6.958   6.976   6.013
10543TIP3    H131586   6.893   6.906   6.019
10543TIP3    H231587   7.007   6.971   6.095
10544TIP3   OH231588   6.018   5.650   1.356
10544TIP3    H131589   5.972   5.716   1.407
10544TIP3    H231590   6.058   5.593   1.421
10545TIP3   OH231591   0.567   5.675   5.638
10545TIP3    H131592   0.594   5.617   5.566
10545TIP3    H231593   0.540   5.615   5.707
10546TIP3   OH231594   4.056   2.257   0.533
10546TIP3    H131595   4.138   2.287   0.493
10546TIP3    H231596   4.080   2.238   0.624
10547TIP3   OH231597   5.529   6.881   3.511
10547TIP3    H131598   5.527   6.815   3.580
10547TIP3    H231599   5.550   6.831   3.432
10548TIP3   OH231600   2.779   7.625   3.592
10548TIP3    H131601   2.799   7.554   3.532
10548TIP3    H231602   2.757   7.699   3.535
10549TIP3   OH231603   4.527   5.207   3.261
10549TIP3    H131604   4.488   5.211   3.348
10549TIP3    H231605   4.459   5.239   3.203
10550TIP3   OH231606   1.351   2.199   4.924
10550TIP3    H131607   1.400   2.262   4.976
10550TIP3    H231608   1.267   2.242   4.907
10551TIP3   OH231609   4.036   4.837   5.870
10551TIP3    H131610   4.050   4.807   5.959
10551TIP3    H231611   4.080   4.772   5.815
10552TIP3   OH231612   3.797   4.135   5.035
10552TIP3    H131613   3.883   4.159   5.000
10552TIP3    H231614   3.782   4.196   5.107
10553TIP3   OH231615   3.573   2.134   0.107
10553TIP3    H131616   3.531   2.208   0.064
10553TIP3    H231617   3.501   2.088   0.151
10554TIP3   OH231618   1.286   4.846   1.465
10554TIP3    H131619   1.210   4.794   1.438
10554TIP3    H231620   1.269   4.933   1.430
10555TIP3   OH231621   7.461   0.299   3.419
10555TIP3    H131622   7.439   0.380   3.465
10555TIP3    H231623   7.554   0.309   3.396
10556TIP3   OH231624   7.535   7.619   5.058
10556TIP3    H131625   7.522   7.678   4.984
10556TIP3    H231626   7.475   7.651   5.125
10557TIP3   OH231627   1.837   1.680   1.424
10557TIP3    H131628   1.834   1.602   1.368
10557TIP3    H231629   1.863   1.646   1.510
10558TIP3   OH231630   5.662   3.596   1.403
10558TIP3    H131631   5.616   3.577   1.484
10558TIP3    H231632   5.622   3.676   1.371
10559TIP3   OH231633   4.680   6.339   1.953
10559TIP3    H131634   4.737   6.389   1.895
10559TIP3    H231635   4.621   6.292   1.895
10560TIP3   OH231636   2.706   2.815   4.612
10560TIP3    H131637   2.616   2.846   4.601
10560TIP3    H231638   2.716   2.747   4.545
10561TIP3   OH231639   4.211   6.136   5.634
10561TIP3    H131640   4.136   6.078   5.622
10561TIP3    H231641   4.194   6.210   5.576
10562TIP3   OH231642   2.729   2.006   4.826
10562TIP3    H131643   2.698   1.947   4.895
10562TIP3    H231644   2.706   1.961   4.744
10563TIP3   OH231645   4.875   2.092   3.858
10563TIP3    H131646   4.937   2.132   3.796
10563TIP3    H231647   4.896   2.131   3.942
10564TIP3   OH231648   7.698   2.678   3.293
10564TIP3    H131649   7.735   2.757   3.332
10564TIP3    H231650   7.671   2.704   3.205
10565TIP3   OH231651   2.762   5.677   3.148
10565TIP3    H131652   2.760   5.760   3.195
10565TIP3    H231653   2.759   5.610   3.216
10566TIP3   OH231654   0.673   0.819   6.500
10566TIP3    H131655   0.610   0.866   6.554
10566TIP3    H231656   0.735   0.782   6.562
10567TIP3   OH231657   1.384   4.963   4.324
10567TIP3    H131658   1.458   4.917   4.285
10567TIP3    H231659   1.366   5.036   4.264
10568TIP3   OH231660   4.597   0.908   4.568
10568TIP3    H131661   4.657   0.834   4.577
10568TIP3    H231662   4.652   0.978   4.532
10569TIP3   OH231663   2.562   2.734   1.405
10569TIP3    H131664   2.486   2.692   1.445
10569TIP3    H231665   2.620   2.754   1.479
10570TIP3   OH231666   3.903   3.201   2.330
10570TIP3    H131667   3.925   3.194   2.238
10570TIP3    H231668   3.942   3.124   2.370
10571TIP3   OH231669   3.260   5.805   0.739
10571TIP3    H131670   3.274   5.838   0.828
10571TIP3    H231671   3.343   5.765   0.715
10572TIP3   OH231672   6.695   7.306   3.205
10572TIP3    H131673   6.658   7.267   3.126
10572TIP3    H231674   6.643   7.269   3.276
10573TIP3   OH231675   7.892   3.317   5.509
10573TIP3    H131676   7.849   3.402   5.503
10573TIP3    H231677   7.963   3.331   5.572
10574TIP3   OH231678   5.543   2.966   1.047
10574TIP3    H131679   5.524   3.056   1.021
10574TIP3    H231680   5.461   2.935   1.086
10575TIP3   OH231681   2.876   7.310   3.082
10575TIP3    H131682   2.949   7.351   3.035
10575TIP3    H231683   2.916   7.271   3.160
10576TIP3   OH231684   1.890   2.883   1.408
10576TIP3    H131685   1.843   2.957   1.372
10576TIP3    H231686   1.822   2.821   1.434
10577TIP3   OH231687   0.372   7.823   1.762
10577TIP3    H131688   0.467   7.831   1.761
10577TIP3    H231689   0.351   7.767   1.687
10578TIP3   OH231690   1.082   7.265   5.015
10578TIP3    H131691   1.105   7.209   5.088
10578TIP3    H231692   1.166   7.293   4.979
10579TIP3   OH231693   7.448   4.568   2.788
10579TIP3    H131694   7.498   4.488   2.772
10579TIP3    H231695   7.357   4.538   2.799
10580TIP3   OH231696   5.222   4.782   6.272
10580TIP3    H131697   5.245   4.824   6.190
10580TIP3    H231698   5.291   4.809   6.333
10581TIP3   OH231699   7.075   7.025   0.661
10581TIP3    H131700   7.089   6.938   0.624
10581TIP3    H231701   7.155   7.043   0.710
10582TIP3   OH231702   4.982   1.051   1.147
10582TIP3    H131703   5.069   1.034   1.184
10582TIP3    H231704   4.979   1.146   1.137
10583TIP3   OH231705   6.388   6.846   3.137
10583TIP3    H131706   6.323   6.776   3.133
10583TIP3    H231707   6.347   6.914   3.190
10584TIP3   OH231708   0.791   2.781   2.787
10584TIP3    H131709   0.826   2.849   2.845
10584TIP3    H231710   0.857   2.712   2.788
10585TIP3   OH231711   2.960   1.123   5.771
10585TIP3    H131712   2.879   1.105   5.725
10585TIP3    H231713   3.001   1.037   5.783
10586TIP3   OH231714   3.035   2.037   3.737
10586TIP3    H131715   3.076   2.119   3.710
10586TIP3    H231716   3.047   2.034   3.832
10587TIP3   OH231717   5.612   3.908   0.872
10587TIP3    H131718   5.697   3.950   0.891
10587TIP3    H231719   5.592   3.858   0.950
10588TIP3   OH231720   0.947   1.045   6.535
10588TIP3    H131721   0.939   1.059   6.629
10588TIP3    H231722   0.881   1.102   6.496
10589TIP3   OH231723   2.668   4.107   4.225
10589TIP3    H131724   2.593   4.109   4.166
10589TIP3    H231725   2.740   4.146   4.175
10590TIP3   OH231726   6.442   2.756   6.513
10590TIP3    H131727   6.382   2.827   6.534
10590TIP3    H231728   6.444   2.701   6.591
10591TIP3   OH231729   0.608   0.042   4.840
10591TIP3    H131730   0.609   0.128   4.797
10591TIP3    H231731   0.516   0.026   4.859
10592TIP3   OH231732   5.496   0.098   4.741
10592TIP3    H131733   5.421   0.117   4.685
10592TIP3    H231734   5.563   0.064   4.681
10593TIP3   OH231735   8.146   4.425   4.594
10593TIP3    H131736   8.083   4.488   4.628
10593TIP3    H231737   8.095   4.345   4.582
10594TIP3   OH231738   7.202   3.545   2.189
10594TIP3    H131739   7.120   3.495   2.184
10594TIP3    H231740   7.210   3.585   2.102
10595TIP3   OH231741   0.845   5.879   3.434
10595TIP3    H131742   0.807   5.963   3.413
10595TIP3    H231743   0.940   5.893   3.431
10596TIP3   OH231744   7.701   2.032   4.816
10596TIP3    H131745   7.665   1.950   4.780
10596TIP3    H231746   7.651   2.101   4.773
10597TIP3   OH231747   6.764   6.199   2.925
10597TIP3    H131748   6.731   6.259   2.992
10597TIP3    H231749   6.685   6.163   2.885
10598TIP3   OH231750   0.129   7.615   2.448
10598TIP3    H131751   0.132   7.690   2.507
10598TIP3    H231752   0.120   7.654   2.361
10599TIP3   OH231753   6.439   3.574   2.587
10599TIP3    H131754   6.504   3.635   2.551
10599TIP3    H231755   6.473   3.552   2.674
10600TIP3   OH231756   1.311   3.678   3.036
10600TIP3    H131757   1.219   3.651   3.043
10600TIP3    H231758   1.319   3.751   3.097
10601TIP3   OH231759   3.321   1.129   3.842
10601TIP3    H131760   3.312   1.092   3.929
10601TIP3    H231761   3.233   1.127   3.805
10602TIP3   OH231762   5.581   1.028   6.175
10602TIP3    H131763   5.550   1.118   6.172
10602TIP3    H231764   5.635   1.019   6.096
10603TIP3   OH231765   2.405   2.624   2.432
10603TIP3    H131766   2.329   2.682   2.444
10603TIP3    H231767   2.461   2.670   2.371
10604TIP3   OH231768   5.643   5.413   0.681
10604TIP3    H131769   5.650   5.320   0.702
10604TIP3    H231770   5.589   5.417   0.603
10605TIP3   OH231771   1.671   4.007   2.352
10605TIP3    H131772   1.652   4.067   2.424
10605TIP3    H231773   1.765   4.017   2.337
10606TIP3   OH231774   7.087   5.836   4.617
10606TIP3    H131775   7.092   5.833   4.521
10606TIP3    H231776   6.998   5.807   4.637
10607TIP3   OH231777   4.244   2.954   6.121
10607TIP3    H131778   4.246   2.914   6.208
10607TIP3    H231779   4.314   3.019   6.123
10608TIP3   OH231780   3.332   5.451   2.271
10608TIP3    H131781   3.274   5.454   2.195
10608TIP3    H231782   3.296   5.516   2.331
10609TIP3   OH231783   6.181   4.312   3.315
10609TIP3    H131784   6.222   4.338   3.233
10609TIP3    H231785   6.187   4.389   3.371
10610TIP3   OH231786   4.565   5.122   4.382
10610TIP3    H131787   4.485   5.160   4.346
10610TIP3    H231788   4.556   5.133   4.477
10611TIP3   OH231789   3.507   2.836   0.825
10611TIP3    H131790   3.434   2.774   0.819
10611TIP3    H231791   3.585   2.782   0.819
10612TIP3   OH231792   4.430   2.925   2.122
10612TIP3    H131793   4.422   2.918   2.027
10612TIP3    H231794   4.357   2.982   2.147
10613TIP3   OH231795   4.480   3.417   0.959
10613TIP3    H131796   4.530   3.388   0.882
10613TIP3    H231797   4.441   3.336   0.994
10614TIP3   OH231798   2.832   1.707   6.393
10614TIP3    H131799   2.880   1.788   6.378
10614TIP3    H231800   2.864   1.647   6.325
10615TIP3   OH231801   5.189   0.385   0.317
10615TIP3    H131802   5.144   0.342   0.390
10615TIP3    H231803   5.275   0.409   0.351
10616TIP3   OH231804   6.429   3.730   1.627
10616TIP3    H131805   6.431   3.795   1.557
10616TIP3    H231806   6.347   3.683   1.615
10617TIP3   OH231807   4.542   4.805   2.491
10617TIP3    H131808   4.586   4.736   2.542
10617TIP3    H231809   4.582   4.801   2.405
10618TIP3   OH231810   5.399   4.636   4.373
10618TIP3    H131811   5.317   4.683   4.392
10618TIP3    H231812   5.441   4.625   4.458
10619TIP3   OH231813   7.672   0.778   5.858
10619TIP3    H131814   7.766   0.764   5.864
10619TIP3    H231815   7.657   0.801   5.766
10620TIP3   OH231816   5.338   6.392   1.922
10620TIP3    H131817   5.266   6.450   1.946
10620TIP3    H231818   5.296   6.321   1.872
10621TIP3   OH231819   6.627   2.907   3.626
10621TIP3    H131820   6.657   2.816   3.629
10621TIP3    H231821   6.543   2.906   3.672
10622TIP3   OH231822   0.293   6.122   1.166
10622TIP3    H131823   0.303   6.027   1.177
10622TIP3    H231824   0.349   6.143   1.091
10623TIP3   OH231825   2.164   4.116   1.283
10623TIP3    H131826   2.075   4.128   1.249
10623TIP3    H231827   2.209   4.196   1.258
10624TIP3   OH231828   1.864   1.431   3.933
10624TIP3    H131829   1.826   1.375   4.001
10624TIP3    H231830   1.834   1.393   3.850
10625TIP3   OH231831   2.145   4.756   5.405
10625TIP3    H131832   2.158   4.766   5.500
10625TIP3    H231833   2.085   4.683   5.397
10626TIP3   OH231834   1.816   5.325   6.159
10626TIP3    H131835   1.818   5.242   6.112
10626TIP3    H231836   1.813   5.391   6.090
10627TIP3   OH231837   7.218   0.324   5.205
10627TIP3    H131838   7.152   0.365   5.149
10627TIP3    H231839   7.169   0.264   5.260
10628TIP3   OH231840   2.221   0.966   5.674
10628TIP3    H131841   2.170   0.887   5.689
10628TIP3    H231842   2.312   0.939   5.687
10629TIP3   OH231843   0.636   5.007   4.590
10629TIP3    H131844   0.658   4.924   4.548
10629TIP3    H231845   0.697   5.014   4.663
10630TIP3   OH231846   0.492   6.110   4.266
10630TIP3    H131847   0.468   6.094   4.174
10630TIP3    H231848   0.413   6.146   4.306
10631TIP3   OH231849   6.929   2.564   2.726
10631TIP3    H131850   6.942   2.482   2.678
10631TIP3    H231851   6.844   2.553   2.769
10632TIP3   OH231852   4.551   4.589   2.927
10632TIP3    H131853   4.589   4.637   3.001
10632TIP3    H231854   4.475   4.640   2.901
10633TIP3   OH231855   1.769   5.164   3.734
10633TIP3    H131856   1.825   5.193   3.806
10633TIP3    H231857   1.692   5.126   3.777
10634TIP3   OH231858   2.272   4.585   4.426
10634TIP3    H131859   2.237   4.668   4.394
10634TIP3    H231860   2.196   4.528   4.433
10635TIP3   OH231861   0.629   5.590   4.320
10635TIP3    H131862   0.610   5.543   4.239
10635TIP3    H231863   0.643   5.680   4.293
10636TIP3   OH231864   2.284   7.222   5.153
10636TIP3    H131865   2.271   7.222   5.248
10636TIP3    H231866   2.322   7.136   5.134
10637TIP3   OH231867   2.682   5.287   0.847
10637TIP3    H131868   2.756   5.248   0.801
10637TIP3    H231869   2.690   5.381   0.830
10638TIP3   OH231870   1.896   6.250   0.379
10638TIP3    H131871   1.961   6.181   0.391
10638TIP3    H231872   1.812   6.208   0.398
10639TIP3   OH231873   6.518   6.240   2.236
10639TIP3    H131874   6.554   6.309   2.180
10639TIP3    H231875   6.524   6.276   2.324
10640TIP3   OH231876   2.263   1.631   1.225
10640TIP3    H131877   2.218   1.715   1.233
10640TIP3    H231878   2.207   1.579   1.168
10641TIP3   OH231879   3.905   5.364   3.332
10641TIP3    H131880   3.862   5.417   3.399
10641TIP3    H231881   3.833   5.323   3.284
10642TIP3   OH231882   6.259   0.885   0.091
10642TIP3    H131883   6.340   0.848   0.054
10642TIP3    H231884   6.262   0.977   0.066
10643TIP3   OH231885   1.805   4.094   0.823
10643TIP3    H131886   1.735   4.115   0.762
10643TIP3    H231887   1.768   4.026   0.880
10644TIP3   OH231888   6.681   7.710   5.471
10644TIP3    H131889   6.759   7.764   5.457
10644TIP3    H231890   6.707   7.646   5.537
10645TIP3   OH231891   7.274   6.664   1.075
10645TIP3    H131892   7.190   6.691   1.110
10645TIP3    H231893   7.267   6.569   1.065
10646TIP3   OH231894   7.202   2.207   2.506
10646TIP3    H131895   7.244   2.195   2.421
10646TIP3    H231896   7.146   2.130   2.516
10647TIP3   OH231897   0.248   0.879   4.538
10647TIP3    H131898   0.266   0.836   4.454
10647TIP3    H231899   0.191   0.952   4.515
10648TIP3   OH231900   6.277   3.821   2.304
10648TIP3    H131901   6.193   3.786   2.332
10648TIP3    H231902   6.298   3.774   2.223
10649TIP3   OH231903   5.616   7.409   6.295
10649TIP3    H131904   5.663   7.328   6.314
10649TIP3    H231905   5.636   7.466   6.369
10650TIP3   OH231906   8.244   0.332   6.763
10650TIP3    H131907   8.233   0.425   6.744
10650TIP3    H231908   8.336   0.323   6.788
10651TIP3   OH231909   7.248   3.850   3.844
10651TIP3    H131910   7.298   3.915   3.894
10651TIP3    H231911   7.290   3.849   3.758
10652TIP3   OH231912   8.050   6.116   3.261
10652TIP3    H131913   7.971   6.148   3.219
10652TIP3    H231914   8.022   6.038   3.309
10653TIP3   OH231915   5.675   5.630   1.952
10653TIP3    H131916   5.718   5.660   2.033
10653TIP3    H231917   5.696   5.536   1.948
10654TIP3   OH231918   0.988   1.037   1.105
10654TIP3    H131919   1.030   1.122   1.112
10654TIP3    H231920   1.002   1.010   1.014
10655TIP3   OH231921   5.240   0.319   6.386
10655TIP3    H131922   5.195   0.403   6.374
10655TIP3    H231923   5.172   0.259   6.416
10656TIP3   OH231924   7.572   2.241   4.127
10656TIP3    H131925   7.501   2.185   4.096
10656TIP3    H231926   7.638   2.179   4.158
10657TIP3   OH231927   5.582   3.887   1.391
10657TIP3    H131928   5.543   3.972   1.409
10657TIP3    H231929   5.672   3.894   1.423
10658TIP3   OH231930   3.736   6.643   3.979
10658TIP3    H131931   3.662   6.681   4.027
10658TIP3    H231932   3.770   6.715   3.926
10659TIP3   OH231933   1.894   7.300   1.348
10659TIP3    H131934   1.810   7.347   1.346
10659TIP3    H231935   1.960   7.369   1.351
10660TIP3   OH231936   4.076   4.597   3.906
10660TIP3    H131937   4.003   4.545   3.940
10660TIP3    H231938   4.043   4.686   3.903
10661TIP3   OH231939   7.873   1.886   3.603
10661TIP3    H131940   7.799   1.877   3.663
10661TIP3    H231941   7.934   1.817   3.630
10662TIP3   OH231942   3.275   7.570   1.301
10662TIP3    H131943   3.302   7.479   1.307
10662TIP3    H231944   3.350   7.615   1.263
10663TIP3   OH231945   4.379   1.204   5.849
10663TIP3    H131946   4.363   1.145   5.775
10663TIP3    H231947   4.415   1.148   5.917
10664TIP3   OH231948   2.349   1.091   3.265
10664TIP3    H131949   2.339   1.176   3.308
10664TIP3    H231950   2.441   1.089   3.239
10665TIP3   OH231951   4.899   1.634   5.223
10665TIP3    H131952   4.826   1.653   5.164
10665TIP3    H231953   4.907   1.539   5.222
10666TIP3   OH231954   5.131   4.954   1.838
10666TIP3    H131955   5.042   4.955   1.802
10666TIP3    H231956   5.158   5.046   1.837
10667TIP3   OH231957   6.302   4.478   1.769
10667TIP3    H131958   6.380   4.532   1.755
10667TIP3    H231959   6.297   4.423   1.691
10668TIP3   OH231960   3.762   2.701   1.707
10668TIP3    H131961   3.684   2.666   1.665
10668TIP3    H231962   3.736   2.787   1.740
10669TIP3   OH231963   5.363   3.212   4.070
10669TIP3    H131964   5.312   3.154   4.127
10669TIP3    H231965   5.362   3.296   4.115
10670TIP3   OH231966   4.567   6.799   5.567
10670TIP3    H131967   4.493   6.841   5.609
10670TIP3    H231968   4.601   6.738   5.633
10671TIP3   OH231969   6.628   0.316   6.227
10671TIP3    H131970   6.657   0.285   6.141
10671TIP3    H231971   6.575   0.393   6.208
10672TIP3   OH231972   5.225   4.035   2.446
10672TIP3    H131973   5.142   4.083   2.449
10672TIP3    H231974   5.250   4.037   2.354
10673TIP3   OH231975   4.428   7.340   5.169
10673TIP3    H131976   4.519   7.325   5.194
10673TIP3    H231977   4.388   7.382   5.245
10674TIP3   OH231978   0.149   7.359   2.945
10674TIP3    H131979   0.151   7.446   2.985
10674TIP3    H231980   0.102   7.371   2.863
10675TIP3   OH231981   2.066   5.339   6.269
10675TIP3    H131982   1.971   5.329   6.259
10675TIP3    H231983   2.076   5.409   6.334
10676TIP3   OH231984   1.399   3.358   0.966
10676TIP3    H131985   1.449   3.399   1.037
10676TIP3    H231986   1.307   3.370   0.990
10677TIP3   OH231987   7.529   7.244   2.175
10677TIP3    H131988   7.553   7.255   2.267
10677TIP3    H231989   7.602   7.282   2.127
10678TIP3   OH231990   7.956   1.549   5.714
10678TIP3    H131991   8.002   1.633   5.714
10678TIP3    H231992   7.883   1.562   5.774
10679TIP3   OH231993   2.280   3.145   6.093
10679TIP3    H131994   2.360   3.141   6.041
10679TIP3    H231995   2.243   3.057   6.088
10680TIP3   OH231996   4.649   2.738   5.507
10680TIP3    H131997   4.593   2.814   5.487
10680TIP3    H231998   4.722   2.776   5.556
10681TIP3   OH231999   6.000   0.604   1.333
10681TIP3    H132000   6.092   0.610   1.356
10681TIP3    H232001   5.990   0.518   1.292
10682TIP3   OH232002   1.419   3.183   1.777
10682TIP3    H132003   1.335   3.175   1.732
10682TIP3    H232004   1.424   3.276   1.802
10683TIP3   OH232005   7.594   2.058   2.490
10683TIP3    H132006   7.652   2.065   2.415
10683TIP3    H232007   7.510   2.029   2.453
10684TIP3   OH232008   0.421   4.362   0.261
10684TIP3    H132009   0.370   4.334   0.337
10684TIP3    H232010   0.381   4.317   0.187
10685TIP3   OH232011   2.998   0.167   4.925
10685TIP3    H132012   2.949   0.111   4.864
10685TIP3    H232013   3.084   0.178   4.883
10686TIP3   OH232014   6.521   7.687   3.312
10686TIP3    H132015   6.564   7.759   3.360
10686TIP3    H232016   6.448   7.662   3.368
10687TIP3   OH232017   0.084   1.886   5.452
10687TIP3    H132018   0.060   1.946   5.523
10687TIP3    H232019   0.128   1.942   5.388
10688TIP3   OH232020   3.056   6.425   1.885
10688TIP3    H132021   3.047   6.394   1.795
10688TIP3    H232022   3.087   6.349   1.934
10689TIP3   OH232023   3.000   6.922   6.111
10689TIP3    H132024   3.022   6.829   6.119
10689TIP3    H232025   3.075   6.968   6.150
10690TIP3   OH232026   6.779   4.696   5.442
10690TIP3    H132027   6.754   4.672   5.353
10690TIP3    H232028   6.703   4.743   5.477
10691TIP3   OH232029   6.539   6.045   5.788
10691TIP3    H132030   6.451   6.062   5.822
10691TIP3    H232031   6.554   5.952   5.804
10692TIP3   OH232032   7.607   6.943   6.442
10692TIP3    H132033   7.555   6.960   6.521
10692TIP3    H232034   7.583   6.854   6.416
10693TIP3   OH232035   0.022   2.617   3.848
10693TIP3    H132036  -0.046   2.556   3.879
10693TIP3    H232037   0.104   2.574   3.872
10694TIP3   OH232038   1.177   6.709   4.918
10694TIP3    H132039   1.189   6.665   5.002
10694TIP3    H232040   1.136   6.642   4.862
10695TIP3   OH232041   3.184   6.185   3.255
10695TIP3    H132042   3.182   6.249   3.326
10695TIP3    H232043   3.103   6.199   3.207
10696TIP3   OH232044   0.451   6.477   3.804
10696TIP3    H132045   0.459   6.425   3.884
10696TIP3    H232046   0.537   6.470   3.762
10697TIP3   OH232047   6.015   6.831   5.820
10697TIP3    H132048   6.102   6.792   5.829
10697TIP3    H232049   6.030   6.925   5.823
10698TIP3   OH232050   0.095   4.302   6.628
10698TIP3    H132051   0.129   4.357   6.557
10698TIP3    H232052   0.096   4.213   6.593
10699TIP3   OH232053   7.421   4.466   4.936
10699TIP3    H132054   7.422   4.407   5.012
10699TIP3    H232055   7.483   4.427   4.875
10700TIP3   OH232056   2.648   7.742   6.465
10700TIP3    H132057   2.720   7.726   6.404
10700TIP3    H232058   2.584   7.673   6.445
10701TIP3   OH232059   4.286   4.059   3.220
10701TIP3    H132060   4.197   4.040   3.249
10701TIP3    H232061   4.305   4.146   3.254
10702TIP3   OH232062   0.244   1.315   6.451
10702TIP3    H132063   0.287   1.327   6.367
10702TIP3    H232064   0.270   1.392   6.502
10703TIP3   OH232065   5.894   1.548   3.051
10703TIP3    H132066   5.942   1.560   3.133
10703TIP3    H232067   5.947   1.592   2.985
10704TIP3   OH232068   1.551   1.465   1.777
10704TIP3    H132069   1.537   1.558   1.761
10704TIP3    H232070   1.516   1.421   1.699
10705TIP3   OH232071   7.237   3.321   1.442
10705TIP3    H132072   7.271   3.258   1.505
10705TIP3    H232073   7.144   3.329   1.463
10706TIP3   OH232074   1.889   2.683   0.305
10706TIP3    H132075   1.889   2.591   0.278
10706TIP3    H232076   1.980   2.711   0.298
10707TIP3   OH232077   1.274   3.031   6.106
10707TIP3    H132078   1.329   2.957   6.080
10707TIP3    H232079   1.186   2.994   6.110
10708TIP3   OH232080   4.875   4.117   2.931
10708TIP3    H132081   4.815   4.130   3.004
10708TIP3    H232082   4.826   4.064   2.868
10709TIP3   OH232083   4.911   3.126   0.999
10709TIP3    H132084   5.001   3.101   0.981
10709TIP3    H232085   4.861   3.091   0.926
10710TIP3   OH232086   1.426   6.866   4.747
10710TIP3    H132087   1.395   6.844   4.834
10710TIP3    H232088   1.385   6.950   4.727
10711TIP3   OH232089   4.263   3.181   4.480
10711TIP3    H132090   4.290   3.126   4.407
10711TIP3    H232091   4.188   3.134   4.518
10712TIP3   OH232092   7.089   1.078   0.993
10712TIP3    H132093   7.113   1.027   0.916
10712TIP3    H232094   7.071   1.013   1.061
10713TIP3   OH232095   6.983   2.133   5.543
10713TIP3    H132096   7.051   2.092   5.597
10713TIP3    H232097   7.028   2.206   5.499
10714TIP3   OH232098   1.456   7.671   4.392
10714TIP3    H132099   1.380   7.712   4.352
10714TIP3    H232100   1.457   7.704   4.482
10715TIP3   OH232101   7.050   3.691   4.098
10715TIP3    H132102   7.008   3.607   4.117
10715TIP3    H232103   6.985   3.756   4.124
10716TIP3   OH232104   5.286   1.116   0.907
10716TIP3    H132105   5.366   1.083   0.865
10716TIP3    H232106   5.250   1.178   0.843
10717TIP3   OH232107   3.958   2.459   6.150
10717TIP3    H132108   4.018   2.386   6.168
10717TIP3    H232109   4.013   2.537   6.154
10718TIP3   OH232110   0.770   5.403   3.107
10718TIP3    H132111   0.757   5.416   3.013
10718TIP3    H232112   0.862   5.379   3.115
10719TIP3   OH232113   1.312   2.672   5.118
10719TIP3    H132114   1.276   2.658   5.205
10719TIP3    H232115   1.262   2.746   5.083
10720TIP3   OH232116   8.282   5.267   1.389
10720TIP3    H132117   8.191   5.248   1.413
10720TIP3    H232118   8.306   5.341   1.444
10721TIP3   OH232119   4.763   4.193   5.606
10721TIP3    H132120   4.710   4.199   5.527
10721TIP3    H232121   4.746   4.105   5.640
10722TIP3   OH232122   0.940   5.698   6.474
10722TIP3    H132123   0.989   5.766   6.429
10722TIP3    H232124   0.961   5.709   6.566
10723TIP3   OH232125   0.678   3.151   3.319
10723TIP3    H132126   0.679   3.246   3.309
10723TIP3    H232127   0.698   3.117   3.232
10724TIP3   OH232128   2.671   0.675   5.011
10724TIP3    H132129   2.576   0.675   5.018
10724TIP3    H232130   2.696   0.584   5.026
10725TIP3   OH232131   1.842   7.734   5.787
10725TIP3    H132132   1.907   7.687   5.735
10725TIP3    H232133   1.890   7.762   5.865
10726TIP3   OH232134   7.348   4.913   5.514
10726TIP3    H132135   7.417   4.875   5.568
10726TIP3    H232136   7.392   4.981   5.462
10727TIP3   OH232137   1.288   2.339   5.273
10727TIP3    H132138   1.311   2.390   5.195
10727TIP3    H232139   1.371   2.302   5.303
10728TIP3   OH232140   5.592   6.991   6.280
10728TIP3    H132141   5.553   6.987   6.193
10728TIP3    H232142   5.600   7.085   6.298
10729TIP3   OH232143   2.377   1.982   1.149
10729TIP3    H132144   2.381   1.916   1.080
10729TIP3    H232145   2.462   2.025   1.146
10730TIP3   OH232146   0.394   0.583   0.602
10730TIP3    H132147   0.407   0.667   0.647
10730TIP3    H232148   0.308   0.591   0.561
10731TIP3   OH232149   7.131   5.063   5.527
10731TIP3    H132150   7.157   5.136   5.471
10731TIP3    H232151   7.190   4.991   5.501
10732TIP3   OH232152   1.330   0.893   3.214
10732TIP3    H132153   1.248   0.910   3.260
10732TIP3    H232154   1.351   0.801   3.234
10733TIP3   OH232155   3.963   0.460   2.800
10733TIP3    H132156   4.001   0.449   2.712
10733TIP3    H232157   3.869   0.445   2.787
10734TIP3   OH232158   3.884   1.756   2.944
10734TIP3    H132159   3.852   1.805   2.868
10734TIP3    H232160   3.978   1.775   2.947
10735TIP3   OH232161   5.166   6.504   5.844
10735TIP3    H132162   5.230   6.472   5.781
10735TIP3    H232163   5.175   6.599   5.840
10736TIP3   OH232164   4.745   0.910   4.242
10736TIP3    H132165   4.809   0.866   4.186
10736TIP3    H232166   4.662   0.901   4.194
10737TIP3   OH232167   4.248   5.199   5.015
10737TIP3    H132168   4.299   5.239   4.945
10737TIP3    H232169   4.160   5.190   4.979
10738TIP3   OH232170   4.572   1.866   0.468
10738TIP3    H132171   4.489   1.841   0.427
10738TIP3    H232172   4.638   1.815   0.422
10739TIP3   OH232173   6.683   1.508   0.562
10739TIP3    H132174   6.621   1.503   0.635
10739TIP3    H232175   6.633   1.477   0.486
10740TIP3   OH232176   5.119   6.092   5.058
10740TIP3    H132177   5.081   6.169   5.015
10740TIP3    H232178   5.209   6.088   5.024
10741TIP3   OH232179   1.824   7.245   3.773
10741TIP3    H132180   1.773   7.189   3.714
10741TIP3    H232181   1.781   7.330   3.768
10742TIP3   OH232182   3.594   6.186   6.139
10742TIP3    H132183   3.618   6.097   6.114
10742TIP3    H232184   3.518   6.207   6.085
10743TIP3   OH232185   6.320   0.456   5.771
10743TIP3    H132186   6.351   0.423   5.855
10743TIP3    H232187   6.301   0.548   5.787
10744TIP3   OH232188   0.904   1.836   5.674
10744TIP3    H132189   0.956   1.757   5.657
10744TIP3    H232190   0.963   1.909   5.656
10745TIP3   OH232191   1.044   0.782   3.064
10745TIP3    H132192   1.075   0.873   3.067
10745TIP3    H232193   1.033   0.763   2.971
10746TIP3   OH232194   8.044   1.705   6.322
10746TIP3    H132195   8.114   1.770   6.315
10746TIP3    H232196   7.988   1.720   6.246
10747TIP3   OH232197   7.912   2.245   1.841
10747TIP3    H132198   8.006   2.252   1.826
10747TIP3    H232199   7.888   2.327   1.885
10748TIP3   OH232200   5.204   0.106   2.596
10748TIP3    H132201   5.236   0.072   2.512
10748TIP3    H232202   5.201   0.201   2.585
10749TIP3   OH232203   7.041   3.887   4.635
10749TIP3    H132204   7.011   3.937   4.711
10749TIP3    H232205   7.040   3.951   4.563
10750TIP3   OH232206   1.596   3.082   3.089
10750TIP3    H132207   1.641   3.014   3.140
10750TIP3    H232208   1.517   3.039   3.056
10751TIP3   OH232209   1.428   7.519   2.263
10751TIP3    H132210   1.451   7.442   2.315
10751TIP3    H232211   1.362   7.487   2.201
10752TIP3   OH232212   5.106   6.786   1.352
10752TIP3    H132213   5.169   6.836   1.403
10752TIP3    H232214   5.112   6.822   1.263
10753TIP3   OH232215   7.355   7.387   1.219
10753TIP3    H132216   7.346   7.482   1.214
10753TIP3    H232217   7.418   7.364   1.151
10754TIP3   OH232218   2.977   4.603   2.706
10754TIP3    H132219   3.010   4.514   2.691
10754TIP3    H232220   2.909   4.593   2.772
10755TIP3   OH232221   4.493   5.835   6.568
10755TIP3    H132222   4.481   5.851   6.474
10755TIP3    H232223   4.584   5.806   6.576
10756TIP3   OH232224   6.156   3.147   5.825
10756TIP3    H132225   6.157   3.061   5.867
10756TIP3    H232226   6.078   3.147   5.770
10757TIP3   OH232227   4.029   1.316   2.552
10757TIP3    H132228   4.039   1.306   2.457
10757TIP3    H232229   4.110   1.279   2.588
10758TIP3   OH232230   3.457   1.195   4.334
10758TIP3    H132231   3.535   1.248   4.314
10758TIP3    H232232   3.384   1.256   4.325
10759TIP3   OH232233   7.938   4.311   5.786
10759TIP3    H132234   7.970   4.318   5.876
10759TIP3    H232235   7.880   4.386   5.776
10760TIP3   OH232236   7.378   3.313   4.139
10760TIP3    H132237   7.385   3.390   4.195
10760TIP3    H232238   7.333   3.344   4.061
10761TIP3   OH232239   0.697   3.449   0.105
10761TIP3    H132240   0.649   3.497   0.037
10761TIP3    H232241   0.645   3.370   0.120
10762TIP3   OH232242   3.630   7.042   4.145
10762TIP3    H132243   3.610   7.049   4.239
10762TIP3    H232244   3.603   7.127   4.109
10763TIP3   OH232245   2.604   2.143   1.140
10763TIP3    H132246   2.583   2.215   1.199
10763TIP3    H232247   2.663   2.181   1.075
10764TIP3   OH232248   3.356   1.520   4.826
10764TIP3    H132249   3.391   1.443   4.871
10764TIP3    H232250   3.384   1.594   4.880
10765TIP3   OH232251   3.598   2.815   2.445
10765TIP3    H132252   3.638   2.729   2.429
10765TIP3    H232253   3.621   2.867   2.368
10766TIP3   OH232254   1.351   2.382   0.258
10766TIP3    H132255   1.404   2.461   0.247
10766TIP3    H232256   1.316   2.388   0.346
10767TIP3   OH232257   7.073   0.295   1.877
10767TIP3    H132258   7.100   0.319   1.966
10767TIP3    H232259   7.009   0.361   1.852
10768TIP3   OH232260   1.053   0.067   6.002
10768TIP3    H132261   1.127   0.043   6.058
10768TIP3    H232262   1.072   0.024   5.918
10769TIP3   OH232263   2.171   0.351   0.913
10769TIP3    H132264   2.178   0.361   1.008
10769TIP3    H232265   2.252   0.307   0.887
10770TIP3   OH232266   7.913   6.500   5.340
10770TIP3    H132267   7.938   6.545   5.259
10770TIP3    H232268   7.982   6.434   5.353
10771TIP3   OH232269   0.687   4.293   6.232
10771TIP3    H132270   0.603   4.248   6.226
10771TIP3    H232271   0.666   4.381   6.264
10772TIP3   OH232272   0.890   0.396   1.289
10772TIP3    H132273   0.811   0.408   1.236
10772TIP3    H232274   0.874   0.317   1.340
10773TIP3   OH232275   3.849   3.968   0.069
10773TIP3    H132276   3.832   3.892   0.125
10773TIP3    H232277   3.861   4.040   0.131
10774TIP3   OH232278   4.066   4.646   1.450
10774TIP3    H132279   4.153   4.625   1.416
10774TIP3    H232280   4.011   4.574   1.420
10775TIP3   OH232281   2.687   0.734   4.407
10775TIP3    H132282   2.709   0.669   4.340
10775TIP3    H232283   2.599   0.709   4.436
10776TIP3   OH232284   2.095   7.347   2.867
10776TIP3    H132285   2.128   7.436   2.878
10776TIP3    H232286   2.172   7.291   2.880
10777TIP3   OH232287   7.765   3.787   0.889
10777TIP3    H132288   7.813   3.744   0.819
10777TIP3    H232289   7.762   3.722   0.959
10778TIP3   OH232290   8.094   2.244   0.846
10778TIP3    H132291   8.082   2.149   0.853
10778TIP3    H232292   8.181   2.255   0.809
10779TIP3   OH232293   7.973   2.396   0.458
10779TIP3    H132294   7.922   2.469   0.493
10779TIP3    H232295   7.952   2.322   0.516
10780TIP3   OH232296   2.658   5.528   5.803
10780TIP3    H132297   2.577   5.574   5.824
10780TIP3    H232298   2.628   5.443   5.771
10781TIP3   OH232299   0.848   7.749   3.340
10781TIP3    H132300   0.918   7.814   3.339
10781TIP3    H232301   0.787   7.779   3.272
10782TIP3   OH232302   6.653   5.341   5.512
10782TIP3    H132303   6.698   5.281   5.571
10782TIP3    H232304   6.677   5.429   5.544
10783TIP3   OH232305   5.667   7.111   4.101
10783TIP3    H132306   5.754   7.150   4.101
10783TIP3    H232307   5.677   7.030   4.051
10784TIP3   OH232308   4.113   1.745   0.650
10784TIP3    H132309   4.167   1.734   0.728
10784TIP3    H232310   4.148   1.681   0.588
10785TIP3   OH232311   1.401   4.054   5.802
10785TIP3    H132312   1.337   4.001   5.755
10785TIP3    H232313   1.485   4.029   5.764
10786TIP3   OH232314   5.572   6.714   1.300
10786TIP3    H132315   5.618   6.635   1.328
10786TIP3    H232316   5.516   6.684   1.228
10787TIP3   OH232317   7.857   7.367   4.707
10787TIP3    H132318   7.782   7.308   4.693
10787TIP3    H232319   7.933   7.309   4.707
10788TIP3   OH232320   4.585   5.506   5.456
10788TIP3    H132321   4.618   5.453   5.383
10788TIP3    H232322   4.600   5.452   5.533
10789TIP3   OH232323   3.143   0.482   5.433
10789TIP3    H132324   3.193   0.507   5.510
10789TIP3    H232325   3.155   0.388   5.424
10790TIP3   OH232326   4.819   4.260   2.162
10790TIP3    H132327   4.839   4.281   2.254
10790TIP3    H232328   4.897   4.217   2.129
10791TIP3   OH232329   1.128   1.209   2.265
10791TIP3    H132330   1.219   1.221   2.239
10791TIP3    H232331   1.129   1.219   2.361
10792TIP3   OH232332   8.319   4.547   4.878
10792TIP3    H132333   8.355   4.523   4.792
10792TIP3    H232334   8.238   4.497   4.884
10793TIP3   OH232335   1.477   0.571   4.560
10793TIP3    H132336   1.513   0.618   4.486
10793TIP3    H232337   1.423   0.502   4.521
10794TIP3   OH232338   6.931   2.893   3.116
10794TIP3    H132339   6.954   2.887   3.209
10794TIP3    H232340   6.967   2.813   3.078
10795TIP3   OH232341   1.654   7.382   0.855
10795TIP3    H132342   1.727   7.424   0.810
10795TIP3    H232343   1.621   7.317   0.793
10796TIP3   OH232344   6.517   4.332   4.475
10796TIP3    H132345   6.453   4.282   4.526
10796TIP3    H232346   6.517   4.291   4.389
10797TIP3   OH232347   3.536   0.637   1.933
10797TIP3    H132348   3.486   0.610   1.857
10797TIP3    H232349   3.537   0.733   1.928
10798TIP3   OH232350   6.711   0.506   0.857
10798TIP3    H132351   6.657   0.438   0.817
10798TIP3    H232352   6.766   0.538   0.784
10799TIP3   OH232353   4.707   3.765   5.999
10799TIP3    H132354   4.684   3.684   5.953
10799TIP3    H232355   4.777   3.738   6.060
10800TIP3   OH232356   4.878   5.040   6.378
10800TIP3    H132357   4.811   5.058   6.444
10800TIP3    H232358   4.835   4.982   6.315
10801TIP3   OH232359   3.147   7.751   4.712
10801TIP3    H132360   3.098   7.670   4.729
10801TIP3    H232361   3.233   7.721   4.682
10802TIP3   OH232362   0.331   7.601   4.851
10802TIP3    H132363   0.369   7.689   4.854
10802TIP3    H232364   0.323   7.583   4.757
10803TIP3   OH232365   4.664   3.229   1.811
10803TIP3    H132366   4.679   3.273   1.895
10803TIP3    H232367   4.578   3.187   1.822
10804TIP3   OH232368   2.203   2.461   2.933
10804TIP3    H132369   2.207   2.372   2.897
10804TIP3    H232370   2.177   2.449   3.024
10805TIP3   OH232371   3.506   2.140   3.687
10805TIP3    H132372   3.556   2.092   3.753
10805TIP3    H232373   3.448   2.197   3.737
10806TIP3   OH232374   0.079   0.280   0.461
10806TIP3    H132375  -0.006   0.242   0.439
10806TIP3    H232376   0.123   0.291   0.377
10807TIP3   OH232377   3.670   0.987   0.658
10807TIP3    H132378   3.576   0.972   0.645
10807TIP3    H232379   3.693   1.055   0.594
10808TIP3   OH232380   5.848   5.463   5.457
10808TIP3    H132381   5.755   5.453   5.475
10808TIP3    H232382   5.891   5.438   5.539
10809TIP3   OH232383   0.779   3.206   5.150
10809TIP3    H132384   0.758   3.195   5.058
10809TIP3    H232385   0.707   3.258   5.186
10810TIP3   OH232386   0.208   6.235   1.702
10810TIP3    H132387   0.196   6.154   1.651
10810TIP3    H232388   0.240   6.204   1.787
10811TIP3   OH232389   2.948   7.280   4.662
10811TIP3    H132390   2.932   7.231   4.582
10811TIP3    H232391   2.873   7.260   4.718
10812TIP3   OH232392   0.902   7.076   3.268
10812TIP3    H132393   0.964   7.011   3.232
10812TIP3    H232394   0.891   7.139   3.198
10813TIP3   OH232395   2.952   5.904   6.421
10813TIP3    H132396   2.982   5.989   6.454
10813TIP3    H232397   3.025   5.845   6.439
10814TIP3   OH232398   1.064   3.894   0.850
10814TIP3    H132399   1.063   3.837   0.773
10814TIP3    H232400   1.003   3.964   0.829
10815TIP3   OH232401   5.106   1.860   4.987
10815TIP3    H132402   5.149   1.920   4.927
10815TIP3    H232403   5.124   1.773   4.951
10816TIP3   OH232404   5.901   2.268   0.313
10816TIP3    H132405   5.930   2.223   0.233
10816TIP3    H232406   5.982   2.301   0.352
10817TIP3   OH232407   2.669   3.884   1.738
10817TIP3    H132408   2.670   3.964   1.686
10817TIP3    H232409   2.610   3.825   1.691
10818TIP3   OH232410   6.123   0.397   1.147
10818TIP3    H132411   6.028   0.397   1.132
10818TIP3    H232412   6.160   0.394   1.059
10819TIP3   OH232413   5.102   0.323   4.984
10819TIP3    H132414   5.134   0.380   5.054
10819TIP3    H232415   5.115   0.373   4.904
10820TIP3   OH232416   0.959   2.388   5.465
10820TIP3    H132417   0.904   2.344   5.530
10820TIP3    H232418   0.956   2.331   5.388
10821TIP3   OH232419   4.973   2.573   4.906
10821TIP3    H132420   4.911   2.626   4.956
10821TIP3    H232421   5.059   2.608   4.929
10822TIP3   OH232422   2.009   2.639  -0.005
10822TIP3    H132423   1.939   2.575   0.005
10822TIP3    H232424   2.088   2.587  -0.017
10823TIP3   OH232425   1.847   0.564   1.437
10823TIP3    H132426   1.772   0.521   1.396
10823TIP3    H232427   1.822   0.656   1.443
10824TIP3   OH232428   6.430   0.639   2.450
10824TIP3    H132429   6.360   0.622   2.387
10824TIP3    H232430   6.389   0.691   2.519
10825TIP3   OH232431   0.122   6.747   5.119
10825TIP3    H132432   0.088   6.836   5.128
10825TIP3    H232433   0.067   6.694   5.176
10826TIP3   OH232434   4.113   0.263   3.594
10826TIP3    H132435   4.205   0.282   3.614
10826TIP3    H232436   4.066   0.285   3.675
10827TIP3   OH232437   4.730   3.579   4.782
10827TIP3    H132438   4.672   3.625   4.721
10827TIP3    H232439   4.720   3.486   4.759
10828TIP3   OH232440   7.432   5.524   1.476
10828TIP3    H132441   7.412   5.439   1.438
10828TIP3    H232442   7.508   5.555   1.427
10829TIP3   OH232443   7.486   1.243   0.365
10829TIP3    H132444   7.500   1.150   0.378
10829TIP3    H232445   7.401   1.249   0.321
10830TIP3   OH232446   2.874   1.496   4.343
10830TIP3    H132447   2.861   1.414   4.391
10830TIP3    H232448   2.791   1.543   4.352
10831TIP3   OH232449   3.796   6.768   1.335
10831TIP3    H132450   3.862   6.823   1.377
10831TIP3    H232451   3.729   6.756   1.402
10832TIP3   OH232452   5.185   0.429   1.626
10832TIP3    H132453   5.216   0.373   1.554
10832TIP3    H232454   5.169   0.514   1.585
10833TIP3   OH232455   4.381   1.225   2.696
10833TIP3    H132456   4.347   1.138   2.718
10833TIP3    H232457   4.358   1.279   2.772
10834TIP3   OH232458   1.222   0.282   1.001
10834TIP3    H132459   1.136   0.286   0.959
10834TIP3    H232460   1.221   0.354   1.064
10835TIP3   OH232461   1.934   0.577   0.455
10835TIP3    H132462   1.986   0.499   0.437
10835TIP3    H232463   1.946   0.593   0.548
10836TIP3   OH232464   3.701   4.561   1.243
10836TIP3    H132465   3.661   4.526   1.163
10836TIP3    H232466   3.682   4.495   1.310
10837TIP3   OH232467   2.878   2.614   5.050
10837TIP3    H132468   2.878   2.710   5.045
10837TIP3    H232469   2.970   2.590   5.037
10838TIP3   OH232470   8.099   1.139   1.520
10838TIP3    H132471   8.116   1.047   1.502
10838TIP3    H232472   8.005   1.144   1.538
10839TIP3   OH232473   1.839   2.213   0.170
10839TIP3    H132474   1.829   2.179   0.259
10839TIP3    H232475   1.857   2.136   0.116
10840TIP3   OH232476   6.492   5.021   0.978
10840TIP3    H132477   6.532   5.072   0.908
10840TIP3    H232478   6.425   5.079   1.014
10841TIP3   OH232479   3.658   3.612   6.569
10841TIP3    H132480   3.564   3.601   6.553
10841TIP3    H232481   3.686   3.528   6.605
10842TIP3   OH232482   4.248   3.873   6.256
10842TIP3    H132483   4.189   3.832   6.319
10842TIP3    H232484   4.322   3.902   6.309
10843TIP3   OH232485   7.299   3.017   2.538
10843TIP3    H132486   7.266   3.072   2.609
10843TIP3    H232487   7.341   2.943   2.583
10844TIP3   OH232488   2.919   4.727   5.153
10844TIP3    H132489   2.911   4.820   5.132
10844TIP3    H232490   2.960   4.689   5.075
10845TIP3   OH232491   6.382   4.110   0.720
10845TIP3    H132492   6.423   4.152   0.645
10845TIP3    H232493   6.367   4.182   0.782
10846TIP3   OH232494   6.693   3.927   1.436
10846TIP3    H132495   6.744   3.901   1.513
10846TIP3    H232496   6.743   3.892   1.362
10847TIP3   OH232497   6.835   5.198   0.819
10847TIP3    H132498   6.892   5.252   0.764
10847TIP3    H232499   6.870   5.207   0.907
10848TIP3   OH232500   7.692   5.140   1.933
10848TIP3    H132501   7.772   5.192   1.922
10848TIP3    H232502   7.686   5.124   2.027
10849TIP3   OH232503   7.700   6.214   4.797
10849TIP3    H132504   7.647   6.247   4.724
10849TIP3    H232505   7.636   6.184   4.861
10850TIP3   OH232506   2.992   6.102   3.878
10850TIP3    H132507   2.907   6.062   3.861
10850TIP3    H232508   3.021   6.063   3.961
10851TIP3   OH232509   0.145   5.266   3.609
10851TIP3    H132510   0.053   5.246   3.628
10851TIP3    H232511   0.186   5.180   3.597
10852TIP3   OH232512   0.086   7.410   1.294
10852TIP3    H132513   0.049   7.467   1.228
10852TIP3    H232514   0.033   7.330   1.289
10853TIP3   OH232515   7.861   7.052   5.656
10853TIP3    H132516   7.774   7.093   5.661
10853TIP3    H232517   7.921   7.125   5.644
10854TIP3   OH232518   6.056   7.083   5.023
10854TIP3    H132519   6.072   7.059   5.114
10854TIP3    H232520   5.987   7.148   5.028
10855TIP3   OH232521   6.394   7.196   0.158
10855TIP3    H132522   6.412   7.282   0.120
10855TIP3    H232523   6.339   7.151   0.093
10856TIP3   OH232524   7.666   3.905   4.020
10856TIP3    H132525   7.592   3.879   3.965
10856TIP3    H232526   7.690   3.825   4.067
10857TIP3   OH232527   8.235   7.541   4.284
10857TIP3    H132528   8.232   7.607   4.353
10857TIP3    H232529   8.240   7.592   4.202
10858TIP3   OH232530   0.255   1.304   2.194
10858TIP3    H132531   0.334   1.301   2.140
10858TIP3    H232532   0.226   1.213   2.198
10859TIP3   OH232533   3.212   4.588   4.134
10859TIP3    H132534   3.297   4.606   4.174
10859TIP3    H232535   3.149   4.637   4.188
10860TIP3   OH232536   4.325   6.524   0.204
10860TIP3    H132537   4.275   6.457   0.249
10860TIP3    H232538   4.376   6.477   0.138
10861TIP3   OH232539   2.124   5.121   1.328
10861TIP3    H132540   2.154   5.064   1.399
10861TIP3    H232541   2.056   5.070   1.284
10862TIP3   OH232542   3.892   5.017   6.156
10862TIP3    H132543   3.968   4.960   6.142
10862TIP3    H232544   3.827   4.986   6.093
10863TIP3   OH232545   4.605   3.469   4.185
10863TIP3    H132546   4.513   3.466   4.210
10863TIP3    H232547   4.606   3.448   4.092
10864TIP3   OH232548   4.954   0.281   4.114
10864TIP3    H132549   5.045   0.295   4.086
10864TIP3    H232550   4.910   0.245   4.037
10865TIP3   OH232551   1.677   5.940   4.941
10865TIP3    H132552   1.725   6.022   4.934
10865TIP3    H232553   1.721   5.881   4.880
10866TIP3   OH232554   7.852   0.574   6.518
10866TIP3    H132555   7.815   0.661   6.501
10866TIP3    H232556   7.879   0.576   6.610
10867TIP3   OH232557   6.482   6.531   1.571
10867TIP3    H132558   6.473   6.581   1.490
10867TIP3    H232559   6.397   6.489   1.583
10868TIP3   OH232560   3.794   4.444   1.748
10868TIP3    H132561   3.830   4.409   1.830
10868TIP3    H232562   3.801   4.539   1.759
10869TIP3   OH232563   1.235   1.169   5.011
10869TIP3    H132564   1.321   1.126   5.007
10869TIP3    H232565   1.185   1.116   5.073
10870TIP3   OH232566   0.506   1.210   2.426
10870TIP3    H132567   0.587   1.238   2.383
10870TIP3    H232568   0.450   1.287   2.423
10871TIP3   OH232569   2.496   3.868   5.650
10871TIP3    H132570   2.555   3.801   5.684
10871TIP3    H232571   2.450   3.901   5.727
10872TIP3   OH232572   6.003   6.762   2.789
10872TIP3    H132573   6.052   6.687   2.756
10872TIP3    H232574   5.915   6.751   2.752
10873TIP3   OH232575   4.396   5.100   2.464
10873TIP3    H132576   4.484   5.136   2.479
10873TIP3    H232577   4.408   5.006   2.470
10874TIP3   OH232578   2.063   3.062   2.064
10874TIP3    H132579   2.134   3.059   2.128
10874TIP3    H232580   2.023   3.147   2.076
10875TIP3   OH232581   1.180   1.639   5.855
10875TIP3    H132582   1.143   1.557   5.820
10875TIP3    H232583   1.105   1.684   5.894
10876TIP3   OH232584   4.219   3.283   2.927
10876TIP3    H132585   4.291   3.295   2.989
10876TIP3    H232586   4.230   3.354   2.864
10877TIP3   OH232587   3.172   5.816   4.443
10877TIP3    H132588   3.114   5.867   4.387
10877TIP3    H232589   3.259   5.829   4.405
10878TIP3   OH232590   5.186   4.599   5.141
10878TIP3    H132591   5.177   4.537   5.069
10878TIP3    H232592   5.155   4.682   5.105
10879TIP3   OH232593   7.023   3.054   2.831
10879TIP3    H132594   7.026   2.971   2.783
10879TIP3    H232595   6.953   3.043   2.895
10880TIP3   OH232596   1.411   5.753   0.807
10880TIP3    H132597   1.423   5.819   0.739
10880TIP3    H232598   1.317   5.736   0.809
10881TIP3   OH232599   0.678   4.903   1.205
10881TIP3    H132600   0.684   4.840   1.133
10881TIP3    H232601   0.734   4.866   1.273
10882TIP3   OH232602   0.006   3.474   2.460
10882TIP3    H132603   0.016   3.507   2.370
10882TIP3    H232604  -0.049   3.397   2.452
10883TIP3   OH232605   5.302   2.152   2.420
10883TIP3    H132606   5.396   2.136   2.404
10883TIP3    H232607   5.261   2.134   2.335
10884TIP3   OH232608   1.773   7.438   0.608
10884TIP3    H132609   1.733   7.353   0.589
10884TIP3    H232610   1.706   7.502   0.588
10885TIP3   OH232611   1.841   5.210   1.432
10885TIP3    H132612   1.866   5.269   1.503
10885TIP3    H232613   1.897   5.236   1.358
10886TIP3   OH232614   8.038   4.969   2.968
10886TIP3    H132615   7.993   5.001   3.046
10886TIP3    H232616   7.980   4.903   2.931
10887TIP3   OH232617   8.064   3.174   0.890
10887TIP3    H132618   8.061   3.083   0.921
10887TIP3    H232619   8.072   3.167   0.795
10888TIP3   OH232620   8.328   6.769   1.438
10888TIP3    H132621   8.276   6.692   1.461
10888TIP3    H232622   8.419   6.738   1.440
10889TIP3   OH232623   1.461   3.809   4.854
10889TIP3    H132624   1.509   3.782   4.932
10889TIP3    H232625   1.383   3.851   4.887
10890TIP3   OH232626   0.375   5.130   6.490
10890TIP3    H132627   0.422   5.198   6.538
10890TIP3    H232628   0.394   5.148   6.398
10891TIP3   OH232629   5.278   0.490   2.722
10891TIP3    H132630   5.211   0.506   2.788
10891TIP3    H232631   5.247   0.413   2.674
10892TIP3   OH232632   3.216   1.151   3.518
10892TIP3    H132633   3.192   1.178   3.607
10892TIP3    H232634   3.149   1.190   3.462
10893TIP3   OH232635   1.309   0.303   2.712
10893TIP3    H132636   1.232   0.291   2.657
10893TIP3    H232637   1.286   0.262   2.795
10894TIP3   OH232638   0.334   6.022   0.683
10894TIP3    H132639   0.267   6.078   0.643
10894TIP3    H232640   0.293   5.936   0.689
10895TIP3   OH232641   6.336   3.787   0.619
10895TIP3    H132642   6.400   3.851   0.588
10895TIP3    H232643   6.254   3.837   0.628
10896TIP3   OH232644   5.501   4.145   0.344
10896TIP3    H132645   5.484   4.144   0.438
10896TIP3    H232646   5.507   4.238   0.322
10897TIP3   OH232647   6.481   4.600   3.202
10897TIP3    H132648   6.430   4.681   3.196
10897TIP3    H232649   6.572   4.628   3.197
10898TIP3   OH232650   6.009   0.513   4.021
10898TIP3    H132651   6.028   0.427   4.059
10898TIP3    H232652   5.943   0.496   3.954
10899TIP3   OH232653   3.546   4.453   3.186
10899TIP3    H132654   3.454   4.475   3.176
10899TIP3    H232655   3.577   4.437   3.096
10900TIP3   OH232656   6.145   2.225   2.515
10900TIP3    H132657   6.125   2.153   2.576
10900TIP3    H232658   6.180   2.295   2.571
10901TIP3   OH232659   2.647   7.594   3.132
10901TIP3    H132660   2.580   7.661   3.146
10901TIP3    H232661   2.724   7.643   3.103
10902TIP3   OH232662   0.390   4.319   6.172
10902TIP3    H132663   0.416   4.379   6.102
10902TIP3    H232664   0.411   4.367   6.253
10903TIP3   OH232665   2.184   7.115   3.197
10903TIP3    H132666   2.150   7.043   3.144
10903TIP3    H232667   2.133   7.191   3.169
10904TIP3   OH232668   2.135   4.274   3.152
10904TIP3    H132669   2.062   4.214   3.167
10904TIP3    H232670   2.204   4.219   3.116
10905TIP3   OH232671   8.303   2.352   3.670
10905TIP3    H132672   8.308   2.402   3.751
10905TIP3    H232673   8.279   2.416   3.604
10906TIP3   OH232674   4.757   4.897   5.268
10906TIP3    H132675   4.762   4.808   5.301
10906TIP3    H232676   4.743   4.887   5.174
10907TIP3   OH232677   5.992   3.346   4.792
10907TIP3    H132678   5.907   3.361   4.832
10907TIP3    H232679   6.013   3.255   4.812
10908TIP3   OH232680   7.635   6.383   3.566
10908TIP3    H132681   7.660   6.383   3.474
10908TIP3    H232682   7.717   6.390   3.614
10909TIP3   OH232683   4.715   3.038   0.294
10909TIP3    H132684   4.706   2.982   0.217
10909TIP3    H232685   4.745   3.122   0.259
10910TIP3   OH232686   0.127   2.114   1.105
10910TIP3    H132687   0.058   2.048   1.109
10910TIP3    H232688   0.190   2.087   1.172
10911TIP3   OH232689   5.728   3.620   6.473
10911TIP3    H132690   5.759   3.700   6.516
10911TIP3    H232691   5.723   3.643   6.380
10912TIP3   OH232692   6.562   7.366   2.049
10912TIP3    H132693   6.576   7.271   2.044
10912TIP3    H232694   6.467   7.377   2.042
10913TIP3   OH232695   7.016   4.572   6.075
10913TIP3    H132696   7.004   4.542   6.165
10913TIP3    H232697   7.111   4.579   6.064
10914TIP3   OH232698   7.623   1.790   5.449
10914TIP3    H132699   7.532   1.808   5.422
10914TIP3    H232700   7.624   1.697   5.469
10915TIP3   OH232701   3.361   1.861   0.742
10915TIP3    H132702   3.365   1.954   0.718
10915TIP3    H232703   3.286   1.827   0.695
10916TIP3   OH232704   6.785   2.856   1.890
10916TIP3    H132705   6.759   2.818   1.807
10916TIP3    H232706   6.881   2.847   1.892
10917TIP3   OH232707   7.830   1.986   1.911
10917TIP3    H132708   7.866   1.977   1.999
10917TIP3    H232709   7.832   2.080   1.893
10918TIP3   OH232710   0.542   2.458   2.977
10918TIP3    H132711   0.560   2.393   2.910
10918TIP3    H232712   0.609   2.442   3.045
10919TIP3   OH232713   3.138   0.892   3.048
10919TIP3    H132714   3.102   0.895   2.959
10919TIP3    H232715   3.121   0.979   3.084
10920TIP3   OH232716   6.587   6.885   2.945
10920TIP3    H132717   6.518   6.865   3.008
10920TIP3    H232718   6.666   6.898   2.998
10921TIP3   OH232719   3.271   4.909   3.236
10921TIP3    H132720   3.260   4.899   3.330
10921TIP3    H232721   3.363   4.933   3.224
10922TIP3   OH232722   4.507   4.573   1.484
10922TIP3    H132723   4.480   4.665   1.481
10922TIP3    H232724   4.443   4.528   1.430
10923TIP3   OH232725   1.391   7.000   2.346
10923TIP3    H132726   1.365   7.030   2.259
10923TIP3    H232727   1.443   6.921   2.330
10924TIP3   OH232728   4.303   6.840   1.435
10924TIP3    H132729   4.247   6.880   1.501
10924TIP3    H232730   4.383   6.892   1.436
10925TIP3   OH232731   6.256   6.215   4.008
10925TIP3    H132732   6.220   6.163   4.080
10925TIP3    H232733   6.350   6.210   4.020
10926TIP3   OH232734   7.029   4.065   3.873
10926TIP3    H132735   6.975   4.057   3.952
10926TIP3    H232736   7.018   3.981   3.828
10927TIP3   OH232737   4.849   3.319   0.474
10927TIP3    H132738   4.852   3.232   0.516
10927TIP3    H232739   4.833   3.300   0.382
10928TIP3   OH232740   2.366   1.455   5.827
10928TIP3    H132741   2.296   1.492   5.880
10928TIP3    H232742   2.352   1.360   5.831
10929TIP3   OH232743   7.443   1.715   2.327
10929TIP3    H132744   7.399   1.688   2.247
10929TIP3    H232745   7.475   1.634   2.367
10930TIP3   OH232746   0.480   7.730   5.190
10930TIP3    H132747   0.547   7.665   5.210
10930TIP3    H232748   0.502   7.762   5.103
10931TIP3   OH232749   0.006   4.781   3.712
10931TIP3    H132750  -0.071   4.747   3.667
10931TIP3    H232751   0.056   4.704   3.738
10932TIP3   OH232752   5.855   2.838   5.219
10932TIP3    H132753   5.762   2.828   5.200
10932TIP3    H232754   5.885   2.750   5.241
10933TIP3   OH232755   5.602   7.247   0.662
10933TIP3    H132756   5.673   7.183   0.660
10933TIP3    H232757   5.633   7.319   0.607
10934TIP3   OH232758   5.634   4.289   2.769
10934TIP3    H132759   5.593   4.299   2.683
10934TIP3    H232760   5.688   4.367   2.779
10935TIP3   OH232761   3.253   1.661   4.618
10935TIP3    H132762   3.313   1.715   4.566
10935TIP3    H232763   3.311   1.609   4.673
10936TIP3   OH232764   5.390   5.358   0.147
10936TIP3    H132765   5.465   5.386   0.199
10936TIP3    H232766   5.369   5.271   0.180
10937TIP3   OH232767   5.147   1.640   4.760
10937TIP3    H132768   5.226   1.673   4.719
10937TIP3    H232769   5.076   1.693   4.722
10938TIP3   OH232770   1.473   1.691   2.375
10938TIP3    H132771   1.409   1.758   2.397
10938TIP3    H232772   1.502   1.655   2.459
10939TIP3   OH232773   6.670   0.245   1.712
10939TIP3    H132774   6.717   0.164   1.733
10939TIP3    H232775   6.578   0.225   1.728
10940TIP3   OH232776   7.876   5.592   2.352
10940TIP3    H132777   7.789   5.559   2.332
10940TIP3    H232778   7.923   5.516   2.387
10941TIP3   OH232779   1.624   5.073   2.719
10941TIP3    H132780   1.630   5.139   2.788
10941TIP3    H232781   1.674   5.109   2.646
10942TIP3   OH232782   7.434   4.900   2.274
10942TIP3    H132783   7.367   4.882   2.209
10942TIP3    H232784   7.418   4.837   2.344
10943TIP3   OH232785   1.244   4.033   0.552
10943TIP3    H132786   1.206   4.100   0.608
10943TIP3    H232787   1.333   4.021   0.587
10944TIP3   OH232788   7.673   4.362   0.867
10944TIP3    H132789   7.730   4.301   0.915
10944TIP3    H232790   7.590   4.317   0.861
10945TIP3   OH232791   2.764   6.535   3.141
10945TIP3    H132792   2.753   6.533   3.236
10945TIP3    H232793   2.675   6.547   3.107
10946TIP3   OH232794   6.907   1.318   1.747
10946TIP3    H132795   6.905   1.243   1.687
10946TIP3    H232796   6.902   1.394   1.689
10947TIP3   OH232797   5.232   1.215   1.433
10947TIP3    H132798   5.137   1.208   1.448
10947TIP3    H232799   5.266   1.129   1.458
10948TIP3   OH232800   6.921   5.197   1.123
10948TIP3    H132801   6.835   5.159   1.140
10948TIP3    H232802   6.980   5.121   1.122
10949TIP3   OH232803   3.821   5.852   2.370
10949TIP3    H132804   3.901   5.906   2.372
10949TIP3    H232805   3.800   5.836   2.462
10950TIP3   OH232806   5.965   7.848   6.377
10950TIP3    H132807   5.957   7.827   6.284
10950TIP3    H232808   5.956   7.764   6.422
10951TIP3   OH232809   4.966   7.453   4.840
10951TIP3    H132810   5.045   7.433   4.890
10951TIP3    H232811   4.976   7.403   4.758
10952TIP3   OH232812   6.767   6.491   0.294
10952TIP3    H132813   6.807   6.412   0.259
10952TIP3    H232814   6.677   6.467   0.313
10953TIP3   OH232815   1.839   0.836   4.754
10953TIP3    H132816   1.891   0.876   4.823
10953TIP3    H232817   1.884   0.859   4.673
10954TIP3   OH232818   8.128   5.812   3.120
10954TIP3    H132819   8.086   5.857   3.194
10954TIP3    H232820   8.110   5.867   3.044
10955TIP3   OH232821   4.298   5.188   3.104
10955TIP3    H132822   4.303   5.173   3.009
10955TIP3    H232823   4.296   5.101   3.142
10956TIP3   OH232824   6.542   6.672   2.553
10956TIP3    H132825   6.488   6.710   2.485
10956TIP3    H232826   6.485   6.667   2.630
10957TIP3   OH232827   1.911   7.646   0.442
10957TIP3    H132828   1.889   7.565   0.487
10957TIP3    H232829   1.908   7.713   0.510
10958TIP3   OH232830   1.766   6.368   0.717
10958TIP3    H132831   1.723   6.328   0.793
10958TIP3    H232832   1.735   6.317   0.642
10959TIP3   OH232833   4.437   2.689   1.352
10959TIP3    H132834   4.530   2.695   1.375
10959TIP3    H232835   4.392   2.730   1.425
10960TIP3   OH232836   5.218   7.378   3.425
10960TIP3    H132837   5.281   7.335   3.482
10960TIP3    H232838   5.209   7.466   3.460
10961TIP3   OH232839   7.498   6.743   3.452
10961TIP3    H132840   7.483   6.693   3.372
10961TIP3    H232841   7.542   6.823   3.423
10962TIP3   OH232842   6.185   6.203   2.708
10962TIP3    H132843   6.177   6.131   2.770
10962TIP3    H232844   6.095   6.226   2.685
10963TIP3   OH232845   0.829   7.276   2.436
10963TIP3    H132846   0.851   7.223   2.359
10963TIP3    H232847   0.734   7.273   2.440
10964TIP3   OH232848   2.491   6.591   5.814
10964TIP3    H132849   2.574   6.564   5.852
10964TIP3    H232850   2.454   6.653   5.877
10965TIP3   OH232851   3.794   5.456   6.375
10965TIP3    H132852   3.875   5.494   6.343
10965TIP3    H232853   3.813   5.362   6.385
10966TIP3   OH232854   7.901   4.986   4.113
10966TIP3    H132855   7.942   4.901   4.130
10966TIP3    H232856   7.833   4.993   4.180
10967TIP3   OH232857   8.117   3.163   1.925
10967TIP3    H132858   8.122   3.136   1.833
10967TIP3    H232859   8.025   3.155   1.948
10968TIP3   OH232860   1.115   4.421   5.416
10968TIP3    H132861   1.055   4.353   5.447
10968TIP3    H232862   1.202   4.385   5.432
10969TIP3   OH232863   6.289   3.203   0.265
10969TIP3    H132864   6.224   3.154   0.315
10969TIP3    H232865   6.319   3.271   0.324
10970TIP3   OH232866   6.492   1.671   3.484
10970TIP3    H132867   6.542   1.735   3.535
10970TIP3    H232868   6.439   1.723   3.424
10971TIP3   OH232869   2.610   4.873   0.155
10971TIP3    H132870   2.540   4.907   0.100
10971TIP3    H232871   2.578   4.788   0.184
10972TIP3   OH232872   5.220   7.845   2.751
10972TIP3    H132873   5.150   7.783   2.730
10972TIP3    H232874   5.191   7.888   2.831
10973TIP3   OH232875   1.324   1.463   4.748
10973TIP3    H132876   1.358   1.521   4.816
10973TIP3    H232877   1.234   1.445   4.774
10974TIP3   OH232878   0.642   2.186   0.799
10974TIP3    H132879   0.639   2.092   0.782
10974TIP3    H232880   0.564   2.202   0.852
10975TIP3   OH232881   4.659   4.564   4.118
10975TIP3    H132882   4.712   4.602   4.188
10975TIP3    H232883   4.678   4.619   4.042
10976TIP3   OH232884   4.670   2.598   1.464
10976TIP3    H132885   4.650   2.521   1.517
10976TIP3    H232886   4.760   2.620   1.487
10977TIP3   OH232887   2.358   5.930   4.550
10977TIP3    H132888   2.346   5.845   4.507
10977TIP3    H232889   2.451   5.949   4.539
10978TIP3   OH232890   4.790   6.763  -0.029
10978TIP3    H132891   4.738   6.735  -0.105
10978TIP3    H232892   4.734   6.745   0.046
10979TIP3   OH232893   7.773   6.928   1.840
10979TIP3    H132894   7.725   6.876   1.776
10979TIP3    H232895   7.706   6.965   1.897
10980TIP3   OH232896   3.641   1.655   1.858
10980TIP3    H132897   3.699   1.623   1.927
10980TIP3    H232898   3.564   1.597   1.864
10981TIP3   OH232899   3.908   1.181   2.315
10981TIP3    H132900   3.931   1.157   2.225
10981TIP3    H232901   3.888   1.274   2.311
10982TIP3   OH232902   6.424   6.175   1.067
10982TIP3    H132903   6.508   6.129   1.060
10982TIP3    H232904   6.420   6.230   0.989
10983TIP3   OH232905   0.151   5.740   0.038
10983TIP3    H132906   0.089   5.668   0.044
10983TIP3    H232907   0.236   5.700   0.055
10984TIP3   OH232908   2.558   6.872   5.465
10984TIP3    H132909   2.501   6.876   5.388
10984TIP3    H232910   2.548   6.782   5.497
10985TIP3   OH232911   5.448   3.469   6.511
10985TIP3    H132912   5.447   3.461   6.416
10985TIP3    H232913   5.402   3.551   6.529
10986TIP3   OH232914   6.308   5.897   6.480
10986TIP3    H132915   6.384   5.871   6.428
10986TIP3    H232916   6.317   5.992   6.489
10987TIP3   OH232917   8.237   1.267   6.514
10987TIP3    H132918   8.319   1.306   6.543
10987TIP3    H232919   8.240   1.177   6.545
10988TIP3   OH232920   7.879   4.051   5.646
10988TIP3    H132921   7.974   4.053   5.656
10988TIP3    H232922   7.847   4.120   5.704
10989TIP3   OH232923   2.652   2.352   0.758
10989TIP3    H132924   2.660   2.421   0.693
10989TIP3    H232925   2.607   2.281   0.713
10990TIP3   OH232926   2.379   5.291   0.288
10990TIP3    H132927   2.354   5.200   0.272
10990TIP3    H232928   2.344   5.338   0.212
10991TIP3   OH232929   7.519   6.700   6.362
10991TIP3    H132930   7.602   6.654   6.373
10991TIP3    H232931   7.522   6.734   6.273
10992TIP3   OH232932   3.681   0.206   2.987
10992TIP3    H132933   3.629   0.284   2.966
10992TIP3    H232934   3.710   0.174   2.902
10993TIP3   OH232935   2.128   6.868   1.591
10993TIP3    H132936   2.187   6.943   1.601
10993TIP3    H232937   2.053   6.890   1.646
10994TIP3   OH232938   7.437   7.008  -0.029
10994TIP3    H132939   7.528   7.030  -0.008
10994TIP3    H232940   7.385   7.067   0.026
10995TIP3   OH232941   7.514   1.862   3.453
10995TIP3    H132942   7.602   1.884   3.484
10995TIP3    H232943   7.459   1.931   3.490
10996TIP3   OH232944   6.292   7.593   2.856
10996TIP3    H132945   6.299   7.687   2.873
10996TIP3    H232946   6.338   7.552   2.930
10997TIP3   OH232947   3.441   4.467   4.332
10997TIP3    H132948   3.401   4.448   4.417
10997TIP3    H232949   3.414   4.395   4.275
10998TIP3   OH232950   6.125   1.397   3.944
10998TIP3    H132951   6.056   1.398   3.878
10998TIP3    H232952   6.152   1.305   3.949
10999TIP3   OH232953   5.058   6.568   6.157
10999TIP3    H132954   5.095   6.579   6.070
10999TIP3    H232955   4.980   6.623   6.158
11000TIP3   OH232956   4.471   1.215   0.431
11000TIP3    H132957   4.512   1.241   0.349
11000TIP3    H232958   4.463   1.296   0.481
11001TIP3   OH232959   1.508   4.588   4.834
11001TIP3    H132960   1.594   4.625   4.814
11001TIP3    H232961   1.447   4.638   4.780
11002TIP3   OH232962   3.844   7.802   1.457
11002TIP3    H132963   3.857   7.757   1.541
11002TIP3    H232964   3.879   7.890   1.472
11003TIP3   OH232965   2.232   0.813   5.351
11003TIP3    H132966   2.308   0.864   5.379
11003TIP3    H232967   2.163   0.878   5.340
11004TIP3   OH232968   6.193   5.564   2.794
11004TIP3    H132969   6.157   5.486   2.837
11004TIP3    H232970   6.270   5.587   2.845
11005TIP3   OH232971   0.378   5.813   4.419
11005TIP3    H132972   0.421   5.733   4.450
11005TIP3    H232973   0.386   5.874   4.493
11006TIP3   OH232974   7.062   7.194   4.681
11006TIP3    H132975   7.141   7.142   4.695
11006TIP3    H232976   7.008   7.141   4.624
11007TIP3   OH232977   7.620   5.352   4.194
11007TIP3    H132978   7.575   5.294   4.256
11007TIP3    H232979   7.551   5.410   4.162
11008TIP3   OH232980   5.257   4.234   0.205
11008TIP3    H132981   5.225   4.291   0.275
11008TIP3    H232982   5.333   4.190   0.242
11009TIP3   OH232983   2.629   1.387   6.211
11009TIP3    H132984   2.629   1.445   6.135
11009TIP3    H232985   2.560   1.422   6.268
11010TIP3   OH232986   7.943   5.558   4.906
11010TIP3    H132987   7.972   5.646   4.929
11010TIP3    H232988   7.867   5.571   4.850
11011TIP3   OH232989   6.163   0.564   1.602
11011TIP3    H132990   6.163   0.567   1.698
11011TIP3    H232991   6.252   0.590   1.578
11012TIP3   OH232992   4.016   6.737   5.328
11012TIP3    H132993   3.950   6.677   5.362
11012TIP3    H232994   4.073   6.682   5.274
11013TIP3   OH232995   3.645   1.293   3.041
11013TIP3    H132996   3.575   1.313   3.103
11013TIP3    H232997   3.725   1.290   3.094
11014TIP3   OH232998   2.071   4.078   1.716
11014TIP3    H132999   2.121   4.151   1.680
11014TIP3    H233000   1.999   4.120   1.764
11015TIP3   OH233001   2.328   2.827   2.161
11015TIP3    H133002   2.399   2.889   2.175
11015TIP3    H233003   2.253   2.866   2.206
11016TIP3   OH233004   7.653   6.334   1.506
11016TIP3    H133005   7.628   6.403   1.444
11016TIP3    H233006   7.680   6.381   1.584
11017TIP3   OH233007   5.335   4.000   5.534
11017TIP3    H133008   5.353   4.088   5.500
11017TIP3    H233009   5.243   4.003   5.560
11018TIP3   OH233010   5.065   2.583   4.488
11018TIP3    H133011   5.000   2.562   4.420
11018TIP3    H233012   5.141   2.529   4.465
11019TIP3   OH233013   1.403   3.030   5.042
11019TIP3    H133014   1.461   3.032   4.966
11019TIP3    H233015   1.456   3.063   5.114
11020TIP3   OH233016   1.083   3.087   4.012
11020TIP3    H133017   1.085   3.168   4.064
11020TIP3    H233018   1.005   3.041   4.042
11021TIP3   OH233019   6.413   6.663   4.721
11021TIP3    H133020   6.329   6.625   4.749
11021TIP3    H233021   6.440   6.717   4.796
11022TIP3   OH233022   6.237   1.141   1.989
11022TIP3    H133023   6.297   1.188   2.047
11022TIP3    H233024   6.294   1.101   1.923
11023TIP3   OH233025   1.978   7.292   1.857
11023TIP3    H133026   1.973   7.357   1.927
11023TIP3    H233027   1.887   7.281   1.828
11024TIP3   OH233028   3.759   4.307   5.240
11024TIP3    H133029   3.769   4.306   5.335
11024TIP3    H233030   3.688   4.369   5.224
11025TIP3   OH233031   4.085   6.182   1.328
11025TIP3    H133032   4.113   6.129   1.403
11025TIP3    H233033   4.048   6.261   1.367
11026TIP3   OH233034   4.580   5.332   1.926
11026TIP3    H133035   4.569   5.244   1.960
11026TIP3    H233036   4.667   5.359   1.955
11027TIP3   OH233037   5.687   1.189   0.183
11027TIP3    H133038   5.617   1.157   0.240
11027TIP3    H233039   5.643   1.252   0.125
11028TIP3   OH233040   5.374   6.467   0.689
11028TIP3    H133041   5.449   6.494   0.635
11028TIP3    H233042   5.408   6.466   0.778
11029TIP3   OH233043   4.696   6.549   3.126
11029TIP3    H133044   4.619   6.561   3.182
11029TIP3    H233045   4.752   6.489   3.174
11030TIP3   OH233046   5.800   1.952   2.265
11030TIP3    H133047   5.751   1.911   2.194
11030TIP3    H233048   5.883   1.978   2.225
11031TIP3   OH233049   6.019   3.772   6.557
11031TIP3    H133050   6.030   3.677   6.563
11031TIP3    H233051   5.945   3.792   6.615
11032TIP3   OH233052   7.876   3.435   2.839
11032TIP3    H133053   7.841   3.427   2.750
11032TIP3    H233054   7.943   3.503   2.833
11033TIP3   OH233055   3.373   1.495   2.188
11033TIP3    H133056   3.421   1.416   2.162
11033TIP3    H233057   3.310   1.464   2.254
11034TIP3   OH233058   7.363   3.821   1.323
11034TIP3    H133059   7.345   3.728   1.308
11034TIP3    H233060   7.364   3.830   1.418
11035TIP3   OH233061   8.211   3.037   1.686
11035TIP3    H133062   8.235   3.102   1.620
11035TIP3    H233063   8.147   2.982   1.643
11036TIP3   OH233064   5.013   6.933   6.581
11036TIP3    H133065   5.084   6.995   6.600
11036TIP3    H233066   5.055   6.862   6.534
11037TIP3   OH233067   4.231   6.896   2.238
11037TIP3    H133068   4.176   6.819   2.255
11037TIP3    H233069   4.314   6.876   2.282
11038TIP3   OH233070   5.292   2.738   3.793
11038TIP3    H133071   5.220   2.753   3.730
11038TIP3    H233072   5.367   2.716   3.738
11039TIP3   OH233073   5.722   4.820   1.302
11039TIP3    H133074   5.671   4.870   1.239
11039TIP3    H233075   5.662   4.805   1.375
11040TIP3   OH233076   6.497   2.602   1.774
11040TIP3    H133077   6.586   2.636   1.784
11040TIP3    H233078   6.478   2.613   1.681
11041TIP3   OH233079   3.824   2.958   1.115
11041TIP3    H133080   3.851   2.890   1.054
11041TIP3    H233081   3.880   3.033   1.094
11042TIP3   OH233082   1.368   1.687   4.918
11042TIP3    H133083   1.433   1.661   4.984
11042TIP3    H233084   1.336   1.771   4.948
11043TIP3   OH233085   4.730   2.520   6.737
11043TIP3    H133086   4.744   2.431   6.771
11043TIP3    H233087   4.798   2.531   6.671
11044TIP3   OH233088   5.333   5.509   6.361
11044TIP3    H133089   5.414   5.467   6.331
11044TIP3    H233090   5.273   5.499   6.287
11045TIP3   OH233091   6.649   0.585   4.025
11045TIP3    H133092   6.609   0.605   3.940
11045TIP3    H233093   6.687   0.668   4.053
11046TIP3   OH233094   5.521   3.144   4.529
11046TIP3    H133095   5.603   3.148   4.577
11046TIP3    H233096   5.515   3.227   4.482
11047TIP3   OH233097   1.989   1.014   1.526
11047TIP3    H133098   1.914   1.026   1.468
11047TIP3    H233099   2.032   1.100   1.528
11048TIP3   OH233100   2.097   1.048   5.433
11048TIP3    H133101   2.116   1.142   5.423
11048TIP3    H233102   2.134   1.025   5.518
11049TIP3   OH233103   4.238   6.036   6.200
11049TIP3    H133104   4.250   6.131   6.196
11049TIP3    H233105   4.151   6.025   6.238
11050TIP3   OH233106   6.694   4.721   2.899
11050TIP3    H133107   6.650   4.637   2.915
11050TIP3    H233108   6.787   4.702   2.912
11051TIP3   OH233109   6.119   3.783   2.021
11051TIP3    H133110   6.142   3.691   2.011
11051TIP3    H233111   6.175   3.828   1.957
11052TIP3   OH233112   4.114   4.903   2.057
11052TIP3    H133113   4.174   4.919   1.985
11052TIP3    H233114   4.038   4.959   2.039
11053TIP3   OH233115   5.508   2.871   4.491
11053TIP3    H133116   5.506   2.966   4.481
11053TIP3    H233117   5.480   2.855   4.580
11054TIP3   OH233118   7.059   7.396   4.927
11054TIP3    H133119   7.104   7.434   4.851
11054TIP3    H233120   7.019   7.316   4.894
11055TIP3   OH233121   4.861   3.716   1.859
11055TIP3    H133122   4.914   3.656   1.806
11055TIP3    H233123   4.772   3.705   1.826
11056TIP3   OH233124   2.498   0.771   2.120
11056TIP3    H133125   2.553   0.849   2.123
11056TIP3    H233126   2.505   0.740   2.030
11057TIP3   OH233127   5.321   3.067   5.648
11057TIP3    H133128   5.334   2.974   5.667
11057TIP3    H233129   5.395   3.110   5.691
11058TIP3   OH233130   3.770   4.520   3.364
11058TIP3    H133131   3.731   4.537   3.277
11058TIP3    H233132   3.695   4.524   3.424
11059TIP3   OH233133   6.872   2.740   6.567
11059TIP3    H133134   6.886   2.765   6.658
11059TIP3    H233135   6.880   2.645   6.567
11060TIP3   OH233136   7.995   4.317   6.490
11060TIP3    H133137   8.006   4.311   6.585
11060TIP3    H233138   7.906   4.351   6.478
11061TIP3   OH233139   2.827   2.789   0.078
11061TIP3    H133140   2.764   2.791   0.150
11061TIP3    H233141   2.774   2.786  -0.001
11062TIP3   OH233142   1.617   3.166   0.245
11062TIP3    H133143   1.544   3.114   0.211
11062TIP3    H233144   1.688   3.104   0.257
11063TIP3   OH233145   1.165   6.416   0.904
11063TIP3    H133146   1.071   6.421   0.921
11063TIP3    H233147   1.189   6.505   0.878
11064TIP3   OH233148   3.091   4.203   3.873
11064TIP3    H133149   3.077   4.255   3.951
11064TIP3    H233150   3.052   4.118   3.894
11065TIP3   OH233151   6.770   4.710   0.611
11065TIP3    H133152   6.706   4.780   0.598
11065TIP3    H233153   6.820   4.737   0.688
11066TIP3   OH233154   6.070   6.518   6.010
11066TIP3    H133155   6.107   6.554   5.930
11066TIP3    H233156   6.058   6.594   6.068
11067TIP3   OH233157   3.118   3.142   5.949
11067TIP3    H133158   3.181   3.177   5.885
11067TIP3    H233159   3.137   3.049   5.953
11068TIP3   OH233160   1.080   7.375   2.758
11068TIP3    H133161   1.072   7.376   2.663
11068TIP3    H233162   0.991   7.366   2.790
11069TIP3   OH233163   5.714   6.524   0.951
11069TIP3    H133164   5.787   6.479   0.909
11069TIP3    H233165   5.737   6.525   1.044
11070TIP3   OH233166   2.183   6.342   5.190
11070TIP3    H133167   2.256   6.337   5.129
11070TIP3    H233168   2.140   6.425   5.171
11071TIP3   OH233169   6.891   3.651   5.537
11071TIP3    H133170   6.875   3.645   5.631
11071TIP3    H233171   6.965   3.710   5.528
11072TIP3   OH233172   7.193   1.707   5.598
11072TIP3    H133173   7.182   1.616   5.624
11072TIP3    H233174   7.209   1.754   5.680
11073TIP3   OH233175   2.284   1.332   3.969
11073TIP3    H133176   2.230   1.369   3.899
11073TIP3    H233177   2.257   1.241   3.974
11074TIP3   OH233178   6.229   2.701   5.303
11074TIP3    H133179   6.320   2.704   5.274
11074TIP3    H233180   6.193   2.622   5.262
11075TIP3   OH233181   4.696   0.207   2.544
11075TIP3    H133182   4.652   0.253   2.473
11075TIP3    H233183   4.768   0.161   2.501
11076TIP3   OH233184   1.674   6.039   5.682
11076TIP3    H133185   1.724   6.118   5.702
11076TIP3    H233186   1.603   6.039   5.746
11077TIP3   OH233187   2.953   2.020   6.661
11077TIP3    H133188   2.969   2.111   6.687
11077TIP3    H233189   3.024   1.971   6.700
11078TIP3   OH233190   0.183   6.579   6.314
11078TIP3    H133191   0.274   6.577   6.288
11078TIP3    H233192   0.154   6.488   6.309
11079TIP3   OH233193   7.046   6.566   3.043
11079TIP3    H133194   6.960   6.526   3.055
11079TIP3    H233195   7.094   6.541   3.122
11080TIP3   OH233196  -0.006   3.852   3.553
11080TIP3    H133197  -0.005   3.820   3.643
11080TIP3    H233198   0.066   3.915   3.548
11081TIP3   OH233199   3.319   4.622   1.479
11081TIP3    H133200   3.354   4.696   1.429
11081TIP3    H233201   3.393   4.593   1.532
11082TIP3   OH233202   6.583   1.549   1.799
11082TIP3    H133203   6.627   1.579   1.720
11082TIP3    H233204   6.552   1.629   1.841
11083TIP3   OH233205   5.204   0.301   5.388
11083TIP3    H133206   5.120   0.332   5.422
11083TIP3    H233207   5.188   0.211   5.363
11084TIP3   OH233208   1.375   3.013   2.016
11084TIP3    H133209   1.373   3.064   1.935
11084TIP3    H233210   1.431   3.063   2.075
11085TIP3   OH233211   6.385   5.131   3.608
11085TIP3    H133212   6.423   5.214   3.579
11085TIP3    H233213   6.376   5.140   3.703
11086TIP3   OH233214   4.625   2.630   0.967
11086TIP3    H133215   4.699   2.582   0.929
11086TIP3    H233216   4.665   2.708   1.006
11087TIP3   OH233217   1.106   2.455   0.489
11087TIP3    H133218   1.052   2.377   0.503
11087TIP3    H233219   1.185   2.439   0.541
11088TIP3   OH233220   1.516   7.380   4.923
11088TIP3    H133221   1.542   7.326   4.998
11088TIP3    H233222   1.598   7.392   4.874
11089TIP3   OH233223   3.444   3.150   5.905
11089TIP3    H133224   3.444   3.131   5.811
11089TIP3    H233225   3.425   3.065   5.946
11090TIP3   OH233226   2.653   1.248   0.622
11090TIP3    H133227   2.588   1.317   0.610
11090TIP3    H233228   2.672   1.249   0.716
11091TIP3   OH233229   6.676   4.372   1.093
11091TIP3    H133230   6.631   4.292   1.122
11091TIP3    H233231   6.659   4.435   1.162
11092TIP3   OH233232   2.932   2.875   4.936
11092TIP3    H133233   2.955   2.946   4.995
11092TIP3    H233234   2.965   2.902   4.851
11093TIP3   OH233235   6.512   0.083   0.627
11093TIP3    H133236   6.486   0.146   0.694
11093TIP3    H233237   6.445   0.015   0.631
11094TIP3   OH233238   4.607   6.334   5.581
11094TIP3    H133239   4.702   6.328   5.571
11094TIP3    H233240   4.574   6.256   5.535
11095TIP3   OH233241   3.064   3.458   4.847
11095TIP3    H133242   3.138   3.405   4.816
11095TIP3    H233243   3.013   3.477   4.768
11096TIP3   OH233244   6.118   4.598   3.982
11096TIP3    H133245   6.051   4.579   4.047
11096TIP3    H233246   6.070   4.614   3.901
11097TIP3   OH233247   2.007   1.404   1.088
11097TIP3    H133248   2.031   1.313   1.102
11097TIP3    H233249   1.984   1.409   0.995
11098TIP3   OH233250   7.640   5.058   5.089
11098TIP3    H133251   7.672   4.981   5.136
11098TIP3    H233252   7.656   5.131   5.149
11099TIP3   OH233253   5.494   2.523   2.893
11099TIP3    H133254   5.545   2.531   2.813
11099TIP3    H233255   5.467   2.613   2.913
11100TIP3   OH233256   5.061   1.329   1.220
11100TIP3    H133257   5.008   1.320   1.300
11100TIP3    H233258   5.142   1.280   1.240
11101TIP3   OH233259   8.189   4.964   3.891
11101TIP3    H133260   8.100   4.989   3.866
11101TIP3    H233261   8.215   4.899   3.826
11102TIP3   OH233262   0.207   0.382   2.670
11102TIP3    H133263   0.282   0.368   2.727
11102TIP3    H233264   0.143   0.427   2.725
11103TIP3   OH233265   5.408   7.666   2.561
11103TIP3    H133266   5.390   7.756   2.588
11103TIP3    H233267   5.460   7.630   2.633
11104TIP3   OH233268   1.656   4.230   6.311
11104TIP3    H133269   1.668   4.289   6.237
11104TIP3    H233270   1.709   4.153   6.290
11105TIP3   OH233271   1.272   1.860   2.539
11105TIP3    H133272   1.252   1.954   2.532
11105TIP3    H233273   1.188   1.820   2.563
11106TIP3   OH233274   7.169   2.573   4.536
11106TIP3    H133275   7.237   2.575   4.468
11106TIP3    H233276   7.091   2.542   4.492
11107TIP3   OH233277   5.050   3.987   5.558
11107TIP3    H133278   5.014   3.903   5.529
11107TIP3    H233279   4.987   4.052   5.527
11108TIP3   OH233280   6.290   0.280   5.560
11108TIP3    H133281   6.248   0.332   5.491
11108TIP3    H233282   6.304   0.342   5.632
11109TIP3   OH233283   1.160   0.599   1.972
11109TIP3    H133284   1.173   0.505   1.979
11109TIP3    H233285   1.149   0.615   1.878
11110TIP3   OH233286   4.716   1.322   0.874
11110TIP3    H133287   4.811   1.328   0.887
11110TIP3    H233288   4.689   1.413   0.859
11111TIP3   OH233289   4.081   1.163   3.798
11111TIP3    H133290   4.060   1.255   3.811
11111TIP3    H233291   4.010   1.129   3.744
11112TIP3   OH233292   0.178   3.996   2.913
11112TIP3    H133293   0.180   3.994   3.009
11112TIP3    H233294   0.143   4.083   2.892
11113TIP3   OH233295   4.236   2.291   5.723
11113TIP3    H133296   4.312   2.338   5.759
11113TIP3    H233297   4.162   2.349   5.740
11114TIP3   OH233298   4.294   3.597   0.219
11114TIP3    H133299   4.264   3.564   0.304
11114TIP3    H233300   4.215   3.608   0.168
11115TIP3   OH233301   5.634   7.669   1.981
11115TIP3    H133302   5.585   7.607   1.926
11115TIP3    H233303   5.709   7.619   2.012
11116TIP3   OH233304   4.986   7.170   3.451
11116TIP3    H133305   4.911   7.200   3.502
11116TIP3    H233306   5.035   7.250   3.430
11117TIP3   OH233307   6.001   3.668   1.665
11117TIP3    H133308   6.061   3.617   1.610
11117TIP3    H233309   6.057   3.733   1.707
11118TIP3   OH233310   6.709   2.389   6.608
11118TIP3    H133311   6.672   2.354   6.689
11118TIP3    H233312   6.801   2.405   6.628
11119TIP3   OH233313   5.449   2.061   3.567
11119TIP3    H133314   5.399   1.981   3.553
11119TIP3    H233315   5.523   2.054   3.507
11120TIP3   OH233316   2.711   1.960   0.853
11120TIP3    H133317   2.744   2.038   0.898
11120TIP3    H233318   2.789   1.915   0.821
11121TIP3   OH233319   4.452   0.513   4.482
11121TIP3    H133320   4.541   0.523   4.447
11121TIP3    H233321   4.419   0.603   4.488
11122TIP3   OH233322   1.683   0.567   0.830
11122TIP3    H133323   1.763   0.541   0.875
11122TIP3    H233324   1.631   0.613   0.897
11123TIP3   OH233325   7.021   3.120   3.957
11123TIP3    H133326   7.023   3.213   3.937
11123TIP3    H233327   7.102   3.085   3.920
11124TIP3   OH233328   5.389   6.882   6.427
11124TIP3    H133329   5.359   6.805   6.379
11124TIP3    H233330   5.478   6.898   6.395
11125TIP3   OH233331   2.405   3.161   1.363
11125TIP3    H133332   2.336   3.218   1.330
11125TIP3    H233333   2.363   3.110   1.431
11126TIP3   OH233334   1.628   4.620   1.420
11126TIP3    H133335   1.586   4.694   1.465
11126TIP3    H233336   1.556   4.576   1.374
11127TIP3   OH233337   0.117   6.029   1.510
11127TIP3    H133338   0.057   6.026   1.436
11127TIP3    H233339   0.163   5.945   1.506
11128TIP3   OH233340   1.129   7.619   0.280
11128TIP3    H133341   1.207   7.673   0.300
11128TIP3    H233342   1.081   7.615   0.363
11129TIP3   OH233343   7.464   2.471   1.024
11129TIP3    H133344   7.449   2.557   1.062
11129TIP3    H233345   7.417   2.411   1.082
11130TIP3   OH233346   4.130   0.089   1.603
11130TIP3    H133347   4.132  -0.005   1.624
11130TIP3    H233348   4.142   0.092   1.508
11131TIP3   OH233349   7.751   4.673   6.677
11131TIP3    H133350   7.705   4.628   6.748
11131TIP3    H233351   7.842   4.648   6.689
11132TIP3   OH233352   6.913   3.843   1.292
11132TIP3    H133353   6.893   3.797   1.210
11132TIP3    H233354   6.924   3.773   1.356
11133TIP3   OH233355   4.356   6.922   5.929
11133TIP3    H133356   4.438   6.890   5.966
11133TIP3    H233357   4.329   6.854   5.867
11134TIP3   OH233358   0.436   2.934   1.367
11134TIP3    H133359   0.516   2.982   1.391
11134TIP3    H233360   0.452   2.907   1.276
11135TIP3   OH233361   2.153   2.895   1.299
11135TIP3    H133362   2.220   2.943   1.348
11135TIP3    H233363   2.081   2.885   1.361
11136TIP3   OH233364   4.474   6.016   0.736
11136TIP3    H133365   4.548   5.955   0.737
11136TIP3    H233366   4.508   6.094   0.691
11137TIP3   OH233367   7.597   2.899   4.895
11137TIP3    H133368   7.512   2.881   4.934
11137TIP3    H233369   7.654   2.829   4.928
11138TIP3   OH233370   3.709   3.917   2.157
11138TIP3    H133371   3.755   3.949   2.235
11138TIP3    H233372   3.670   3.834   2.184
11139TIP3   OH233373   6.288   6.386   6.485
11139TIP3    H133374   6.205   6.433   6.496
11139TIP3    H233375   6.356   6.452   6.497
11140TIP3   OH233376   2.240   6.544   4.209
11140TIP3    H133377   2.148   6.562   4.229
11140TIP3    H233378   2.244   6.549   4.113
11141TIP3   OH233379   3.270   7.141   1.587
11141TIP3    H133380   3.292   7.211   1.526
11141TIP3    H233381   3.186   7.108   1.557
11142TIP3   OH233382   7.038   1.252   3.185
11142TIP3    H133383   7.100   1.240   3.113
11142TIP3    H233384   7.014   1.163   3.211
11143TIP3   OH233385   5.670   3.042   5.548
11143TIP3    H133386   5.589   3.074   5.588
11143TIP3    H233387   5.640   2.983   5.479
11144TIP3   OH233388   7.961   2.504   6.481
11144TIP3    H133389   8.011   2.565   6.428
11144TIP3    H233390   7.919   2.558   6.548
11145TIP3   OH233391   7.656   2.406   0.429
11145TIP3    H133392   7.727   2.375   0.373
11145TIP3    H233393   7.674   2.500   0.439
11146TIP3   OH233394   3.656   0.585   0.198
11146TIP3    H133395   3.581   0.587   0.258
11146TIP3    H233396   3.656   0.672   0.158
11147TIP3   OH233397   3.331   4.471   6.017
11147TIP3    H133398   3.377   4.513   5.944
11147TIP3    H233399   3.239   4.475   5.992
11148TIP3   OH233400   4.302   7.010   2.943
11148TIP3    H133401   4.329   6.996   3.033
11148TIP3    H233402   4.301   6.923   2.903
11149TIP3   OH233403   6.910   6.040   6.380
11149TIP3    H133404   6.905   6.072   6.290
11149TIP3    H233405   6.976   5.971   6.378
11150TIP3   OH233406   1.877   6.619   6.390
11150TIP3    H133407   1.893   6.546   6.331
11150TIP3    H233408   1.962   6.662   6.398
11151TIP3   OH233409   3.698   2.908   3.165
11151TIP3    H133410   3.697   2.910   3.069
11151TIP3    H233411   3.705   2.815   3.186
11152TIP3   OH233412   4.920   3.791   0.258
11152TIP3    H133413   4.919   3.701   0.291
11152TIP3    H233414   5.010   3.804   0.226
11153TIP3   OH233415   3.320   4.578   1.880
11153TIP3    H133416   3.294   4.501   1.932
11153TIP3    H233417   3.243   4.635   1.882
11154TIP3   OH233418   1.705   6.156   6.373
11154TIP3    H133419   1.680   6.127   6.461
11154TIP3    H233420   1.634   6.125   6.317
11155TIP3   OH233421   7.314   7.113   4.741
11155TIP3    H133422   7.343   7.163   4.665
11155TIP3    H233423   7.394   7.093   4.789
11156TIP3   OH233424   8.000   0.900   2.543
11156TIP3    H133425   8.093   0.902   2.563
11156TIP3    H233426   7.977   0.992   2.526
11157TIP3   OH233427   1.603   2.984   1.786
11157TIP3    H133428   1.533   3.046   1.807
11157TIP3    H233429   1.666   2.996   1.857
11158TIP3   OH233430   3.271   4.295   3.548
11158TIP3    H133431   3.179   4.271   3.543
11158TIP3    H233432   3.270   4.390   3.563
11159TIP3   OH233433   6.875   7.509   5.854
11159TIP3    H133434   6.893   7.574   5.786
11159TIP3    H233435   6.866   7.426   5.807
11160TIP3   OH233436   6.539   2.321   5.824
11160TIP3    H133437   6.585   2.282   5.898
11160TIP3    H233438   6.585   2.288   5.747
11161TIP3   OH233439   7.215   4.283   0.945
11161TIP3    H133440   7.208   4.353   0.880
11161TIP3    H233441   7.307   4.283   0.970
11162TIP3   OH233442   0.090   0.710   4.974
11162TIP3    H133443   0.087   0.708   4.878
11162TIP3    H233444  -0.001   0.702   5.001
11163TIP3   OH233445   1.305   1.215   0.320
11163TIP3    H133446   1.240   1.279   0.291
11163TIP3    H233447   1.268   1.179   0.401
11164TIP3   OH233448   6.771   6.025   2.020
11164TIP3    H133449   6.783   6.050   1.929
11164TIP3    H233450   6.800   5.934   2.024
11165TIP3   OH233451   6.212   6.369   1.314
11165TIP3    H133452   6.301   6.381   1.281
11165TIP3    H233453   6.163   6.333   1.240
11166TIP3   OH233454   1.157   6.479   5.729
11166TIP3    H133455   1.182   6.402   5.678
11166TIP3    H233456   1.228   6.542   5.713
11167TIP3   OH233457   6.650   3.023   1.359
11167TIP3    H133458   6.742   2.998   1.351
11167TIP3    H233459   6.642   3.102   1.306
11168TIP3   OH233460   6.232   7.364   5.627
11168TIP3    H133461   6.327   7.354   5.623
11168TIP3    H233462   6.210   7.411   5.547
11169TIP3   OH233463   3.874   4.672   3.597
11169TIP3    H133464   3.943   4.635   3.542
11169TIP3    H233465   3.810   4.706   3.535
11170TIP3   OH233466   3.323   7.419   4.874
11170TIP3    H133467   3.297   7.419   4.966
11170TIP3    H233468   3.418   7.419   4.876
11171TIP3   OH233469   0.594   4.934   1.712
11171TIP3    H133470   0.504   4.902   1.702
11171TIP3    H233471   0.585   5.026   1.738
11172TIP3   OH233472   7.493   6.496   4.697
11172TIP3    H133473   7.479   6.481   4.604
11172TIP3    H233474   7.444   6.426   4.740
11173TIP3   OH233475   5.348   6.578   4.444
11173TIP3    H133476   5.412   6.526   4.396
11173TIP3    H233477   5.400   6.637   4.498
11174TIP3   OH233478   3.345   0.419   4.407
11174TIP3    H133479   3.439   0.437   4.403
11174TIP3    H233480   3.319   0.410   4.315
11175TIP3   OH233481   6.220   7.608   1.262
11175TIP3    H133482   6.217   7.703   1.274
11175TIP3    H233483   6.183   7.572   1.342
11176TIP3   OH233484   0.307   1.061   4.005
11176TIP3    H133485   0.305   1.002   3.930
11176TIP3    H233486   0.400   1.070   4.026
11177TIP3   OH233487   6.051   3.525   0.073
11177TIP3    H133488   6.018   3.439   0.099
11177TIP3    H233489   6.103   3.554   0.148
11178TIP3   OH233490   4.732   4.383   1.538
11178TIP3    H133491   4.673   4.455   1.513
11178TIP3    H233492   4.755   4.341   1.456
11179TIP3   OH233493   5.720   5.968   4.055
11179TIP3    H133494   5.636   5.948   4.096
11179TIP3    H233495   5.718   5.919   3.972
11180TIP3   OH233496   6.105   0.630   0.323
11180TIP3    H133497   6.192   0.612   0.289
11180TIP3    H233498   6.100   0.725   0.329
11181TIP3   OH233499   4.121   3.672   1.210
11181TIP3    H133500   4.216   3.667   1.219
11181TIP3    H233501   4.096   3.593   1.163
11182TIP3   OH233502   0.243   5.629   5.584
11182TIP3    H133503   0.313   5.658   5.527
11182TIP3    H233504   0.201   5.709   5.615
11183TIP3   OH233505   4.554   1.942   4.507
11183TIP3    H133506   4.633   1.965   4.459
11183TIP3    H233507   4.561   1.848   4.521
11184TIP3   OH233508   7.112   5.000   5.995
11184TIP3    H133509   7.131   4.970   5.906
11184TIP3    H233510   7.167   4.945   6.051
11185TIP3   OH233511   4.319   6.013   2.290
11185TIP3    H133512   4.366   5.968   2.219
11185TIP3    H233513   4.370   6.093   2.304
11186TIP3   OH233514   5.833   0.377   3.818
11186TIP3    H133515   5.795   0.326   3.890
11186TIP3    H233516   5.758   0.408   3.768
11187TIP3   OH233517   1.229   6.788   4.562
11187TIP3    H133518   1.238   6.696   4.536
11187TIP3    H233519   1.293   6.799   4.633
11188TIP3   OH233520   5.901   0.749   5.018
11188TIP3    H133521   5.874   0.838   5.040
11188TIP3    H233522   5.846   0.693   5.072
11189TIP3   OH233523   4.089   1.306   5.022
11189TIP3    H133524   4.112   1.262   5.104
11189TIP3    H233525   4.055   1.237   4.967
11190TIP3   OH233526   3.870   0.403   3.321
11190TIP3    H133527   3.940   0.426   3.382
11190TIP3    H233528   3.910   0.412   3.234
11191TIP3   OH233529   7.766   3.500   2.212
11191TIP3    H133530   7.816   3.535   2.138
11191TIP3    H233531   7.725   3.576   2.252
11192TIP3   OH233532   4.864   3.400   4.439
11192TIP3    H133533   4.824   3.313   4.436
11192TIP3    H233534   4.948   3.386   4.483
11193TIP3   OH233535   3.758   5.734   5.028
11193TIP3    H133536   3.677   5.684   5.026
11193TIP3    H233537   3.758   5.784   4.946
11194TIP3   OH233538   2.211   0.856   1.344
11194TIP3    H133539   2.147   0.827   1.409
11194TIP3    H233540   2.222   0.782   1.285
11195TIP3   OH233541   1.172   7.044   5.155
11195TIP3    H133542   1.147   6.981   5.088
11195TIP3    H233543   1.131   7.013   5.235
11196TIP3   OH233544   1.976   4.264   0.554
11196TIP3    H133545   2.045   4.228   0.497
11196TIP3    H233546   2.020   4.276   0.638
11197TIP3   OH233547   7.741   1.415   2.572
11197TIP3    H133548   7.711   1.396   2.661
11197TIP3    H233549   7.819   1.361   2.560
11198TIP3   OH233550   2.874   4.826   4.152
11198TIP3    H133551   2.826   4.905   4.126
11198TIP3    H233552   2.962   4.857   4.171
11199TIP3   OH233553   4.302   1.697   0.856
11199TIP3    H133554   4.364   1.715   0.786
11199TIP3    H233555   4.300   1.777   0.908
11200TIP3   OH233556   4.663   0.968   6.733
11200TIP3    H133557   4.727   1.023   6.687
11200TIP3    H233558   4.635   1.022   6.807
11201TIP3   OH233559   0.867   3.449   6.580
11201TIP3    H133560   0.907   3.533   6.605
11201TIP3    H233561   0.897   3.387   6.647
11202TIP3   OH233562   0.676   4.757   6.008
11202TIP3    H133563   0.757   4.749   5.958
11202TIP3    H233564   0.618   4.810   5.953
11203TIP3   OH233565   6.789   0.850   5.568
11203TIP3    H133566   6.721   0.854   5.635
11203TIP3    H233567   6.745   0.876   5.487
11204TIP3   OH233568   7.046   0.363   3.793
11204TIP3    H133569   7.085   0.336   3.876
11204TIP3    H233570   7.081   0.451   3.777
11205TIP3   OH233571   2.824   1.108   1.856
11205TIP3    H133572   2.783   1.069   1.779
11205TIP3    H233573   2.837   1.034   1.916
11206TIP3   OH233574   1.030   3.910   1.284
11206TIP3    H133575   0.946   3.892   1.328
11206TIP3    H233576   1.060   3.992   1.322
11207TIP3   OH233577   2.369   6.806   1.435
11207TIP3    H133578   2.304   6.826   1.502
11207TIP3    H233579   2.350   6.715   1.411
11208TIP3   OH233580   4.263   5.039   5.874
11208TIP3    H133581   4.169   5.024   5.881
11208TIP3    H233582   4.302   4.953   5.888
11209TIP3   OH233583   6.145   2.523   3.861
11209TIP3    H133584   6.227   2.562   3.831
11209TIP3    H233585   6.155   2.516   3.956
11210TIP3   OH233586   2.373   6.491   2.234
11210TIP3    H133587   2.419   6.544   2.169
11210TIP3    H233588   2.358   6.550   2.308
11211TIP3   OH233589   5.847   3.714   0.024
11211TIP3    H133590   5.795   3.668   0.089
11211TIP3    H233591   5.933   3.673   0.027
11212TIP3   OH233592   0.506   3.253   2.304
11212TIP3    H133593   0.487   3.161   2.323
11212TIP3    H233594   0.471   3.300   2.379
11213TIP3   OH233595   2.452   4.363   3.080
11213TIP3    H133596   2.456   4.268   3.070
11213TIP3    H233597   2.533   4.396   3.043
11214TIP3   OH233598   2.381   2.276   2.230
11214TIP3    H133599   2.297   2.310   2.261
11214TIP3    H233600   2.365   2.250   2.139
11215TIP3   OH233601   6.978   7.703   4.601
11215TIP3    H133602   7.050   7.765   4.589
11215TIP3    H233603   7.019   7.617   4.599
11216TIP3   OH233604   0.945   3.715   4.868
11216TIP3    H133605   0.971   3.640   4.922
11216TIP3    H233606   0.902   3.676   4.792
11217TIP3   OH233607   2.352   1.694   3.970
11217TIP3    H133608   2.368   1.613   4.019
11217TIP3    H233609   2.351   1.666   3.878
11218TIP3   OH233610   6.748   5.742   2.007
11218TIP3    H133611   6.759   5.660   2.055
11218TIP3    H233612   6.684   5.722   1.939
11219TIP3   OH233613   7.052   0.054   2.903
11219TIP3    H133614   7.026   0.084   2.816
11219TIP3    H233615   6.999   0.105   2.963
11220TIP3   OH233616   3.383   0.974   0.991
11220TIP3    H133617   3.336   0.898   1.024
11220TIP3    H233618   3.419   1.016   1.069
11221TIP3   OH233619   6.079   7.210   1.292
11221TIP3    H133620   6.046   7.193   1.204
11221TIP3    H233621   6.011   7.265   1.333
11222TIP3   OH233622   5.910   1.167   1.320
11222TIP3    H133623   5.957   1.088   1.348
11222TIP3    H233624   5.821   1.155   1.352
11223TIP3   OH233625   5.986   4.463   2.876
11223TIP3    H133626   6.026   4.380   2.851
11223TIP3    H233627   5.999   4.519   2.800
11224TIP3   OH233628   2.561   0.546   2.717
11224TIP3    H133629   2.468   0.559   2.699
11224TIP3    H233630   2.588   0.479   2.654
11225TIP3   OH233631   1.524   7.443   1.689
11225TIP3    H133632   1.584   7.459   1.616
11225TIP3    H233633   1.493   7.354   1.675
11226TIP3   OH233634   0.493   3.768   3.715
11226TIP3    H133635   0.568   3.795   3.768
11226TIP3    H233636   0.434   3.843   3.717
11227TIP3   OH233637   2.546   2.487   0.989
11227TIP3    H133638   2.580   2.411   0.940
11227TIP3    H233639   2.624   2.530   1.023
11228TIP3   OH233640   7.421   2.739   1.055
11228TIP3    H133641   7.425   2.769   0.964
11228TIP3    H233642   7.452   2.814   1.106
11229TIP3   OH233643   1.147   2.729   3.300
11229TIP3    H133644   1.171   2.726   3.207
11229TIP3    H233645   1.085   2.802   3.306
11230TIP3   OH233646   2.854   3.512   2.035
11230TIP3    H133647   2.908   3.589   2.052
11230TIP3    H233648   2.874   3.452   2.106
11231TIP3   OH233649   1.158   7.166   5.758
11231TIP3    H133650   1.169   7.257   5.786
11231TIP3    H233651   1.064   7.150   5.767
11232TIP3   OH233652   0.258   5.957   6.392
11232TIP3    H133653   0.262   5.869   6.356
11232TIP3    H233654   0.254   5.944   6.487
11233TIP3   OH233655   4.178   6.985   0.808
11233TIP3    H133656   4.146   6.915   0.865
11233TIP3    H233657   4.129   7.062   0.834
11234TIP3   OH233658   5.714   4.738   2.240
11234TIP3    H133659   5.699   4.795   2.315
11234TIP3    H233660   5.768   4.790   2.181
11235TIP3   OH233661   0.639   2.770   0.871
11235TIP3    H133662   0.565   2.748   0.814
11235TIP3    H233663   0.693   2.829   0.818
11236TIP3   OH233664   5.325   7.526   6.107
11236TIP3    H133665   5.339   7.432   6.104
11236TIP3    H233666   5.329   7.549   6.200
11237TIP3   OH233667   5.916   0.076   4.093
11237TIP3    H133668   5.846   0.139   4.113
11237TIP3    H233669   5.978   0.086   4.165
11238TIP3   OH233670   2.490   7.490   1.668
11238TIP3    H133671   2.443   7.410   1.648
11238TIP3    H233672   2.478   7.502   1.762
11239TIP3   OH233673   1.315   6.499   6.409
11239TIP3    H133674   1.289   6.431   6.471
11239TIP3    H233675   1.245   6.564   6.415
11240TIP3   OH233676   2.231   1.837   2.979
11240TIP3    H133677   2.321   1.840   2.946
11240TIP3    H233678   2.194   1.758   2.939
11241TIP3   OH233679   8.301   5.984   2.857
11241TIP3    H133680   8.298   5.891   2.835
11241TIP3    H233681   8.243   6.025   2.793
11242TIP3   OH233682   7.189   0.308   6.184
11242TIP3    H133683   7.183   0.274   6.274
11242TIP3    H233684   7.282   0.297   6.162
11243TIP3   OH233685   1.823   2.591   2.153
11243TIP3    H133686   1.881   2.660   2.185
11243TIP3    H233687   1.815   2.608   2.059
11244TIP3   OH233688   3.073   3.372   0.296
11244TIP3    H133689   3.097   3.429   0.223
11244TIP3    H233690   3.135   3.394   0.366
11245TIP3   OH233691   4.447   2.182   2.693
11245TIP3    H133692   4.453   2.274   2.716
11245TIP3    H233693   4.445   2.181   2.597
11246TIP3   OH233694   4.471   1.782   6.485
11246TIP3    H133695   4.547   1.742   6.527
11246TIP3    H233696   4.417   1.708   6.457
11247TIP3   OH233697   3.617   7.842   1.851
11247TIP3    H133698   3.595   7.750   1.842
11247TIP3    H233699   3.565   7.886   1.782
11248TIP3   OH233700   7.023   7.439   6.357
11248TIP3    H133701   6.998   7.482   6.439
11248TIP3    H233702   7.090   7.376   6.383
11249TIP3   OH233703   5.353   3.507   3.115
11249TIP3    H133704   5.409   3.471   3.184
11249TIP3    H233705   5.404   3.498   3.035
11250TIP3   OH233706   5.227   4.929   6.030
11250TIP3    H133707   5.266   5.016   6.025
11250TIP3    H233708   5.136   4.943   6.003
11251TIP3   OH233709   3.716   0.827   3.334
11251TIP3    H133710   3.718   0.762   3.264
11251TIP3    H233711   3.630   0.816   3.374
11252TIP3   OH233712   4.976   4.573   5.582
11252TIP3    H133713   4.944   4.547   5.669
11252TIP3    H233714   5.020   4.495   5.548
11253TIP3   OH233715   4.654   3.709   0.921
11253TIP3    H133716   4.655   3.664   1.005
11253TIP3    H233717   4.576   3.676   0.876
11254TIP3   OH233718   6.371   5.167   6.612
11254TIP3    H133719   6.306   5.223   6.655
11254TIP3    H233720   6.454   5.192   6.652
11255TIP3   OH233721   0.046   3.089   1.001
11255TIP3    H133722   0.087   3.174   0.988
11255TIP3    H233723   0.009   3.067   0.916
11256TIP3   OH233724   3.143   3.498   6.643
11256TIP3    H133725   3.056   3.536   6.659
11256TIP3    H233726   3.178   3.549   6.570
11257TIP3   OH233727   2.208   3.727   5.042
11257TIP3    H133728   2.226   3.669   4.968
11257TIP3    H233729   2.138   3.784   5.011
11258TIP3   OH233730   2.174   3.930   4.196
11258TIP3    H133731   2.104   3.988   4.167
11258TIP3    H233732   2.254   3.983   4.188
11259TIP3   OH233733   6.248   2.392   2.694
11259TIP3    H133734   6.171   2.446   2.710
11259TIP3    H233735   6.287   2.379   2.780
11260TIP3   OH233736   1.392   4.313   3.346
11260TIP3    H133737   1.400   4.219   3.362
11260TIP3    H233738   1.471   4.336   3.298
11261TIP3   OH233739   8.116   2.750   6.631
11261TIP3    H133740   8.087   2.841   6.638
11261TIP3    H233741   8.052   2.701   6.682
11262TIP3   OH233742   2.516   7.483   6.502
11262TIP3    H133743   2.486   7.411   6.557
11262TIP3    H233744   2.435   7.524   6.471
11263TIP3   OH233745   0.292   1.622   6.074
11263TIP3    H133746   0.310   1.536   6.036
11263TIP3    H233747   0.222   1.658   6.020
11264TIP3   OH233748   0.321   7.300   1.379
11264TIP3    H133749   0.244   7.357   1.371
11264TIP3    H233750   0.322   7.251   1.297
11265TIP3   OH233751   3.367   6.976   0.242
11265TIP3    H133752   3.400   6.927   0.167
11265TIP3    H233753   3.394   7.066   0.225
11266TIP3   OH233754   8.298   4.625   5.976
11266TIP3    H133755   8.338   4.689   6.035
11266TIP3    H233756   8.373   4.579   5.937
11267TIP3   OH233757   4.303   7.133   0.297
11267TIP3    H133758   4.222   7.150   0.248
11267TIP3    H233759   4.273   7.113   0.386
11268TIP3   OH233760   5.981   5.230   0.268
11268TIP3    H133761   6.024   5.306   0.306
11268TIP3    H233762   5.999   5.236   0.174
11269TIP3   OH233763   6.927   2.958   0.958
11269TIP3    H133764   6.862   2.890   0.977
11269TIP3    H233765   6.925   2.967   0.863
11270TIP3   OH233766   4.236   5.501   3.725
11270TIP3    H133767   4.320   5.533   3.760
11270TIP3    H233768   4.259   5.422   3.677
11271TIP3   OH233769   4.784   1.535   4.425
11271TIP3    H133770   4.766   1.477   4.351
11271TIP3    H233771   4.753   1.620   4.396
11272TIP3   OH233772   7.375   2.730   3.072
11272TIP3    H133773   7.450   2.696   3.023
11272TIP3    H233774   7.391   2.825   3.078
11273TIP3   OH233775   6.319   1.319   4.226
11273TIP3    H133776   6.251   1.312   4.293
11273TIP3    H233777   6.297   1.251   4.162
11274TIP3   OH233778   5.989   3.775   4.273
11274TIP3    H133779   6.067   3.810   4.231
11274TIP3    H233780   5.976   3.689   4.233
11275TIP3   OH233781   6.833   4.710   1.933
11275TIP3    H133782   6.737   4.715   1.934
11275TIP3    H233783   6.859   4.789   1.885
11276TIP3   OH233784   3.620   2.491   2.349
11276TIP3    H133785   3.573   2.408   2.335
11276TIP3    H233786   3.647   2.517   2.261
11277TIP3   OH233787   8.213   6.895   2.344
11277TIP3    H133788   8.190   6.902   2.252
11277TIP3    H233789   8.180   6.809   2.371
11278TIP3   OH233790   2.096   1.940   2.723
11278TIP3    H133791   2.079   1.894   2.805
11278TIP3    H233792   2.157   1.884   2.675
11279TIP3   OH233793   1.411   7.676   3.138
11279TIP3    H133794   1.439   7.600   3.087
11279TIP3    H233795   1.342   7.643   3.195
11280TIP3   OH233796   8.093   4.706   5.257
11280TIP3    H133797   8.172   4.751   5.288
11280TIP3    H233798   8.065   4.757   5.181
11281TIP3   OH233799   8.034   5.419   0.328
11281TIP3    H133800   8.059   5.362   0.400
11281TIP3    H233801   7.951   5.384   0.297
11282TIP3   OH233802   1.422   5.602   4.205
11282TIP3    H133803   1.391   5.680   4.159
11282TIP3    H233804   1.433   5.631   4.296
11283TIP3   OH233805   5.843   5.292   3.557
11283TIP3    H133806   5.856   5.197   3.555
11283TIP3    H233807   5.783   5.306   3.630
11284TIP3   OH233808   3.895   2.296   3.673
11284TIP3    H133809   3.913   2.202   3.676
11284TIP3    H233810   3.972   2.336   3.714
11285TIP3   OH233811   2.689   0.189   6.290
11285TIP3    H133812   2.690   0.263   6.229
11285TIP3    H233813   2.609   0.141   6.269
11286TIP3   OH233814   4.389   0.446   3.354
11286TIP3    H133815   4.388   0.527   3.304
11286TIP3    H233816   4.482   0.429   3.370
11287TIP3   OH233817   4.965   2.134   6.659
11287TIP3    H133818   4.895   2.085   6.617
11287TIP3    H233819   4.994   2.077   6.730
11288TIP3   OH233820   6.557   7.361   4.795
11288TIP3    H133821   6.500   7.395   4.726
11288TIP3    H233822   6.506   7.292   4.838
11289TIP3   OH233823   1.188   6.044   4.035
11289TIP3    H133824   1.159   6.006   3.952
11289TIP3    H233825   1.139   6.126   4.043
11290TIP3   OH233826   0.086   0.728   2.522
11290TIP3    H133827   0.042   0.812   2.520
11290TIP3    H233828   0.051   0.684   2.599
11291TIP3   OH233829   3.314   3.887   3.371
11291TIP3    H133830   3.225   3.859   3.391
11291TIP3    H233831   3.332   3.850   3.284
11292TIP3   OH233832   4.375   3.061   2.816
11292TIP3    H133833   4.327   3.125   2.868
11292TIP3    H233834   4.461   3.055   2.858
11293TIP3   OH233835   7.810   0.406   4.319
11293TIP3    H133836   7.748   0.334   4.329
11293TIP3    H233837   7.895   0.370   4.344
11294TIP3   OH233838   5.048   1.762   4.396
11294TIP3    H133839   4.965   1.755   4.349
11294TIP3    H233840   5.026   1.807   4.477
11295TIP3   OH233841   6.917   6.917   0.088
11295TIP3    H133842   6.980   6.924   0.160
11295TIP3    H233843   6.839   6.879   0.129
11296TIP3   OH233844   2.350   6.972   6.678
11296TIP3    H133845   2.360   7.005   6.588
11296TIP3    H233846   2.259   6.942   6.681
11297TIP3   OH233847   7.723   1.250   5.167
11297TIP3    H133848   7.651   1.188   5.167
11297TIP3    H233849   7.686   1.330   5.205
11298TIP3   OH233850   3.247   1.760   1.013
11298TIP3    H133851   3.208   1.840   1.048
11298TIP3    H233852   3.248   1.772   0.918
11299TIP3   OH233853   4.090   6.010   2.688
11299TIP3    H133854   4.097   5.948   2.616
11299TIP3    H233855   4.023   6.072   2.660
11300TIP3   OH233856   2.041   0.340   0.375
11300TIP3    H133857   2.132   0.315   0.391
11300TIP3    H233858   2.038   0.362   0.282
11301TIP3   OH233859   5.761   7.112   5.393
11301TIP3    H133860   5.834   7.169   5.366
11301TIP3    H233861   5.798   7.023   5.389
11302TIP3   OH233862   6.016   6.910   3.058
11302TIP3    H133863   6.043   6.822   3.031
11302TIP3    H233864   5.926   6.898   3.089
11303TIP3   OH233865   4.077   2.992   0.848
11303TIP3    H133866   4.036   3.065   0.895
11303TIP3    H233867   4.037   2.914   0.886
11304TIP3   OH233868   2.412   6.052   0.880
11304TIP3    H133869   2.354   6.122   0.853
11304TIP3    H233870   2.364   6.005   0.949
11305TIP3   OH233871   7.666   6.004   1.170
11305TIP3    H133872   7.586   6.016   1.118
11305TIP3    H233873   7.696   6.093   1.188
11306TIP3   OH233874   4.205   7.119   5.760
11306TIP3    H133875   4.286   7.104   5.710
11306TIP3    H233876   4.208   7.054   5.829
11307TIP3   OH233877   3.555   1.865   4.841
11307TIP3    H133878   3.530   1.801   4.774
11307TIP3    H233879   3.480   1.868   4.900
11308TIP3   OH233880   4.008   7.614   4.854
11308TIP3    H133881   3.934   7.673   4.871
11308TIP3    H233882   4.073   7.669   4.811
11309TIP3   OH233883   1.735   1.639   2.331
11309TIP3    H133884   1.761   1.566   2.275
11309TIP3    H233885   1.643   1.654   2.310
11310TIP3   OH233886   3.357   5.881   5.713
11310TIP3    H133887   3.335   5.792   5.684
11310TIP3    H233888   3.434   5.905   5.661
11311TIP3   OH233889   8.066   5.664   6.470
11311TIP3    H133890   7.988   5.678   6.524
11311TIP3    H233891   8.045   5.706   6.387
11312TIP3   OH233892   4.587   3.465   5.142
11312TIP3    H133893   4.650   3.393   5.140
11312TIP3    H233894   4.530   3.449   5.066
11313TIP3   OH233895   2.158   2.677   4.843
11313TIP3    H133896   2.132   2.713   4.758
11313TIP3    H233897   2.077   2.640   4.879
11314TIP3   OH233898   1.642   7.612   6.718
11314TIP3    H133899   1.620   7.689   6.665
11314TIP3    H233900   1.557   7.574   6.740
11315TIP3   OH233901   0.172   1.018   4.226
11315TIP3    H133902   0.084   1.047   4.202
11315TIP3    H233903   0.220   1.017   4.143
11316TIP3   OH233904   7.363   7.449   2.432
11316TIP3    H133905   7.391   7.454   2.524
11316TIP3    H233906   7.335   7.358   2.421
11317TIP3   OH233907   7.230   2.635   4.793
11317TIP3    H133908   7.318   2.622   4.828
11317TIP3    H233909   7.233   2.596   4.706
11318TIP3   OH233910   1.113   4.414   0.452
11318TIP3    H133911   1.043   4.351   0.437
11318TIP3    H233912   1.194   4.365   0.440
11319TIP3   OH233913   6.860   4.161   5.161
11319TIP3    H133914   6.772   4.153   5.122
11319TIP3    H233915   6.919   4.140   5.089
11320TIP3   OH233916   3.860   5.156   0.629
11320TIP3    H133917   3.788   5.217   0.641
11320TIP3    H233918   3.866   5.108   0.712
11321TIP3   OH233919   6.711   7.729   6.641
11321TIP3    H133920   6.679   7.784   6.713
11321TIP3    H233921   6.686   7.776   6.562
11322TIP3   OH233922   0.737   3.991   0.255
11322TIP3    H133923   0.796   3.916   0.256
11322TIP3    H233924   0.772   4.048   0.186
11323TIP3   OH233925   1.585   0.471   3.686
11323TIP3    H133926   1.541   0.472   3.771
11323TIP3    H233927   1.676   0.446   3.706
11324TIP3   OH233928   3.554   2.289   4.387
11324TIP3    H133929   3.513   2.338   4.315
11324TIP3    H233930   3.632   2.340   4.410
11325TIP3   OH233931   0.093   1.910   2.715
11325TIP3    H133932   0.030   1.907   2.787
11325TIP3    H233933   0.178   1.897   2.757
11326TIP3   OH233934   2.199   2.760   2.541
11326TIP3    H133935   2.185   2.850   2.511
11326TIP3    H233936   2.133   2.747   2.609
11327TIP3   OH233937   2.844   1.937   1.316
11327TIP3    H133938   2.781   1.927   1.388
11327TIP3    H233939   2.862   2.030   1.312
11328TIP3   OH233940   5.964   4.197   1.234
11328TIP3    H133941   6.019   4.241   1.169
11328TIP3    H233942   5.889   4.255   1.245
11329TIP3   OH233943   5.967   6.323   1.653
11329TIP3    H133944   5.996   6.258   1.716
11329TIP3    H233945   5.930   6.272   1.581
11330TIP3   OH233946   0.657   4.451   1.081
11330TIP3    H133947   0.610   4.499   1.148
11330TIP3    H233948   0.640   4.499   1.000
11331TIP3   OH233949   4.178   2.347   1.660
11331TIP3    H133950   4.116   2.278   1.639
11331TIP3    H233951   4.262   2.303   1.665
11332TIP3   OH233952   6.231   0.548   0.569
11332TIP3    H133953   6.198   0.538   0.480
11332TIP3    H233954   6.235   0.643   0.582
11333TIP3   OH233955   0.925   1.699   2.027
11333TIP3    H133956   1.007   1.724   2.069
11333TIP3    H233957   0.898   1.777   1.978
11334TIP3   OH233958   3.061   1.201   3.768
11334TIP3    H133959   3.006   1.157   3.833
11334TIP3    H233960   3.026   1.290   3.763
11335TIP3   OH233961   1.177   1.633   1.727
11335TIP3    H133962   1.131   1.705   1.769
11335TIP3    H233963   1.243   1.675   1.672
11336TIP3   OH233964   0.907   4.117   2.028
11336TIP3    H133965   0.849   4.105   2.104
11336TIP3    H233966   0.860   4.075   1.956
11337TIP3   OH233967   3.404   1.593   5.269
11337TIP3    H133968   3.337   1.571   5.334
11337TIP3    H233969   3.421   1.687   5.284
11338TIP3   OH233970   3.625   6.572   5.894
11338TIP3    H133971   3.606   6.483   5.865
11338TIP3    H233972   3.645   6.563   5.987
11339TIP3   OH233973   0.095   6.482   2.639
11339TIP3    H133974   0.134   6.520   2.560
11339TIP3    H233975   0.003   6.471   2.618
11340TIP3   OH233976   7.060   2.019   2.277
11340TIP3    H133977   7.071   2.047   2.186
11340TIP3    H233978   6.977   2.059   2.304
11341TIP3   OH233979   4.487   3.046   3.843
11341TIP3    H133980   4.549   3.006   3.782
11341TIP3    H233981   4.515   3.137   3.850
11342TIP3   OH233982   0.700   6.128   3.345
11342TIP3    H133983   0.619   6.159   3.386
11342TIP3    H233984   0.748   6.208   3.322
11343TIP3   OH233985   0.411   7.385   2.674
11343TIP3    H133986   0.489   7.342   2.708
11343TIP3    H233987   0.444   7.459   2.624
11344TIP3   OH233988   3.378   3.608   4.236
11344TIP3    H133989   3.427   3.638   4.312
11344TIP3    H233990   3.444   3.595   4.168
11345TIP3   OH233991   0.252   1.207   4.446
11345TIP3    H133992   0.218   1.165   4.367
11345TIP3    H233993   0.179   1.262   4.477
11346TIP3   OH233994   7.798   4.821   5.555
11346TIP3    H133995   7.778   4.894   5.497
11346TIP3    H233996   7.892   4.830   5.573
11347TIP3   OH233997   4.914   4.981   0.504
11347TIP3    H133998   4.958   4.901   0.532
11347TIP3    H233999   4.922   4.980   0.409
11348TIP3   OH234000   2.374   2.039   5.367
11348TIP3    H134001   2.281   2.060   5.366
11348TIP3    H234002   2.401   2.045   5.276
11349TIP3   OH234003   5.688   2.937   4.769
11349TIP3    H134004   5.609   2.887   4.747
11349TIP3    H234005   5.759   2.891   4.724
11350TIP3   OH234006   6.296   4.642   2.906
11350TIP3    H134007   6.316   4.692   2.985
11350TIP3    H234008   6.266   4.557   2.938
11351TIP3   OH234009   3.043   7.351   3.842
11351TIP3    H134010   3.109   7.415   3.815
11351TIP3    H234011   3.067   7.271   3.796
11352TIP3   OH234012   0.374   0.383   2.870
11352TIP3    H134013   0.407   0.470   2.845
11352TIP3    H234014   0.350   0.393   2.962
11353TIP3   OH234015   7.287   2.763   2.787
11353TIP3    H134016   7.339   2.842   2.796
11353TIP3    H234017   7.343   2.702   2.739
11354TIP3   OH234018   1.058   7.706   3.970
11354TIP3    H134019   1.133   7.731   3.916
11354TIP3    H234020   1.025   7.626   3.928
11355TIP3   OH234021   4.216   7.156   3.302
11355TIP3    H134022   4.175   7.200   3.377
11355TIP3    H234023   4.147   7.100   3.267
11356TIP3   OH234024   0.340   3.918   2.166
11356TIP3    H134025   0.285   3.956   2.098
11356TIP3    H234026   0.281   3.861   2.215
11357TIP3   OH234027   7.131   5.614   3.030
11357TIP3    H134028   7.182   5.679   3.079
11357TIP3    H234029   7.187   5.591   2.957
11358TIP3   OH234030   0.505   5.184   4.013
11358TIP3    H134031   0.516   5.089   4.007
11358TIP3    H234032   0.463   5.208   3.930
11359TIP3   OH234033   2.205   2.413   6.302
11359TIP3    H134034   2.271   2.480   6.320
11359TIP3    H234035   2.132   2.462   6.264
11360TIP3   OH234036   7.613   4.457   2.043
11360TIP3    H134037   7.681   4.524   2.036
11360TIP3    H234038   7.582   4.445   1.953
11361TIP3   OH234039   4.198   0.369   1.246
11361TIP3    H134040   4.137   0.296   1.247
11361TIP3    H234041   4.150   0.440   1.203
11362TIP3   OH234042   3.236   2.074   4.794
11362TIP3    H134043   3.191   1.993   4.815
11362TIP3    H234044   3.195   2.104   4.712
11363TIP3   OH234045   8.193   0.443   0.152
11363TIP3    H134046   8.286   0.450   0.172
11363TIP3    H234047   8.184   0.483   0.065
11364TIP3   OH234048   0.453   4.381   5.255
11364TIP3    H134049   0.532   4.328   5.265
11364TIP3    H234050   0.382   4.318   5.257
11365TIP3   OH234051   0.281  -0.003   5.355
11365TIP3    H134052   0.233  -0.064   5.411
11365TIP3    H234053   0.251   0.084   5.383
11366TIP3   OH234054   6.862   3.444   5.353
11366TIP3    H134055   6.885   3.510   5.419
11366TIP3    H234056   6.940   3.438   5.298
11367TIP3   OH234057   8.030   6.311   1.506
11367TIP3    H134058   7.954   6.363   1.481
11367TIP3    H234059   7.993   6.232   1.545
11368TIP3   OH234060   4.616   2.355   3.648
11368TIP3    H134061   4.605   2.313   3.733
11368TIP3    H234062   4.681   2.301   3.603
11369TIP3   OH234063   4.618   4.532   1.178
11369TIP3    H134064   4.651   4.576   1.100
11369TIP3    H234065   4.526   4.514   1.159
11370TIP3   OH234066   0.917   3.714   5.977
11370TIP3    H134067   0.871   3.631   5.987
11370TIP3    H234068   0.861   3.766   5.919
11371TIP3   OH234069   3.844   5.004   4.338
11371TIP3    H134070   3.908   4.946   4.297
11371TIP3    H234071   3.825   5.070   4.270
11372TIP3   OH234072   7.197   5.360   5.700
11372TIP3    H134073   7.128   5.302   5.666
11372TIP3    H234074   7.244   5.307   5.764
11373TIP3   OH234075   3.548   7.374   5.122
11373TIP3    H134076   3.515   7.460   5.146
11373TIP3    H234077   3.554   7.326   5.205
11374TIP3   OH234078   7.900   7.151   2.446
11374TIP3    H134079   7.983   7.105   2.437
11374TIP3    H234080   7.860   7.114   2.524
11375TIP3   OH234081   3.983   1.785   5.072
11375TIP3    H134082   4.007   1.825   5.155
11375TIP3    H234083   3.895   1.749   5.086
11376TIP3   OH234084   4.138   5.166   0.353
11376TIP3    H134085   4.143   5.158   0.258
11376TIP3    H234086   4.207   5.109   0.387
11377TIP3   OH234087   3.485   3.180   1.986
11377TIP3    H134088   3.543   3.136   2.048
11377TIP3    H234089   3.538   3.193   1.908
11378TIP3   OH234090   7.817   5.747   1.675
11378TIP3    H134091   7.736   5.710   1.712
11378TIP3    H234092   7.811   5.728   1.582
11379TIP3   OH234093   4.609   7.228   1.329
11379TIP3    H134094   4.575   7.280   1.402
11379TIP3    H234095   4.703   7.247   1.329
11380TIP3   OH234096   5.879   6.524   1.306
11380TIP3    H134097   5.866   6.433   1.279
11380TIP3    H234098   5.939   6.560   1.240
11381TIP3   OH234099   1.396   2.703   0.601
11381TIP3    H134100   1.307   2.713   0.633
11381TIP3    H234101   1.451   2.723   0.677
11382TIP3   OH234102   1.748   4.327   5.109
11382TIP3    H134103   1.811   4.382   5.062
11382TIP3    H234104   1.802   4.276   5.170
11383TIP3   OH234105   2.197   5.526   5.251
11383TIP3    H134106   2.215   5.533   5.157
11383TIP3    H234107   2.163   5.438   5.263
11384TIP3   OH234108   2.109   6.968   5.461
11384TIP3    H134109   2.165   7.037   5.425
11384TIP3    H234110   2.105   6.902   5.392
11385TIP3   OH234111   4.512   0.866   1.894
11385TIP3    H134112   4.584   0.817   1.853
11385TIP3    H234113   4.452   0.799   1.925
11386TIP3   OH234114   5.651   6.739   1.660
11386TIP3    H134115   5.709   6.667   1.637
11386TIP3    H234116   5.615   6.714   1.746
11387TIP3   OH234117   1.151   2.276   2.373
11387TIP3    H134118   1.229   2.329   2.392
11387TIP3    H234119   1.078   2.331   2.400
11388TIP3   OH234120   7.206   6.508   0.017
11388TIP3    H134121   7.134   6.557   0.057
11388TIP3    H234122   7.189   6.417   0.039
11389TIP3   OH234123   6.031   2.044   2.155
11389TIP3    H134124   6.115   2.082   2.181
11389TIP3    H234125   6.030   2.052   2.060
11390TIP3   OH234126   1.715   1.595   1.074
11390TIP3    H134127   1.795   1.562   1.117
11390TIP3    H234128   1.726   1.690   1.074
11391TIP3   OH234129   0.738   0.591   4.331
11391TIP3    H134130   0.817   0.641   4.307
11391TIP3    H234131   0.741   0.587   4.427
11392TIP3   OH234132   5.145   6.983   1.728
11392TIP3    H134133   5.095   7.019   1.802
11392TIP3    H234134   5.174   6.897   1.758
11393TIP3   OH234135   2.118   4.368   5.242
11393TIP3    H134136   2.202   4.413   5.250
11393TIP3    H234137   2.130   4.286   5.291
11394TIP3   OH234138   1.388   2.313   2.622
11394TIP3    H134139   1.469   2.325   2.572
11394TIP3    H234140   1.415   2.319   2.713
11395TIP3   OH234141   3.675   6.670   0.020
11395TIP3    H134142   3.730   6.600   0.055
11395TIP3    H234143   3.737   6.736  -0.013
11396TIP3   OH234144   4.237   0.846   5.248
11396TIP3    H134145   4.145   0.860   5.269
11396TIP3    H234146   4.252   0.753   5.266
11397TIP3   OH234147   5.362   6.801   6.692
11397TIP3    H134148   5.399   6.839   6.612
11397TIP3    H234149   5.294   6.863   6.718
11398TIP3   OH234150   1.993   6.395   0.843
11398TIP3    H134151   1.912   6.385   0.793
11398TIP3    H234152   1.968   6.377   0.934
11399TIP3   OH234153   4.658   7.220   5.250
11399TIP3    H134154   4.752   7.207   5.236
11399TIP3    H234155   4.618   7.139   5.219
11400TIP3   OH234156   2.510   7.553   2.599
11400TIP3    H134157   2.558   7.535   2.518
11400TIP3    H234158   2.578   7.552   2.667
11401TIP3   OH234159   0.242   0.466   3.103
11401TIP3    H134160   0.159   0.513   3.098
11401TIP3    H234161   0.219   0.379   3.136
11402TIP3   OH234162   7.255   7.504   0.140
11402TIP3    H134163   7.160   7.500   0.131
11402TIP3    H234164   7.270   7.499   0.235
11403TIP3   OH234165   6.283   6.718   1.066
11403TIP3    H134166   6.287   6.798   1.120
11403TIP3    H234167   6.356   6.727   1.006
11404TIP3   OH234168   0.725   4.598  -0.084
11404TIP3    H134169   0.771   4.611  -0.002
11404TIP3    H234170   0.636   4.573  -0.058
11405TIP3   OH234171   0.495   0.201   0.424
11405TIP3    H134172   0.445   0.184   0.344
11405TIP3    H234173   0.583   0.222   0.393
11406TIP3   OH234174   8.303   0.868   2.001
11406TIP3    H134175   8.229   0.823   1.959
11406TIP3    H234176   8.314   0.948   1.950
11407TIP3   OH234177   4.498   1.487   2.422
11407TIP3    H134178   4.552   1.533   2.485
11407TIP3    H234179   4.409   1.518   2.438
11408TIP3   OH234180   5.409   4.050   0.588
11408TIP3    H134181   5.348   4.107   0.633
11408TIP3    H234182   5.398   3.964   0.629
11409TIP3   OH234183   4.198   4.524   6.135
11409TIP3    H134184   4.255   4.494   6.065
11409TIP3    H234185   4.125   4.568   6.090
11410TIP3   OH234186   3.854   2.091   4.206
11410TIP3    H134187   3.821   2.115   4.293
11410TIP3    H234188   3.887   2.173   4.169
11411TIP3   OH234189   3.449   7.566   0.940
11411TIP3    H134190   3.543   7.571   0.957
11411TIP3    H234191   3.410   7.627   1.003
11412TIP3   OH234192   4.279   2.973   0.657
11412TIP3    H134193   4.231   2.953   0.577
11412TIP3    H234194   4.215   2.966   0.727
11413TIP3   OH234195   4.088   0.280   0.805
11413TIP3    H134196   4.086   0.375   0.801
11413TIP3    H234197   4.096   0.252   0.714
11414TIP3   OH234198   0.016   6.698   5.723
11414TIP3    H134199   0.012   6.727   5.631
11414TIP3    H234200   0.081   6.755   5.763
11415TIP3   OH234201   5.955   4.259   0.744
11415TIP3    H134202   5.878   4.301   0.703
11415TIP3    H234203   6.014   4.241   0.671
11416TIP3   OH234204   0.278   2.140   3.559
11416TIP3    H134205   0.347   2.203   3.539
11416TIP3    H234206   0.325   2.062   3.589
11417TIP3   OH234207   3.693   5.491   4.304
11417TIP3    H134208   3.602   5.517   4.317
11417TIP3    H234209   3.688   5.401   4.274
11418TIP3   OH234210   1.810   6.586   6.087
11418TIP3    H134211   1.741   6.646   6.116
11418TIP3    H234212   1.763   6.514   6.045
11419TIP3   OH234213   1.078   2.159   3.981
11419TIP3    H134214   1.053   2.249   4.001
11419TIP3    H234215   0.995   2.112   3.971
11420TIP3   OH234216   0.882   6.238   0.300
11420TIP3    H134217   0.866   6.309   0.362
11420TIP3    H234218   0.809   6.178   0.312
11421TIP3   OH234219   5.043   1.607   2.524
11421TIP3    H134220   5.056   1.684   2.468
11421TIP3    H234221   5.011   1.539   2.464
11422TIP3   OH234222   5.634   1.975   4.550
11422TIP3    H134223   5.695   1.916   4.596
11422TIP3    H234224   5.578   1.916   4.499
11423TIP3   OH234225   7.539   2.321   2.842
11423TIP3    H134226   7.630   2.338   2.867
11423TIP3    H234227   7.495   2.404   2.858
11424TIP3   OH234228   6.876   5.066   6.635
11424TIP3    H134229   6.897   5.121   6.710
11424TIP3    H234230   6.825   5.123   6.578
11425TIP3   OH234231   7.942   1.214   5.045
11425TIP3    H134232   7.872   1.236   5.105
11425TIP3    H234233   7.949   1.290   4.987
11426TIP3   OH234234   8.059   5.246   0.576
11426TIP3    H134235   8.119   5.270   0.647
11426TIP3    H234236   8.062   5.150   0.575
11427TIP3   OH234237   1.711   2.033   1.093
11427TIP3    H134238   1.675   2.046   1.181
11427TIP3    H234239   1.736   2.121   1.065
11428TIP3   OH234240   5.446   0.928   2.501
11428TIP3    H134241   5.381   0.874   2.545
11428TIP3    H234242   5.530   0.892   2.529
11429TIP3   OH234243   4.981   7.773   0.746
11429TIP3    H134244   5.025   7.857   0.735
11429TIP3    H234245   4.943   7.755   0.660
11430TIP3   OH234246   6.794   4.261   4.329
11430TIP3    H134247   6.706   4.229   4.313
11430TIP3    H234248   6.812   4.321   4.257
11431TIP3   OH234249   4.663   0.696   1.590
11431TIP3    H134250   4.705   0.690   1.676
11431TIP3    H234251   4.713   0.763   1.543
11432TIP3   OH234252   4.293   6.700   1.194
11432TIP3    H134253   4.383   6.729   1.182
11432TIP3    H234254   4.263   6.745   1.273
11433TIP3   OH234255   1.922   4.540   0.708
11433TIP3    H134256   1.949   4.630   0.727
11433TIP3    H234257   1.932   4.533   0.613
11434TIP3   OH234258   6.521   2.849   6.777
11434TIP3    H134259   6.508   2.930   6.726
11434TIP3    H234260   6.540   2.782   6.712
11435TIP3   OH234261   0.034   3.663   0.228
11435TIP3    H134262   0.035   3.573   0.194
11435TIP3    H234263   0.040   3.652   0.323
11436TIP3   OH234264   7.764   0.654   0.399
11436TIP3    H134265   7.844   0.620   0.359
11436TIP3    H234266   7.774   0.638   0.493
11437TIP3   OH234267   3.353   6.556   3.966
11437TIP3    H134268   3.435   6.508   3.953
11437TIP3    H234269   3.288   6.488   3.980
11438TIP3   OH234270   7.191   5.017   1.770
11438TIP3    H134271   7.267   4.980   1.815
11438TIP3    H234272   7.188   5.109   1.798
11439TIP3   OH234273   0.031   3.133   3.664
11439TIP3    H134274  -0.064   3.141   3.659
11439TIP3    H234275   0.058   3.113   3.574
11440TIP3   OH234276   6.209   3.157   2.442
11440TIP3    H134277   6.240   3.246   2.429
11440TIP3    H234278   6.279   3.114   2.490
11441TIP3   OH234279   4.736   2.962   0.796
11441TIP3    H134280   4.724   2.879   0.748
11441TIP3    H234281   4.656   3.011   0.778
11442TIP3   OH234282   1.570   0.835   6.112
11442TIP3    H134283   1.561   0.927   6.134
11442TIP3    H234284   1.480   0.801   6.111
11443TIP3   OH234285   2.137   6.872   4.325
11443TIP3    H134286   2.066   6.809   4.309
11443TIP3    H234287   2.194   6.864   4.248
11444TIP3   OH234288   5.496   2.796   6.266
11444TIP3    H134289   5.463   2.712   6.235
11444TIP3    H234290   5.417   2.851   6.273
11445TIP3   OH234291   5.864   6.924   0.154
11445TIP3    H134292   5.808   6.864   0.105
11445TIP3    H234293   5.860   7.006   0.105
11446TIP3   OH234294   2.101   0.872   0.311
11446TIP3    H134295   2.110   0.901   0.402
11446TIP3    H234296   2.094   0.952   0.260
11447TIP3   OH234297   5.756   4.995   3.814
11447TIP3    H134298   5.785   4.992   3.905
11447TIP3    H234299   5.718   4.909   3.798
11448TIP3   OH234300   7.753   1.833   0.928
11448TIP3    H134301   7.667   1.797   0.905
11448TIP3    H234302   7.734   1.924   0.951
11449TIP3   OH234303   6.853   7.528   5.558
11449TIP3    H134304   6.878   7.451   5.609
11449TIP3    H234305   6.874   7.504   5.467
11450TIP3   OH234306   5.335   5.030   3.136
11450TIP3    H134307   5.289   5.105   3.174
11450TIP3    H234308   5.265   4.977   3.097
11451TIP3   OH234309   3.818   1.093   5.971
11451TIP3    H134310   3.813   1.109   5.877
11451TIP3    H234311   3.766   1.013   5.985
11452TIP3   OH234312   4.597   3.358   3.320
11452TIP3    H134313   4.633   3.430   3.268
11452TIP3    H234314   4.574   3.398   3.404
11453TIP3   OH234315   7.713   5.454   6.784
11453TIP3    H134316   7.761   5.376   6.754
11453TIP3    H234317   7.629   5.420   6.815
11454TIP3   OH234318   0.162   6.204   4.949
11454TIP3    H134319   0.200   6.272   5.005
11454TIP3    H234320   0.228   6.135   4.946
11455TIP3   OH234321   7.461   2.884   0.198
11455TIP3    H134322   7.369   2.861   0.186
11455TIP3    H234323   7.505   2.853   0.119
11456TIP3   OH234324   6.512   6.165   4.136
11456TIP3    H134325   6.604   6.192   4.137
11456TIP3    H234326   6.474   6.208   4.213
11457TIP3   OH234327   6.725   3.023   4.515
11457TIP3    H134328   6.643   3.016   4.465
11457TIP3    H234329   6.792   2.992   4.455
11458TIP3   OH234330   8.211   6.352   4.925
11458TIP3    H134331   8.291   6.300   4.926
11458TIP3    H234332   8.238   6.437   4.892
11459TIP3   OH234333   7.093   7.012   6.648
11459TIP3    H134334   7.040   7.092   6.642
11459TIP3    H234335   7.044   6.955   6.708
11460TIP3   OH234336   2.291   4.029   4.745
11460TIP3    H134337   2.305   3.980   4.664
11460TIP3    H234338   2.275   4.119   4.717
11461TIP3   OH234339   4.452   5.880   6.313
11461TIP3    H134340   4.397   5.955   6.295
11461TIP3    H234341   4.488   5.855   6.228
11462TIP3   OH234342   0.332   1.681   2.662
11462TIP3    H134343   0.282   1.704   2.740
11462TIP3    H234344   0.391   1.755   2.648
11463TIP3   OH234345   0.248   5.846   1.111
11463TIP3    H134346   0.185   5.789   1.155
11463TIP3    H234347   0.330   5.797   1.112
11464TIP3   OH234348   7.781   7.612   4.828
11464TIP3    H134349   7.690   7.630   4.807
11464TIP3    H234350   7.797   7.523   4.797
11465TIP3   OH234351   5.087   6.706   6.415
11465TIP3    H134352   5.125   6.641   6.473
11465TIP3    H234353   5.106   6.674   6.327
11466TIP3   OH234354   2.738   2.889   3.999
11466TIP3    H134355   2.676   2.958   4.021
11466TIP3    H234356   2.796   2.885   4.075
11467TIP3   OH234357   6.350   7.728   2.131
11467TIP3    H134358   6.356   7.783   2.210
11467TIP3    H234359   6.345   7.639   2.164
11468TIP3   OH234360   8.017   2.297   3.749
11468TIP3    H134361   7.999   2.211   3.787
11468TIP3    H234362   8.099   2.285   3.700
11469TIP3   OH234363   6.015   4.863   5.115
11469TIP3    H134364   6.096   4.910   5.097
11469TIP3    H234365   6.012   4.793   5.050
11470TIP3   OH234366   4.361   3.584   3.060
11470TIP3    H134367   4.339   3.583   2.967
11470TIP3    H234368   4.405   3.668   3.073
11471TIP3   OH234369   5.690   1.093   0.985
11471TIP3    H134370   5.659   1.041   1.059
11471TIP3    H234371   5.632   1.069   0.913
11472TIP3   OH234372   7.493   1.346   1.145
11472TIP3    H134373   7.399   1.329   1.146
11472TIP3    H234374   7.528   1.288   1.213
11473TIP3   OH234375   7.566   1.754   0.631
11473TIP3    H134376   7.529   1.734   0.718
11473TIP3    H234377   7.574   1.669   0.589
11474TIP3   OH234378   5.209   2.498   3.310
11474TIP3    H134379   5.183   2.590   3.302
11474TIP3    H234380   5.301   2.501   3.335
11475TIP3   OH234381   0.063   2.485   1.460
11475TIP3    H134382   0.013   2.566   1.451
11475TIP3    H234383   0.154   2.511   1.445
11476TIP3   OH234384   7.780   1.222   0.634
11476TIP3    H134385   7.855   1.198   0.580
11476TIP3    H234386   7.785   1.317   0.642
11477TIP3   OH234387   3.255   7.101   2.287
11477TIP3    H134388   3.223   7.079   2.199
11477TIP3    H234389   3.180   7.084   2.344
11478TIP3   OH234390   6.326   1.625   2.062
11478TIP3    H134391   6.285   1.652   2.144
11478TIP3    H234392   6.294   1.536   2.046
11479TIP3   OH234393   3.771   7.269   6.080
11479TIP3    H134394   3.677   7.248   6.080
11479TIP3    H234395   3.807   7.212   6.012
11480TIP3   OH234396   2.459   1.459   0.579
11480TIP3    H134397   2.378   1.408   0.580
11480TIP3    H234398   2.442   1.533   0.637
11481TIP3   OH234399   4.028   2.857   1.274
11481TIP3    H134400   3.965   2.900   1.217
11481TIP3    H234401   3.975   2.808   1.336
11482TIP3   OH234402   2.737   5.484   6.098
11482TIP3    H134403   2.689   5.507   6.018
11482TIP3    H234404   2.749   5.567   6.144
11483TIP3   OH234405   6.373   7.733   6.479
11483TIP3    H134406   6.427   7.655   6.478
11483TIP3    H234407   6.392   7.776   6.395
11484TIP3   OH234408   7.270   5.841   2.409
11484TIP3    H134409   7.259   5.768   2.348
11484TIP3    H234410   7.209   5.907   2.379
11485TIP3   OH234411   5.887   2.792   3.845
11485TIP3    H134412   5.864   2.879   3.877
11485TIP3    H234413   5.838   2.732   3.902
11486TIP3   OH234414   7.914   0.152   1.212
11486TIP3    H134415   7.847   0.096   1.173
11486TIP3    H234416   7.997   0.113   1.186
11487TIP3   OH234417   7.198   6.485   3.245
11487TIP3    H134418   7.132   6.458   3.308
11487TIP3    H234419   7.281   6.460   3.286
11488TIP3   OH234420   1.173   4.374   5.111
11488TIP3    H134421   1.120   4.406   5.185
11488TIP3    H234422   1.199   4.286   5.136
11489TIP3   OH234423   8.063   7.159   4.762
11489TIP3    H134424   8.011   7.102   4.706
11489TIP3    H234425   8.144   7.110   4.777
11490TIP3   OH234426   5.164   2.506   5.505
11490TIP3    H134427   5.188   2.423   5.547
11490TIP3    H234428   5.237   2.564   5.523
11491TIP3   OH234429   4.037   6.023   1.788
11491TIP3    H134430   4.035   5.928   1.786
11491TIP3    H234431   4.077   6.045   1.872
11492TIP3   OH234432   4.307   1.639   4.182
11492TIP3    H134433   4.308   1.673   4.271
11492TIP3    H234434   4.278   1.548   4.191
11493TIP3   OH234435   6.281   2.872   4.861
11493TIP3    H134436   6.254   2.915   4.780
11493TIP3    H234437   6.233   2.789   4.862
11494TIP3   OH234438   1.822   3.077   2.824
11494TIP3    H134439   1.878   3.116   2.892
11494TIP3    H234440   1.882   3.055   2.753
11495TIP3   OH234441   4.061   5.605   6.295
11495TIP3    H134442   4.122   5.602   6.222
11495TIP3    H234443   4.114   5.583   6.372
11496TIP3   OH234444   3.557   5.190   5.486
11496TIP3    H134445   3.477   5.171   5.535
11496TIP3    H234446   3.528   5.204   5.396
11497TIP3   OH234447   7.473   1.394   3.359
11497TIP3    H134448   7.417   1.317   3.355
11497TIP3    H234449   7.550   1.371   3.307
11498TIP3   OH234450   8.160   0.150   2.583
11498TIP3    H134451   8.116   0.226   2.544
11498TIP3    H234452   8.099   0.118   2.650
11499TIP3   OH234453   2.580   5.556   4.882
11499TIP3    H134454   2.529   5.550   4.802
11499TIP3    H234455   2.591   5.650   4.896
11500TIP3   OH234456   5.167   5.823   4.860
11500TIP3    H134457   5.130   5.738   4.884
11500TIP3    H234458   5.100   5.865   4.806
11501TIP3   OH234459   4.480   4.793   6.398
11501TIP3    H134460   4.442   4.706   6.387
11501TIP3    H234461   4.480   4.807   6.493
11502TIP3   OH234462   4.666   6.467   4.463
11502TIP3    H134463   4.594   6.467   4.526
11502TIP3    H234464   4.691   6.375   4.455
11503TIP3   OH234465   4.733   5.749   2.376
11503TIP3    H134466   4.825   5.724   2.386
11503TIP3    H234467   4.733   5.813   2.305
11504TIP3   OH234468   3.319   4.157   4.244
11504TIP3    H134469   3.292   4.065   4.244
11504TIP3    H234470   3.237   4.206   4.247
11505TIP3   OH234471   4.871   0.728   1.789
11505TIP3    H134472   4.877   0.796   1.856
11505TIP3    H234473   4.961   0.698   1.778
11506TIP3   OH234474   0.192   7.222   2.109
11506TIP3    H134475   0.150   7.181   2.185
11506TIP3    H234476   0.164   7.169   2.034
11507TIP3   OH234477   1.909   4.521   4.919
11507TIP3    H134478   1.915   4.429   4.894
11507TIP3    H234479   2.000   4.546   4.937
11508TIP3   OH234480   1.781   3.638   2.177
11508TIP3    H134481   1.851   3.685   2.224
11508TIP3    H234482   1.790   3.547   2.206
11509TIP3   OH234483   3.186   1.287   0.595
11509TIP3    H134484   3.216   1.344   0.524
11509TIP3    H234485   3.113   1.238   0.558
11510TIP3   OH234486   7.481   0.385   1.975
11510TIP3    H134487   7.485   0.469   1.930
11510TIP3    H234488   7.408   0.339   1.935
11511TIP3   OH234489   6.034   4.109   6.789
11511TIP3    H134490   5.939   4.124   6.782
11511TIP3    H234491   6.061   4.089   6.699
11512TIP3   OH234492   5.673   6.579   2.925
11512TIP3    H134493   5.579   6.568   2.937
11512TIP3    H234494   5.711   6.497   2.957
11513TIP3   OH234495   2.831   2.995   5.276
11513TIP3    H134496   2.869   3.045   5.204
11513TIP3    H234497   2.884   3.017   5.352
11514TIP3   OH234498   0.328   2.922   6.499
11514TIP3    H134499   0.249   2.893   6.543
11514TIP3    H234500   0.385   2.954   6.569
11515TIP3   OH234501   3.942   1.576   2.618
11515TIP3    H134502   3.987   1.570   2.703
11515TIP3    H234503   3.959   1.492   2.576
11516TIP3   OH234504   1.741   2.472   5.860
11516TIP3    H134505   1.659   2.428   5.838
11516TIP3    H234506   1.785   2.482   5.775
11517TIP3   OH234507   2.475   0.938   6.523
11517TIP3    H134508   2.519   0.877   6.465
11517TIP3    H234509   2.407   0.979   6.469
11518TIP3   OH234510   7.904   3.666   4.453
11518TIP3    H134511   7.911   3.577   4.486
11518TIP3    H234512   7.813   3.691   4.470
11519TIP3   OH234513   7.670   1.502   2.206
11519TIP3    H134514   7.673   1.466   2.295
11519TIP3    H234515   7.579   1.490   2.179
11520TIP3   OH234516   4.377   3.678   0.799
11520TIP3    H134517   4.289   3.642   0.788
11520TIP3    H234518   4.416   3.674   0.712
11521TIP3   OH234519   0.339   7.328   5.364
11521TIP3    H134520   0.258   7.305   5.318
11521TIP3    H234521   0.334   7.423   5.375
11522TIP3   OH234522   2.365   5.787   1.083
11522TIP3    H134523   2.339   5.723   1.149
11522TIP3    H234524   2.310   5.768   1.008
11523TIP3   OH234525   6.028   4.605   0.251
11523TIP3    H134526   5.987   4.555   0.181
11523TIP3    H234527   6.098   4.548   0.284
11524TIP3   OH234528   5.722   4.758   5.150
11524TIP3    H134529   5.661   4.832   5.147
11524TIP3    H234530   5.809   4.799   5.148
11525TIP3   OH234531   1.687   2.514   0.410
11525TIP3    H134532   1.731   2.595   0.434
11525TIP3    H234533   1.631   2.538   0.335
11526TIP3   OH234534   5.810   2.924   3.215
11526TIP3    H134535   5.735   2.980   3.233
11526TIP3    H234536   5.876   2.982   3.178
11527TIP3   OH234537   8.198   6.001   1.318
11527TIP3    H134538   8.218   5.911   1.291
11527TIP3    H234539   8.140   6.034   1.249
11528TIP3   OH234540   2.343   1.361   3.368
11528TIP3    H134541   2.317   1.420   3.297
11528TIP3    H234542   2.419   1.403   3.408
11529TIP3   OH234543   0.037   3.576   6.365
11529TIP3    H134544   0.044   3.652   6.307
11529TIP3    H234545   0.099   3.594   6.435
11530TIP3   OH234546   5.139   0.708   4.348
11530TIP3    H134547   5.105   0.674   4.431
11530TIP3    H234548   5.067   0.759   4.311
11531TIP3   OH234549   0.294   6.230   6.367
11531TIP3    H134550   0.281   6.145   6.324
11531TIP3    H234551   0.325   6.287   6.297
11532TIP3   OH234552   0.759   5.650   2.194
11532TIP3    H134553   0.735   5.741   2.175
11532TIP3    H234554   0.675   5.603   2.192
11533TIP3   OH234555   7.979   0.926   5.220
11533TIP3    H134556   7.893   0.939   5.258
11533TIP3    H234557   8.018   0.856   5.273
11534TIP3   OH234558   4.029   3.220   5.854
11534TIP3    H134559   4.081   3.296   5.828
11534TIP3    H234560   4.044   3.156   5.785
11535TIP3   OH234561   3.828   3.916   1.609
11535TIP3    H134562   3.806   4.009   1.610
11535TIP3    H234563   3.906   3.911   1.554
11536TIP3   OH234564   0.368   5.418   3.451
11536TIP3    H134565   0.280   5.403   3.416
11536TIP3    H234566   0.390   5.337   3.497
11537TIP3   OH234567   7.522   7.332   3.297
11537TIP3    H134568   7.499   7.361   3.209
11537TIP3    H234569   7.616   7.351   3.304
11538TIP3   OH234570   5.781   1.331   2.209
11538TIP3    H134571   5.701   1.382   2.199
11538TIP3    H234572   5.848   1.395   2.233
11539TIP3   OH234573   6.501   2.981   4.331
11539TIP3    H134574   6.438   2.937   4.276
11539TIP3    H234575   6.511   3.068   4.292
11540TIP3   OH234576   0.394   5.526   0.348
11540TIP3    H134577   0.361   5.528   0.437
11540TIP3    H234578   0.421   5.435   0.335
11541TIP3   OH234579   5.913   1.543   6.012
11541TIP3    H134580   5.850   1.497   5.956
11541TIP3    H234581   5.908   1.634   5.985
11542TIP3   OH234582   2.218   2.771   0.850
11542TIP3    H134583   2.136   2.773   0.801
11542TIP3    H234584   2.190   2.764   0.942
11543TIP3   OH234585   6.987   1.660   6.285
11543TIP3    H134586   6.977   1.605   6.363
11543TIP3    H234587   6.904   1.707   6.278
11544TIP3   OH234588   3.884   1.630   0.369
11544TIP3    H134589   3.811   1.575   0.339
11544TIP3    H234590   3.956   1.569   0.383
11545TIP3   OH234591   1.621   0.044   3.036
11545TIP3    H134592   1.568   0.028   2.958
11545TIP3    H234593   1.558   0.048   3.108
11546TIP3   OH234594   6.736   6.326   0.857
11546TIP3    H134595   6.769   6.248   0.813
11546TIP3    H234596   6.789   6.398   0.821
11547TIP3   OH234597   0.306   5.635   2.578
11547TIP3    H134598   0.285   5.721   2.615
11547TIP3    H234599   0.264   5.573   2.638
11548TIP3   OH234600   6.255   1.964   4.397
11548TIP3    H134601   6.284   1.878   4.428
11548TIP3    H234602   6.183   1.988   4.456
11549TIP3   OH234603   1.599   6.212   4.562
11549TIP3    H134604   1.605   6.118   4.546
11549TIP3    H234605   1.681   6.235   4.606
11550TIP3   OH234606   8.129   0.876   1.499
11550TIP3    H134607   8.065   0.881   1.428
11550TIP3    H234608   8.163   0.787   1.495
11551TIP3   OH234609   6.795   6.052   1.228
11551TIP3    H134610   6.793   6.145   1.252
11551TIP3    H234611   6.753   6.049   1.142
11552TIP3   OH234612   6.448   5.326   1.371
11552TIP3    H134613   6.486   5.276   1.443
11552TIP3    H234614   6.353   5.315   1.382
11553TIP3   OH234615   6.545   3.507   6.023
11553TIP3    H134616   6.540   3.585   5.967
11553TIP3    H234617   6.524   3.434   5.964
11554TIP3   OH234618   5.471   4.334   2.552
11554TIP3    H134619   5.469   4.272   2.479
11554TIP3    H234620   5.399   4.395   2.533
11555TIP3   OH234621   4.175   1.747   2.256
11555TIP3    H134622   4.110   1.817   2.265
11555TIP3    H234623   4.233   1.778   2.187
11556TIP3   OH234624   4.523   3.402   2.709
11556TIP3    H134625   4.570   3.326   2.676
11556TIP3    H234626   4.588   3.451   2.759
11557TIP3   OH234627   4.724   1.087   2.505
11557TIP3    H134628   4.655   1.040   2.552
11557TIP3    H234629   4.799   1.027   2.508
11558TIP3   OH234630   6.915   3.835   1.640
11558TIP3    H134631   6.984   3.773   1.618
11558TIP3    H234632   6.838   3.780   1.658
11559TIP3   OH234633   1.923   4.239   5.924
11559TIP3    H134634   1.937   4.146   5.943
11559TIP3    H234635   1.964   4.286   5.996
11560TIP3   OH234636   6.229   1.481   3.007
11560TIP3    H134637   6.200   1.513   2.921
11560TIP3    H234638   6.197   1.391   3.011
11561TIP3   OH234639   5.779   4.073   3.137
11561TIP3    H134640   5.693   4.039   3.115
11561TIP3    H234641   5.826   4.077   3.054
11562TIP3   OH234642   4.124   0.532   2.334
11562TIP3    H134643   4.095   0.494   2.416
11562TIP3    H234644   4.068   0.493   2.267
11563TIP3   OH234645   5.679   2.126   0.169
11563TIP3    H134646   5.650   2.127   0.260
11563TIP3    H234647   5.643   2.207   0.132
11564TIP3   OH234648   2.619   5.062   1.010
11564TIP3    H134649   2.524   5.073   1.009
11564TIP3    H234650   2.653   5.139   0.965
11565TIP3   OH234651   2.879   0.002   5.598
11565TIP3    H134652   2.877   0.076   5.537
11565TIP3    H234653   2.881  -0.076   5.543
11566TIP3   OH234654   4.392   3.185   0.208
11566TIP3    H134655   4.380   3.207   0.115
11566TIP3    H234656   4.394   3.089   0.209
11567TIP3   OH234657   3.333   3.183   5.647
11567TIP3    H134658   3.314   3.211   5.557
11567TIP3    H234659   3.305   3.256   5.701
11568TIP3   OH234660   1.063   3.149   3.583
11568TIP3    H134661   1.138   3.210   3.582
11568TIP3    H234662   1.103   3.063   3.573
11569TIP3   OH234663   6.073   6.838   4.043
11569TIP3    H134664   6.154   6.821   4.091
11569TIP3    H234665   6.100   6.886   3.965
11570TIP3   OH234666   2.099   4.128   3.928
11570TIP3    H134667   2.060   4.161   3.847
11570TIP3    H234668   2.024   4.107   3.983
11571TIP3   OH234669   7.108   0.572   6.382
11571TIP3    H134670   7.079   0.528   6.303
11571TIP3    H234671   7.099   0.506   6.451
11572TIP3   OH234672   0.723   4.093   2.721
11572TIP3    H134673   0.656   4.154   2.691
11572TIP3    H234674   0.735   4.114   2.814
11573TIP3   OH234675   1.349   3.068   2.990
11573TIP3    H134676   1.349   3.153   3.035
11573TIP3    H234677   1.285   3.079   2.920
11574TIP3   OH234678   1.279   7.572   3.582
11574TIP3    H134679   1.217   7.543   3.515
11574TIP3    H234680   1.277   7.502   3.648
11575TIP3   OH234681   7.017   3.900   3.374
11575TIP3    H134682   7.029   3.846   3.295
11575TIP3    H234683   7.106   3.913   3.407
11576TIP3   OH234684   3.585   5.125   6.060
11576TIP3    H134685   3.565   5.209   6.100
11576TIP3    H234686   3.636   5.147   5.982
11577TIP3   OH234687   2.428   5.032   5.823
11577TIP3    H134688   2.510   5.079   5.842
11577TIP3    H234689   2.411   4.982   5.903
11578TIP3   OH234690   0.036   7.797   3.822
11578TIP3    H134691   0.000   7.883   3.804
11578TIP3    H234692   0.094   7.779   3.748
11579TIP3   OH234693   6.079   4.360   1.907
11579TIP3    H134694   6.022   4.432   1.933
11579TIP3    H234695   6.153   4.403   1.864
11580TIP3   OH234696   2.139   2.973   0.213
11580TIP3    H134697   2.162   2.880   0.220
11580TIP3    H234698   2.105   2.982   0.124
11581TIP3   OH234699   2.725   3.052   0.213
11581TIP3    H134700   2.819   3.066   0.205
11581TIP3    H234701   2.691   3.064   0.124
11582TIP3   OH234702   6.920   5.579   0.857
11582TIP3    H134703   6.919   5.533   0.941
11582TIP3    H234704   7.006   5.620   0.853
11583TIP3   OH234705   6.262   5.018   3.390
11583TIP3    H134706   6.277   5.010   3.484
11583TIP3    H234707   6.342   5.060   3.356
11584TIP3   OH234708   4.186   2.521   0.722
11584TIP3    H134709   4.253   2.543   0.787
11584TIP3    H234710   4.118   2.476   0.773
11585TIP3   OH234711   3.935   5.248   2.239
11585TIP3    H134712   3.921   5.178   2.303
11585TIP3    H234713   3.925   5.329   2.289
11586TIP3   OH234714   7.843   6.750   4.668
11586TIP3    H134715   7.811   6.676   4.719
11586TIP3    H234716   7.789   6.824   4.696
11587TIP3   OH234717   5.965   5.249   4.347
11587TIP3    H134718   5.964   5.196   4.268
11587TIP3    H234719   5.882   5.230   4.391
11588TIP3   OH234720   5.521   2.354   3.126
11588TIP3    H134721   5.516   2.418   3.055
11588TIP3    H234722   5.471   2.278   3.095
11589TIP3   OH234723   4.846   6.799   2.813
11589TIP3    H134724   4.837   6.802   2.718
11589TIP3    H234725   4.758   6.816   2.846
11590TIP3   OH234726   1.228   0.797   0.750
11590TIP3    H134727   1.310   0.765   0.712
11590TIP3    H234728   1.255   0.867   0.810
11591TIP3   OH234729   2.529   3.924   4.393
11591TIP3    H134730   2.443   3.955   4.420
11591TIP3    H234731   2.566   3.996   4.344
11592TIP3   OH234732   3.699   7.362   5.452
11592TIP3    H134733   3.614   7.328   5.480
11592TIP3    H234734   3.758   7.340   5.525
11593TIP3   OH234735   0.109   0.131   2.677
11593TIP3    H134736   0.019   0.122   2.644
11593TIP3    H234737   0.134   0.221   2.655
11594TIP3   OH234738   3.654   0.838   3.850
11594TIP3    H134739   3.677   0.750   3.880
11594TIP3    H234740   3.715   0.896   3.896
11595TIP3   OH234741   7.387   4.954   0.998
11595TIP3    H134742   7.297   4.941   1.027
11595TIP3    H234743   7.392   5.048   0.978
11596TIP3   OH234744   8.151   7.362   2.373
11596TIP3    H134745   8.126   7.390   2.461
11596TIP3    H234746   8.100   7.418   2.315
11597TIP3   OH234747   2.279   4.639   1.547
11597TIP3    H134748   2.368   4.615   1.572
11597TIP3    H234749   2.224   4.594   1.612
11598TIP3   OH234750   2.040   7.070   4.807
11598TIP3    H134751   2.007   7.079   4.718
11598TIP3    H234752   2.116   7.129   4.811
11599TIP3   OH234753   5.301   5.109   5.562
11599TIP3    H134754   5.243   5.128   5.637
11599TIP3    H234755   5.246   5.125   5.485
11600TIP3   OH234756   6.581   0.773   0.740
11600TIP3    H134757   6.529   0.724   0.804
11600TIP3    H234758   6.583   0.717   0.663
11601TIP3   OH234759   6.010   1.760   2.150
11601TIP3    H134760   5.995   1.727   2.061
11601TIP3    H234761   6.008   1.855   2.141
11602TIP3   OH234762   1.479   5.535   5.944
11602TIP3    H134763   1.449   5.568   5.859
11602TIP3    H234764   1.562   5.580   5.959
11603TIP3   OH234765   4.523   4.222   5.000
11603TIP3    H134766   4.584   4.154   5.028
11603TIP3    H234767   4.474   4.245   5.079
11604TIP3   OH234768   2.920   1.202   0.574
11604TIP3    H134769   2.825   1.202   0.569
11604TIP3    H234770   2.944   1.110   0.580
11605TIP3   OH234771   7.352   1.643   3.321
11605TIP3    H134772   7.395   1.698   3.386
11605TIP3    H234773   7.355   1.555   3.358
11606TIP3   OH234774   7.460   3.297   5.415
11606TIP3    H134775   7.400   3.350   5.468
11606TIP3    H234776   7.529   3.359   5.388
11607TIP3   OH234777   7.265   1.952   6.043
11607TIP3    H134778   7.359   1.966   6.046
11607TIP3    H234779   7.229   2.039   6.025
11608TIP3   OH234780   5.843   3.781   1.069
11608TIP3    H134781   5.926   3.781   1.021
11608TIP3    H234782   5.865   3.821   1.153
11609TIP3   OH234783   0.557   7.227   2.364
11609TIP3    H134784   0.466   7.207   2.382
11609TIP3    H234785   0.555   7.314   2.323
11610TIP3   OH234786   7.159   1.913   0.578
11610TIP3    H134787   7.108   1.912   0.659
11610TIP3    H234788   7.238   1.962   0.600
11611TIP3   OH234789   4.719  -0.013   1.852
11611TIP3    H134790   4.729   0.040   1.931
11611TIP3    H234791   4.799   0.002   1.802
11612TIP3   OH234792   0.081   7.496   3.712
11612TIP3    H134793   0.050   7.424   3.767
11612TIP3    H234794   0.148   7.456   3.656
11613TIP3   OH234795   4.758   1.385   3.274
11613TIP3    H134796   4.785   1.476   3.267
11613TIP3    H234797   4.840   1.335   3.277
11614TIP3   OH234798   1.212   5.624   0.488
11614TIP3    H134799   1.120   5.643   0.505
11614TIP3    H234800   1.246   5.703   0.445
11615TIP3   OH234801   5.975   6.768   1.777
11615TIP3    H134802   5.896   6.804   1.816
11615TIP3    H234803   6.029   6.845   1.758
11616TIP3   OH234804   3.317   2.013   3.234
11616TIP3    H134805   3.294   2.086   3.292
11616TIP3    H234806   3.326   2.053   3.147
11617TIP3   OH234807   4.906   5.550   6.289
11617TIP3    H134808   4.836   5.497   6.328
11617TIP3    H234809   4.875   5.569   6.201
11618TIP3   OH234810   6.290   4.355   0.842
11618TIP3    H134811   6.340   4.422   0.888
11618TIP3    H234812   6.272   4.392   0.756
11619TIP3   OH234813   2.506   6.269   4.641
11619TIP3    H134814   2.595   6.237   4.629
11619TIP3    H234815   2.478   6.232   4.725
11620TIP3   OH234816   5.819   1.622   6.509
11620TIP3    H134817   5.776   1.633   6.425
11620TIP3    H234818   5.762   1.563   6.558
11621TIP3   OH234819   4.409   1.911   2.601
11621TIP3    H134820   4.358   1.964   2.663
11621TIP3    H234821   4.364   1.827   2.600
11622TIP3   OH234822   6.916   6.288   2.676
11622TIP3    H134823   6.873   6.275   2.761
11622TIP3    H234824   6.972   6.365   2.689
11623TIP3   OH234825   5.283   7.776   6.001
11623TIP3    H134826   5.286   7.832   6.079
11623TIP3    H234827   5.299   7.688   6.034
11624TIP3   OH234828   4.826   1.908   0.840
11624TIP3    H134829   4.800   1.954   0.760
11624TIP3    H234830   4.904   1.953   0.870
11625TIP3   OH234831   2.380   4.018   3.340
11625TIP3    H134832   2.451   3.967   3.301
11625TIP3    H234833   2.424   4.096   3.376
11626TIP3   OH234834   0.348   2.491   1.415
11626TIP3    H134835   0.332   2.399   1.436
11626TIP3    H234836   0.402   2.523   1.487
11627TIP3   OH234837   3.271   3.894   6.557
11627TIP3    H134838   3.320   3.972   6.580
11627TIP3    H234839   3.201   3.889   6.622
11628TIP3   OH234840   2.737   1.312   3.611
11628TIP3    H134841   2.800   1.275   3.549
11628TIP3    H234842   2.791   1.346   3.683
11629TIP3   OH234843   5.735   0.531   2.073
11629TIP3    H134844   5.808   0.536   2.134
11629TIP3    H234845   5.708   0.622   2.060
11630TIP3   OH234846   0.798   2.888   1.937
11630TIP3    H134847   0.841   2.960   1.984
11630TIP3    H234848   0.816   2.811   1.990
11631TIP3   OH234849   3.016   3.231   4.518
11631TIP3    H134850   2.949   3.299   4.520
11631TIP3    H234851   2.971   3.153   4.549
11632TIP3   OH234852   5.508   4.484   0.800
11632TIP3    H134853   5.561   4.407   0.820
11632TIP3    H234854   5.469   4.509   0.884
11633TIP3   OH234855   0.789   0.771   1.305
11633TIP3    H134856   0.774   0.820   1.224
11633TIP3    H234857   0.804   0.838   1.371
11634TIP3   OH234858   8.262   3.157   1.451
11634TIP3    H134859   8.229   3.114   1.373
11634TIP3    H234860   8.356   3.160   1.440
11635TIP3   OH234861   7.268   5.069   3.853
11635TIP3    H134862   7.275   5.014   3.775
11635TIP3    H234863   7.173   5.080   3.866
11636TIP3   OH234864   1.440   1.206   0.086
11636TIP3    H134865   1.457   1.299   0.098
11636TIP3    H234866   1.410   1.176   0.171
11637TIP3   OH234867   5.069   5.460   6.560
11637TIP3    H134868   5.056   5.426   6.648
11637TIP3    H234869   5.144   5.412   6.527
11638TIP3   OH234870   3.118   1.285   4.053
11638TIP3    H134871   3.120   1.246   4.141
11638TIP3    H234872   3.194   1.343   4.051
11639TIP3   OH234873   2.281   0.334   0.077
11639TIP3    H134874   2.341   0.378   0.018
11639TIP3    H234875   2.224   0.404   0.109
11640TIP3   OH234876   3.581   5.864   0.664
11640TIP3    H134877   3.547   5.793   0.718
11640TIP3    H234878   3.666   5.886   0.703
11641TIP3   OH234879   7.113   3.682   1.475
11641TIP3    H134880   7.061   3.602   1.476
11641TIP3    H234881   7.157   3.682   1.390
11642TIP3   OH234882   1.840   3.263   4.362
11642TIP3    H134883   1.911   3.291   4.305
11642TIP3    H234884   1.765   3.315   4.333
11643TIP3   OH234885   1.646   5.761   2.937
11643TIP3    H134886   1.577   5.824   2.917
11643TIP3    H234887   1.693   5.800   3.011
11644TIP3   OH234888   1.681   5.802   0.895
11644TIP3    H134889   1.681   5.833   0.986
11644TIP3    H234890   1.589   5.778   0.878
11645TIP3   OH234891   7.159   5.293   5.368
11645TIP3    H134892   7.174   5.239   5.291
11645TIP3    H234893   7.100   5.362   5.338
11646TIP3   OH234894   5.929   3.926   1.281
11646TIP3    H134895   5.913   3.919   1.375
11646TIP3    H234896   5.967   4.013   1.269
11647TIP3   OH234897   7.332   5.956   6.084
11647TIP3    H134898   7.326   5.881   6.142
11647TIP3    H234899   7.243   5.965   6.047
11648TIP3   OH234900   0.057   5.065   2.644
11648TIP3    H134901   0.079   5.010   2.719
11648TIP3    H234902   0.000   5.010   2.590
11649TIP3   OH234903   2.652   5.735  -0.005
11649TIP3    H134904   2.598   5.752   0.071
11649TIP3    H234905   2.739   5.767   0.019
11650TIP3   OH234906   4.690   5.656   0.600
11650TIP3    H134907   4.694   5.725   0.666
11650TIP3    H234908   4.774   5.611   0.607
11651TIP3   OH234909   3.321   2.263   4.959
11651TIP3    H134910   3.273   2.264   5.042
11651TIP3    H234911   3.273   2.201   4.904
11652TIP3   OH234912   5.528   0.388   0.311
11652TIP3    H134913   5.524   0.462   0.372
11652TIP3    H234914   5.610   0.344   0.332
11653TIP3   OH234915   2.189   0.357   1.176
11653TIP3    H134916   2.145   0.304   1.242
11653TIP3    H234917   2.281   0.356   1.202
11654TIP3   OH234918   1.084   6.445   6.632
11654TIP3    H134919   1.152   6.445   6.699
11654TIP3    H234920   1.097   6.526   6.584
11655TIP3   OH234921   5.875   1.102   4.288
11655TIP3    H134922   5.836   1.148   4.213
11655TIP3    H234923   5.802   1.087   4.348
11656TIP3   OH234924   6.434   0.151   4.814
11656TIP3    H134925   6.511   0.130   4.867
11656TIP3    H234926   6.426   0.246   4.820
11657TIP3   OH234927   4.711   2.506   5.392
11657TIP3    H134928   4.679   2.588   5.430
11657TIP3    H234929   4.806   2.509   5.403
11658TIP3   OH234930   0.671   7.150   4.468
11658TIP3    H134931   0.702   7.090   4.536
11658TIP3    H234932   0.697   7.237   4.499
11659TIP3   OH234933   5.222   1.673   5.784
11659TIP3    H134934   5.146   1.627   5.748
11659TIP3    H234935   5.195   1.702   5.871
11660TIP3   OH234936   2.363   5.734   1.498
11660TIP3    H134937   2.301   5.797   1.533
11660TIP3    H234938   2.318   5.694   1.423
11661TIP3   OH234939   7.855   4.139   1.023
11661TIP3    H134940   7.905   4.083   0.963
11661TIP3    H234941   7.921   4.179   1.080
11662TIP3   OH234942   4.599   7.483   4.020
11662TIP3    H134943   4.606   7.578   4.029
11662TIP3    H234944   4.508   7.468   3.997
11663TIP3   OH234945   2.712   3.579   1.409
11663TIP3    H134946   2.786   3.539   1.454
11663TIP3    H234947   2.669   3.632   1.477
11664TIP3   OH234948   2.627   6.016   2.186
11664TIP3    H134949   2.640   5.988   2.276
11664TIP3    H234950   2.592   5.939   2.141
11665TIP3   OH234951   2.976   0.513   3.316
11665TIP3    H134952   2.983   0.572   3.391
11665TIP3    H234953   3.059   0.522   3.270
11666TIP3   OH234954   3.035   4.098   0.656
11666TIP3    H134955   3.022   4.174   0.598
11666TIP3    H234956   3.130   4.085   0.657
11667TIP3   OH234957   1.119   1.581   3.900
11667TIP3    H134958   1.120   1.486   3.910
11667TIP3    H234959   1.211   1.607   3.907
11668TIP3   OH234960   0.814   6.456   3.922
11668TIP3    H134961   0.769   6.473   3.839
11668TIP3    H234962   0.843   6.542   3.952
11669TIP3   OH234963   8.043   2.958   0.094
11669TIP3    H134964   8.014   2.979   0.006
11669TIP3    H234965   8.048   3.043   0.139
11670TIP3   OH234966   4.140   5.225   3.350
11670TIP3    H134967   4.175   5.228   3.261
11670TIP3    H234968   4.058   5.274   3.345
11671TIP3   OH234969   6.003   7.081   0.345
11671TIP3    H134970   5.930   7.127   0.386
11671TIP3    H234971   5.963   7.023   0.280
11672TIP3   OH234972   4.208   1.361   4.150
11672TIP3    H134973   4.135   1.416   4.124
11672TIP3    H234974   4.169   1.292   4.204
11673TIP3   OH234975   6.278   7.597   5.147
11673TIP3    H134976   6.296   7.612   5.055
11673TIP3    H234977   6.190   7.632   5.160
11674TIP3   OH234978   2.595   2.538   6.523
11674TIP3    H134979   2.660   2.600   6.554
11674TIP3    H234980   2.637   2.452   6.533
11675TIP3   OH234981   0.532   6.305   1.827
11675TIP3    H134982   0.564   6.383   1.873
11675TIP3    H234983   0.494   6.339   1.746
11676TIP3   OH234984   2.823   2.363   6.038
11676TIP3    H134985   2.764   2.427   6.078
11676TIP3    H234986   2.765   2.304   5.990
11677TIP3   OH234987   1.790   2.026   1.934
11677TIP3    H134988   1.843   1.997   2.008
11677TIP3    H234989   1.740   2.100   1.968
11678TIP3   OH234990   2.045   3.282   4.186
11678TIP3    H134991   2.000   3.222   4.126
11678TIP3    H234992   2.063   3.359   4.133
11679TIP3   OH234993   1.752   2.297   6.354
11679TIP3    H134994   1.667   2.259   6.376
11679TIP3    H234995   1.807   2.223   6.330
11680TIP3   OH234996   0.533   4.896   3.731
11680TIP3    H134997   0.554   4.876   3.822
11680TIP3    H234998   0.510   4.812   3.692
11681TIP3   OH234999   2.809   4.484   3.775
11681TIP3    H135000   2.814   4.521   3.863
11681TIP3    H235001   2.731   4.525   3.737
11682TIP3   OH235002   0.421   2.415   0.271
11682TIP3    H135003   0.493   2.465   0.310
11682TIP3    H235004   0.386   2.472   0.203
11683TIP3   OH235005   3.471   6.739   3.790
11683TIP3    H135006   3.417   6.690   3.852
11683TIP3    H235007   3.422   6.819   3.773
11684TIP3   OH235008   5.648   6.127   3.583
11684TIP3    H135009   5.591   6.136   3.660
11684TIP3    H235010   5.613   6.190   3.520
11685TIP3   OH235011   7.172   2.177   0.099
11685TIP3    H135012   7.156   2.269   0.118
11685TIP3    H235013   7.252   2.156   0.147
11686TIP3   OH235014   0.613   5.185   3.668
11686TIP3    H135015   0.533   5.223   3.706
11686TIP3    H235016   0.605   5.092   3.685
11687TIP3   OH235017   6.364   7.534   0.845
11687TIP3    H135018   6.377   7.445   0.879
11687TIP3    H235019   6.284   7.565   0.889
11688TIP3   OH235020   1.339   4.468   2.477
11688TIP3    H135021   1.286   4.395   2.511
11688TIP3    H235022   1.359   4.444   2.387
11689TIP3   OH235023   7.157   2.384   6.423
11689TIP3    H135024   7.136   2.374   6.330
11689TIP3    H235025   7.150   2.295   6.458
11690TIP3   OH235026   5.242   0.144   4.614
11690TIP3    H135027   5.160   0.098   4.632
11690TIP3    H235028   5.287   0.089   4.549
11691TIP3   OH235029   7.996   5.794   2.731
11691TIP3    H135030   8.081   5.756   2.709
11691TIP3    H235031   7.946   5.788   2.650
11692TIP3   OH235032   6.947   4.530   4.804
11692TIP3    H135033   6.875   4.479   4.841
11692TIP3    H235034   6.913   4.564   4.721
11693TIP3   OH235035   5.426   5.979   6.742
11693TIP3    H135036   5.349   5.943   6.700
11693TIP3    H235037   5.394   6.017   6.823
11694TIP3   OH235038   3.582   4.822   1.709
11694TIP3    H135039   3.567   4.800   1.617
11694TIP3    H235040   3.573   4.739   1.755
11695TIP3   OH235041   3.409   0.414   0.140
11695TIP3    H135042   3.486   0.433   0.085
11695TIP3    H235043   3.372   0.334   0.103
11696TIP3   OH235044   2.163   4.810   0.032
11696TIP3    H135045   2.159   4.795  -0.063
11696TIP3    H235046   2.094   4.875   0.048
11697TIP3   OH235047   1.708   1.781   6.634
11697TIP3    H135048   1.759   1.861   6.621
11697TIP3    H235049   1.718   1.761   6.727
11698TIP3   OH235050   5.402   4.516   4.126
11698TIP3    H135051   5.340   4.570   4.078
11698TIP3    H235052   5.397   4.547   4.216
11699TIP3   OH235053   8.047   6.891   1.833
11699TIP3    H135054   8.063   6.884   1.739
11699TIP3    H235055   7.956   6.920   1.840
11700TIP3   OH235056   5.503   0.643   2.781
11700TIP3    H135057   5.424   0.597   2.752
11700TIP3    H235058   5.542   0.678   2.701
11701TIP3   OH235059   4.309   7.405   5.463
11701TIP3    H135060   4.370   7.431   5.532
11701TIP3    H235061   4.230   7.378   5.511
11702TIP3   OH235062   8.025   3.918   0.881
11702TIP3    H135063   7.972   3.892   0.806
11702TIP3    H235064   8.062   3.836   0.914
11703TIP3   OH235065   2.671   0.049   3.434
11703TIP3    H135066   2.636   0.097   3.359
11703TIP3    H235067   2.598   0.044   3.496
11704TIP3   OH235068   6.511   3.510   1.417
11704TIP3    H135069   6.525   3.558   1.499
11704TIP3    H235070   6.542   3.569   1.349
11705TIP3   OH235071   3.136   2.444   4.581
11705TIP3    H135072   3.051   2.487   4.571
11705TIP3    H235073   3.115   2.351   4.585
11706TIP3   OH235074   2.205   1.496   3.150
11706TIP3    H135075   2.165   1.501   3.063
11706TIP3    H235076   2.150   1.551   3.206
11707TIP3   OH235077   7.070   6.823   1.509
11707TIP3    H135078   7.033   6.748   1.556
11707TIP3    H235079   7.025   6.899   1.546
11708TIP3   OH235080   6.851   4.123   0.765
11708TIP3    H135081   6.799   4.197   0.795
11708TIP3    H235082   6.821   4.108   0.675
11709TIP3   OH235083   3.312   6.932   4.790
11709TIP3    H135084   3.252   6.895   4.725
11709TIP3    H235085   3.359   7.001   4.743
11710TIP3   OH235086   6.678   7.802   5.062
11710TIP3    H135087   6.753   7.833   5.011
11710TIP3    H235088   6.665   7.712   5.033
11711TIP3   OH235089   0.500   6.205   0.547
11711TIP3    H135090   0.461   6.147   0.613
11711TIP3    H235091   0.492   6.292   0.585
11712TIP3   OH235092   1.032   2.671   4.206
11712TIP3    H135093   1.040   2.625   4.289
11712TIP3    H235094   1.019   2.763   4.230
11713TIP3   OH235095   4.454   5.634   5.260
11713TIP3    H135096   4.488   5.587   5.336
11713TIP3    H235097   4.365   5.600   5.248
11714TIP3   OH235098   5.289   3.414   4.226
11714TIP3    H135099   5.296   3.510   4.221
11714TIP3    H235100   5.348   3.390   4.298
11715TIP3   OH235101   4.147   1.390   3.513
11715TIP3    H135102   4.232   1.349   3.534
11715TIP3    H235103   4.166   1.447   3.439
11716TIP3   OH235104   0.033   7.625   1.147
11716TIP3    H135105   0.113   7.667   1.178
11716TIP3    H235106   0.049   7.607   1.055
11717TIP3   OH235107   3.284   3.393   2.372
11717TIP3    H135108   3.365   3.356   2.338
11717TIP3    H235109   3.215   3.336   2.340
11718TIP3   OH235110   5.460  -0.024   1.951
11718TIP3    H135111   5.504   0.039   2.009
11718TIP3    H235112   5.405   0.030   1.895
11719TIP3   OH235113   6.126   7.630   3.176
11719TIP3    H135114   6.140   7.723   3.155
11719TIP3    H235115   6.078   7.596   3.101
11720TIP3   OH235116   1.617   2.442   5.341
11720TIP3    H135117   1.583   2.504   5.406
11720TIP3    H235118   1.570   2.360   5.359
11721TIP3   OH235119   5.948   6.038   1.798
11721TIP3    H135120   5.887   6.027   1.725
11721TIP3    H235121   6.030   6.002   1.766
11722TIP3   OH235122   0.362   7.807   4.357
11722TIP3    H135123   0.346   7.728   4.306
11722TIP3    H235124   0.388   7.775   4.444
11723TIP3   OH235125   0.896   1.702   5.935
11723TIP3    H135126   0.861   1.773   5.988
11723TIP3    H235127   0.880   1.729   5.845
11724TIP3   OH235128   0.674   4.320   0.635
11724TIP3    H135129   0.670   4.237   0.681
11724TIP3    H235130   0.590   4.329   0.591
11725TIP3   OH235131   0.529   4.022   1.575
11725TIP3    H135132   0.511   3.929   1.561
11725TIP3    H235133   0.518   4.062   1.488
11726TIP3   OH235134   7.162   0.273   0.547
11726TIP3    H135135   7.187   0.275   0.455
11726TIP3    H235136   7.074   0.310   0.549
11727TIP3   OH235137   3.629   3.872   2.784
11727TIP3    H135138   3.617   3.811   2.712
11727TIP3    H235139   3.566   3.845   2.850
11728TIP3   OH235140   0.878   1.110   3.446
11728TIP3    H135141   0.895   1.078   3.534
11728TIP3    H235142   0.865   1.204   3.456
11729TIP3   OH235143   5.094   1.934   0.672
11729TIP3    H135144   5.052   1.893   0.748
11729TIP3    H235145   5.138   2.011   0.708
11730TIP3   OH235146   3.960   0.956   5.272
11730TIP3    H135147   3.920   0.914   5.348
11730TIP3    H235148   3.934   0.901   5.198
11731TIP3   OH235149   0.950   6.995   5.449
11731TIP3    H135150   0.966   6.909   5.487
11731TIP3    H235151   0.900   7.041   5.517
11732TIP3   OH235152   7.747   5.282   2.944
11732TIP3    H135153   7.812   5.240   2.888
11732TIP3    H235154   7.663   5.256   2.907
11733TIP3   OH235155   6.351   4.511   3.687
11733TIP3    H135156   6.345   4.428   3.640
11733TIP3    H235157   6.385   4.487   3.773
11734TIP3   OH235158   4.502   6.450   4.678
11734TIP3    H135159   4.552   6.468   4.757
11734TIP3    H235160   4.411   6.462   4.704
11735TIP3   OH235161   7.344   4.528   6.627
11735TIP3    H135162   7.265   4.581   6.619
11735TIP3    H235163   7.351   4.508   6.720
11736TIP3   OH235164   6.958   3.383   3.637
11736TIP3    H135165   6.999   3.347   3.559
11736TIP3    H235166   7.019   3.363   3.708
11737TIP3   OH235167   1.393   4.984   0.171
11737TIP3    H135168   1.367   4.972   0.262
11737TIP3    H235169   1.410   5.078   0.163
11738TIP3   OH235170   6.423   7.299   1.715
11738TIP3    H135171   6.464   7.351   1.645
11738TIP3    H235172   6.359   7.245   1.669
11739TIP3   OH235173   2.771   6.535   6.321
11739TIP3    H135174   2.809   6.449   6.305
11739TIP3    H235175   2.776   6.547   6.416
11740TIP3   OH235176   6.400   2.184   0.670
11740TIP3    H135177   6.417   2.118   0.738
11740TIP3    H235178   6.353   2.136   0.602
11741TIP3   OH235179   4.423   3.984   0.737
11741TIP3    H135180   4.430   3.983   0.832
11741TIP3    H235181   4.427   3.892   0.710
11742TIP3   OH235182   3.200   6.782   0.395
11742TIP3    H135183   3.286   6.739   0.390
11742TIP3    H235184   3.217   6.865   0.439
11743TIP3   OH235185   5.969   5.811   4.038
11743TIP3    H135186   5.940   5.774   4.121
11743TIP3    H235187   5.888   5.833   3.992
11744TIP3   OH235188   1.405   0.526   0.428
11744TIP3    H135189   1.401   0.559   0.339
11744TIP3    H235190   1.491   0.555   0.460
11745TIP3   OH235191   3.081   6.145   2.683
11745TIP3    H135192   3.062   6.161   2.775
11745TIP3    H235193   3.042   6.059   2.665
11746TIP3   OH235194   2.131   4.805   3.290
11746TIP3    H135195   2.201   4.796   3.225
11746TIP3    H235196   2.054   4.768   3.247
11747TIP3   OH235197   7.041   6.244   6.524
11747TIP3    H135198   7.108   6.184   6.558
11747TIP3    H235199   6.987   6.190   6.466
11748TIP3   OH235200   7.286   0.250   4.420
11748TIP3    H135201   7.377   0.277   4.415
11748TIP3    H235202   7.270   0.236   4.513
11749TIP3   OH235203   2.701   4.333   6.622
11749TIP3    H135204   2.711   4.259   6.682
11749TIP3    H235205   2.762   4.314   6.550
11750TIP3   OH235206   6.800   0.869   5.018
11750TIP3    H135207   6.706   0.881   5.003
11750TIP3    H235208   6.821   0.933   5.085
11751TIP3   OH235209   7.546   3.706   0.436
11751TIP3    H135210   7.517   3.756   0.360
11751TIP3    H235211   7.640   3.693   0.423
11752TIP3   OH235212   0.599   7.504   0.230
11752TIP3    H135213   0.566   7.505   0.319
11752TIP3    H235214   0.566   7.585   0.191
11753TIP3   OH235215   0.418   6.267   3.181
11753TIP3    H135216   0.368   6.274   3.099
11753TIP3    H235217   0.357   6.228   3.243
11754TIP3   OH235218   3.609   4.167   0.085
11754TIP3    H135219   3.612   4.150   0.179
11754TIP3    H235220   3.697   4.198   0.064
11755TIP3   OH235221   4.990   7.237   4.689
11755TIP3    H135222   5.004   7.177   4.762
11755TIP3    H235223   4.987   7.181   4.612
11756TIP3   OH235224   1.881   2.652   4.832
11756TIP3    H135225   1.872   2.660   4.737
11756TIP3    H235226   1.902   2.740   4.862
11757TIP3   OH235227   5.504   6.382   1.631
11757TIP3    H135228   5.519   6.322   1.704
11757TIP3    H235229   5.587   6.428   1.621
11758TIP3   OH235230   1.665   0.909   3.555
11758TIP3    H135231   1.623   0.983   3.601
11758TIP3    H235232   1.595   0.845   3.545
11759TIP3   OH235233   0.096   6.135   2.192
11759TIP3    H135234   0.002   6.120   2.204
11759TIP3    H235235   0.117   6.204   2.255
11760TIP3   OH235236   0.305   2.101   5.940
11760TIP3    H135237   0.318   2.162   5.867
11760TIP3    H235238   0.223   2.056   5.919
11761TIP3   OH235239   2.422   1.284   2.143
11761TIP3    H135240   2.408   1.331   2.061
11761TIP3    H235241   2.516   1.268   2.146
11762TIP3   OH235242   3.807   7.282   5.724
11762TIP3    H135243   3.846   7.221   5.786
11762TIP3    H235244   3.723   7.306   5.765
11763TIP3   OH235245   2.827   3.352   2.254
11763TIP3    H135246   2.903   3.303   2.285
11763TIP3    H235247   2.761   3.339   2.321
11764TIP3   OH235248   7.292   0.580   1.229
11764TIP3    H135249   7.316   0.635   1.154
11764TIP3    H235250   7.375   0.543   1.259
11765TIP3   OH235251   7.541   5.169   6.529
11765TIP3    H135252   7.559   5.091   6.475
11765TIP3    H235253   7.523   5.238   6.466
11766TIP3   OH235254   5.776   3.584   1.941
11766TIP3    H135255   5.799   3.561   1.852
11766TIP3    H235256   5.761   3.501   1.985
11767TIP3   OH235257   1.685   4.943   1.247
11767TIP3    H135258   1.653   4.953   1.336
11767TIP3    H235259   1.657   5.023   1.202
11768TIP3   OH235260   5.670   4.843   0.205
11768TIP3    H135261   5.634   4.811   0.288
11768TIP3    H235262   5.635   4.783   0.139
11769TIP3   OH235263   0.339   7.769   3.716
11769TIP3    H135264   0.266   7.746   3.659
11769TIP3    H235265   0.411   7.713   3.688
11770TIP3   OH235266   5.968   3.084   4.824
11770TIP3    H135267   6.037   3.059   4.762
11770TIP3    H235268   5.886   3.071   4.775
11771TIP3   OH235269   2.556   4.113   4.921
11771TIP3    H135270   2.557   4.154   5.007
11771TIP3    H235271   2.501   4.171   4.867
11772TIP3   OH235272   1.379   7.730   2.501
11772TIP3    H135273   1.404   7.712   2.411
11772TIP3    H235274   1.439   7.677   2.554
11773TIP3   OH235275   2.007   0.458   0.107
11773TIP3    H135276   2.014   0.554   0.112
11773TIP3    H235277   1.925   0.442   0.062
11774TIP3   OH235278   6.191   1.463   2.726
11774TIP3    H135279   6.274   1.421   2.704
11774TIP3    H235280   6.175   1.524   2.654
11775TIP3   OH235281   6.628   5.046   5.668
11775TIP3    H135282   6.637   4.962   5.714
11775TIP3    H235283   6.708   5.053   5.616
11776TIP3   OH235284   1.087   7.042   6.256
11776TIP3    H135285   1.151   6.971   6.260
11776TIP3    H235286   1.027   7.023   6.328
11777TIP3   OH235287   1.674   6.230   0.954
11777TIP3    H135288   1.645   6.278   1.031
11777TIP3    H235289   1.593   6.204   0.910
11778TIP3   OH235290   3.758   0.036   3.631
11778TIP3    H135291   3.667   0.016   3.653
11778TIP3    H235292   3.756   0.126   3.601
11779TIP3   OH235293   1.621   5.324   3.579
11779TIP3    H135294   1.681   5.281   3.640
11779TIP3    H235295   1.669   5.328   3.496
11780TIP3   OH235296   0.889   1.108   0.646
11780TIP3    H135297   0.866   1.176   0.582
11780TIP3    H235298   0.958   1.058   0.603
11781TIP3   OH235299   0.824   7.496   2.169
11781TIP3    H135300   0.868   7.567   2.122
11781TIP3    H235301   0.858   7.416   2.129
11782TIP3   OH235302   0.292   3.986   1.906
11782TIP3    H135303   0.332   3.901   1.887
11782TIP3    H235304   0.226   3.997   1.838
11783TIP3   OH235305   1.663   6.772   2.911
11783TIP3    H135306   1.663   6.683   2.948
11783TIP3    H235307   1.625   6.826   2.980
11784TIP3   OH235308   0.812   6.415   0.520
11784TIP3    H135309   0.817   6.364   0.601
11784TIP3    H235310   0.746   6.483   0.539
11785TIP3   OH235311   6.602   6.480   6.549
11785TIP3    H135312   6.671   6.537   6.581
11785TIP3    H235313   6.564   6.442   6.628
11786TIP3   OH235314   0.878   7.028   2.321
11786TIP3    H135315   0.919   6.943   2.308
11786TIP3    H235316   0.785   7.008   2.333
11787TIP3   OH235317   4.113   7.290   2.080
11787TIP3    H135318   4.143   7.224   2.143
11787TIP3    H235319   4.018   7.295   2.095
11788TIP3   OH235320   6.179   4.443   5.647
11788TIP3    H135321   6.094   4.479   5.626
11788TIP3    H235322   6.224   4.512   5.696
11789TIP3   OH235323   6.303   4.851   5.314
11789TIP3    H135324   6.306   4.756   5.322
11789TIP3    H235325   6.276   4.866   5.223
11790TIP3   OH235326   4.639   6.215   0.975
11790TIP3    H135327   4.623   6.122   0.991
11790TIP3    H235328   4.587   6.235   0.898
11791TIP3   OH235329   6.133   3.987   0.711
11791TIP3    H135330   6.218   4.020   0.683
11791TIP3    H235331   6.122   4.022   0.799
11792TIP3   OH235332   4.660   3.911   1.248
11792TIP3    H135333   4.718   3.849   1.292
11792TIP3    H235334   4.708   3.937   1.169
11793TIP3   OH235335   2.024   3.368   4.690
11793TIP3    H135336   2.113   3.345   4.719
11793TIP3    H235337   2.035   3.400   4.601
11794TIP3   OH235338   1.125   7.650   0.879
11794TIP3    H135339   1.212   7.642   0.918
11794TIP3    H235340   1.083   7.565   0.897
11795TIP3   OH235341   0.557   4.695   6.657
11795TIP3    H135342   0.528   4.767   6.602
11795TIP3    H235343   0.624   4.733   6.713
11796TIP3   OH235344   5.166   6.115   0.335
11796TIP3    H135345   5.254   6.099   0.301
11796TIP3    H235346   5.179   6.175   0.409
11797TIP3   OH235347   6.016   2.279   0.981
11797TIP3    H135348   5.972   2.207   1.026
11797TIP3    H235349   6.034   2.343   1.050
11798TIP3   OH235350   8.008   0.450   6.194
11798TIP3    H135351   7.930   0.479   6.242
11798TIP3    H235352   8.060   0.530   6.183
11799TIP3   OH235353   3.480   6.663   2.886
11799TIP3    H135354   3.388   6.659   2.858
11799TIP3    H235355   3.476   6.671   2.981
11800TIP3   OH235356   8.143   5.937   3.949
11800TIP3    H135357   8.165   6.017   3.902
11800TIP3    H235358   8.208   5.873   3.921
11801TIP3   OH235359   6.211   1.775   1.658
11801TIP3    H135360   6.286   1.783   1.599
11801TIP3    H235361   6.250   1.775   1.745
11802TIP3   OH235362   1.755   0.655   2.954
11802TIP3    H135363   1.668   0.626   2.982
11802TIP3    H235364   1.770   0.610   2.871
11803TIP3   OH235365   3.460   2.151   4.600
11803TIP3    H135366   3.411   2.213   4.654
11803TIP3    H235367   3.506   2.205   4.536
11804TIP3   OH235368   1.268   6.750   0.659
11804TIP3    H135369   1.195   6.708   0.705
11804TIP3    H235370   1.250   6.844   0.669
11805TIP3   OH235371   5.628   1.434   0.016
11805TIP3    H135372   5.544   1.477   0.032
11805TIP3    H235373   5.693   1.499   0.038
11806TIP3   OH235374   7.447   0.178   1.565
11806TIP3    H135375   7.399   0.231   1.629
11806TIP3    H235376   7.517   0.138   1.615
11807TIP3   OH235377   1.947   4.948   6.274
11807TIP3    H135378   1.884   4.990   6.333
11807TIP3    H235379   1.904   4.866   6.248
11808TIP3   OH235380   1.357   1.446   5.416
11808TIP3    H135381   1.309   1.369   5.384
11808TIP3    H235382   1.423   1.410   5.475
11809TIP3   OH235383   0.536   7.589   0.532
11809TIP3    H135384   0.603   7.520   0.537
11809TIP3    H235385   0.585   7.666   0.505
11810TIP3   OH235386   6.596   4.248   3.143
11810TIP3    H135387   6.532   4.178   3.157
11810TIP3    H235388   6.558   4.301   3.073
11811TIP3   OH235389   7.971   0.761   0.996
11811TIP3    H135390   7.954   0.728   0.908
11811TIP3    H235391   8.025   0.839   0.983
11812TIP3   OH235392   3.089   7.032   1.390
11812TIP3    H135393   2.996   7.027   1.365
11812TIP3    H235394   3.134   7.058   1.310
11813TIP3   OH235395   5.167   6.715   4.255
11813TIP3    H135396   5.132   6.767   4.327
11813TIP3    H235397   5.243   6.670   4.293
11814TIP3   OH235398   7.704   2.639   4.984
11814TIP3    H135399   7.774   2.592   4.937
11814TIP3    H235400   7.706   2.602   5.072
11815TIP3   OH235401   6.700   4.001   2.230
11815TIP3    H135402   6.753   4.048   2.294
11815TIP3    H235403   6.750   4.008   2.148
11816TIP3   OH235404   3.630   0.791   1.604
11816TIP3    H135405   3.679   0.868   1.634
11816TIP3    H235406   3.565   0.827   1.543
11817TIP3   OH235407   5.202   4.799   4.741
11817TIP3    H135408   5.135   4.736   4.715
11817TIP3    H235409   5.280   4.773   4.691
11818TIP3   OH235410   1.566   1.180   2.995
11818TIP3    H135411   1.495   1.154   2.937
11818TIP3    H235412   1.632   1.112   2.984
11819TIP3   OH235413   1.081   0.016   3.883
11819TIP3    H135414   1.049  -0.035   3.809
11819TIP3    H235415   1.004   0.066   3.912
11820TIP3   OH235416   1.095   0.496   2.496
11820TIP3    H135417   1.148   0.557   2.547
11820TIP3    H235418   1.019   0.547   2.469
11821TIP3   OH235419   4.908   6.350   0.710
11821TIP3    H135420   4.934   6.320   0.623
11821TIP3    H235421   4.961   6.428   0.725
11822TIP3   OH235422   8.134   1.174   2.766
11822TIP3    H135423   8.115   1.235   2.695
11822TIP3    H235424   8.163   1.229   2.838
11823TIP3   OH235425   6.388   2.966   5.459
11823TIP3    H135426   6.355   2.907   5.527
11823TIP3    H235427   6.459   2.916   5.417
11824TIP3   OH235428   2.758   3.988   4.582
11824TIP3    H135429   2.823   4.054   4.558
11824TIP3    H235430   2.689   3.996   4.516
11825TIP3   OH235431   8.069   6.592   3.784
11825TIP3    H135432   8.110   6.615   3.700
11825TIP3    H235433   8.108   6.652   3.847
11826TIP3   OH235434   1.441   4.277   2.833
11826TIP3    H135435   1.389   4.254   2.910
11826TIP3    H235436   1.443   4.196   2.782
11827TIP3   OH235437   2.128   5.790   4.100
11827TIP3    H135438   2.058   5.729   4.075
11827TIP3    H235439   2.083   5.861   4.145
11828TIP3   OH235440   6.730   5.209   6.473
11828TIP3    H135441   6.779   5.265   6.413
11828TIP3    H235442   6.650   5.187   6.426
11829TIP3   OH235443   5.947   6.360   0.872
11829TIP3    H135444   5.942   6.265   0.865
11829TIP3    H235445   6.034   6.377   0.910
11830TIP3   OH235446   2.470   1.622   4.744
11830TIP3    H135447   2.456   1.656   4.655
11830TIP3    H235448   2.510   1.537   4.731
11831TIP3   OH235449   4.438   6.453   0.515
11831TIP3    H135450   4.502   6.507   0.468
11831TIP3    H235451   4.384   6.414   0.447
11832TIP3   OH235452   7.543   4.552   3.469
11832TIP3    H135453   7.602   4.623   3.496
11832TIP3    H235454   7.580   4.521   3.386
11833TIP3   OH235455   1.645   4.339   4.280
11833TIP3    H135456   1.562   4.316   4.321
11833TIP3    H235457   1.662   4.428   4.309
11834TIP3   OH235458   3.668   4.427   0.301
11834TIP3    H135459   3.746   4.376   0.280
11834TIP3    H235460   3.698   4.518   0.304
11835TIP3   OH235461   5.134   3.638   4.523
11835TIP3    H135462   5.051   3.657   4.479
11835TIP3    H235463   5.127   3.546   4.548
11836TIP3   OH235464   6.584   7.081   6.155
11836TIP3    H135465   6.647   7.054   6.222
11836TIP3    H235466   6.632   7.142   6.100
11837TIP3   OH235467   7.867   2.777   0.226
11837TIP3    H135468   7.922   2.835   0.174
11837TIP3    H235469   7.867   2.694   0.178
11838TIP3   OH235470   0.592   4.575   0.352
11838TIP3    H135471   0.503   4.540   0.352
11838TIP3    H235472   0.643   4.511   0.302
11839TIP3   OH235473   0.162   0.512   2.362
11839TIP3    H135474   0.133   0.564   2.437
11839TIP3    H235475   0.131   0.423   2.381
11840TIP3   OH235476   3.681   1.041   0.319
11840TIP3    H135477   3.696   1.077   0.231
11840TIP3    H235478   3.602   0.989   0.311
11841TIP3   OH235479   4.008   7.419   5.046
11841TIP3    H135480   3.967   7.452   5.125
11841TIP3    H235481   4.033   7.498   4.997
11842TIP3   OH235482   4.551   6.354   6.403
11842TIP3    H135483   4.636   6.361   6.361
11842TIP3    H235484   4.562   6.285   6.468
11843TIP3   OH235485   0.128   2.517   0.609
11843TIP3    H135486   0.125   2.613   0.604
11843TIP3    H235487   0.178   2.490   0.532
11844TIP3   OH235488   1.249   1.462   6.172
11844TIP3    H135489   1.245   1.394   6.240
11844TIP3    H235490   1.157   1.482   6.153
11845TIP3   OH235491   1.128   3.701   5.170
11845TIP3    H135492   1.173   3.617   5.160
11845TIP3    H235493   1.078   3.692   5.251
11846TIP3   OH235494   2.269   7.543   1.316
11846TIP3    H135495   2.186   7.588   1.300
11846TIP3    H235496   2.315   7.546   1.233
11847TIP3   OH235497   6.646   3.991   1.755
11847TIP3    H135498   6.551   3.988   1.741
11847TIP3    H235499   6.672   3.899   1.763
11848TIP3   OH235500   4.137   4.365   5.775
11848TIP3    H135501   4.117   4.297   5.840
11848TIP3    H235502   4.052   4.389   5.739
11849TIP3   OH235503   0.655   4.165   5.260
11849TIP3    H135504   0.663   4.119   5.343
11849TIP3    H235505   0.742   4.158   5.220
11850TIP3   OH235506   6.538   0.268   3.894
11850TIP3    H135507   6.536   0.277   3.799
11850TIP3    H235508   6.628   0.289   3.918
11851TIP3   OH235509   4.424   4.855   1.529
11851TIP3    H135510   4.496   4.906   1.566
11851TIP3    H235511   4.398   4.903   1.451
11852TIP3   OH235512   2.228   1.374   3.622
11852TIP3    H135513   2.315   1.348   3.592
11852TIP3    H235514   2.187   1.292   3.651
11853TIP3   OH235515   1.116   3.237   0.955
11853TIP3    H135516   1.066   3.226   1.036
11853TIP3    H235517   1.166   3.156   0.947
11854TIP3   OH235518   5.584   2.165   5.689
11854TIP3    H135519   5.585   2.225   5.764
11854TIP3    H235520   5.500   2.120   5.695
11855TIP3   OH235521   7.248   5.191   2.526
11855TIP3    H135522   7.205   5.223   2.606
11855TIP3    H235523   7.216   5.102   2.516
11856TIP3   OH235524   1.820   1.419   4.243
11856TIP3    H135525   1.805   1.514   4.235
11856TIP3    H235526   1.736   1.384   4.273
11857TIP3   OH235527   3.451   0.336   1.386
11857TIP3    H135528   3.452   0.416   1.438
11857TIP3    H235529   3.370   0.292   1.411
11858TIP3   OH235530   3.908   4.402   1.995
11858TIP3    H135531   3.923   4.315   2.033
11858TIP3    H235532   3.991   4.448   2.007
11859TIP3   OH235533   3.992   3.225   0.658
11859TIP3    H135534   4.032   3.265   0.581
11859TIP3    H235535   3.981   3.133   0.634
11860TIP3   OH235536   3.257   0.553   2.022
11860TIP3    H135537   3.330   0.615   2.029
11860TIP3    H235538   3.213   0.557   2.107
11861TIP3   OH235539   8.108   3.625   4.716
11861TIP3    H135540   8.105   3.716   4.689
11861TIP3    H235541   8.056   3.622   4.797
11862TIP3   OH235542   3.021   1.642   3.141
11862TIP3    H135543   2.981   1.641   3.228
11862TIP3    H235544   3.112   1.618   3.155
11863TIP3   OH235545   1.200   2.119   2.606
11863TIP3    H135546   1.255   2.191   2.637
11863TIP3    H235547   1.177   2.143   2.516
11864TIP3   OH235548   2.799  -0.009   2.603
11864TIP3    H135549   2.798  -0.083   2.663
11864TIP3    H235550   2.803   0.068   2.659
11865TIP3   OH235551   0.543   3.275   6.540
11865TIP3    H135552   0.494   3.323   6.473
11865TIP3    H235553   0.477   3.221   6.584
11866TIP3   OH235554   6.060   5.370   3.243
11866TIP3    H135555   6.086   5.419   3.165
11866TIP3    H235556   6.022   5.436   3.301
11867TIP3   OH235557   2.645   5.734   4.211
11867TIP3    H135558   2.637   5.639   4.203
11867TIP3    H235559   2.737   5.752   4.187
11868TIP3   OH235560   1.807   0.337   5.403
11868TIP3    H135561   1.857   0.287   5.468
11868TIP3    H235562   1.874   0.370   5.342
11869TIP3   OH235563   1.406   7.248   0.350
11869TIP3    H135564   1.331   7.259   0.292
11869TIP3    H235565   1.442   7.162   0.327
11870TIP3   OH235566   2.380   4.167   6.779
11870TIP3    H135567   2.340   4.241   6.732
11870TIP3    H235568   2.465   4.199   6.807
11871TIP3   OH235569   7.458   2.849   3.632
11871TIP3    H135570   7.451   2.817   3.722
11871TIP3    H235571   7.531   2.799   3.595
11872TIP3   OH235572   3.607   2.535   6.419
11872TIP3    H135573   3.700   2.512   6.423
11872TIP3    H235574   3.602   2.600   6.349
11873TIP3   OH235575   5.391   7.146   2.491
11873TIP3    H135576   5.467   7.141   2.432
11873TIP3    H235577   5.342   7.223   2.460
11874TIP3   OH235578   5.998   1.095   1.768
11874TIP3    H135579   5.944   1.145   1.708
11874TIP3    H235580   6.005   1.150   1.846
11875TIP3   OH235581   7.431   2.605   5.013
11875TIP3    H135582   7.511   2.583   5.060
11875TIP3    H235583   7.360   2.573   5.070
11876TIP3   OH235584   2.145   0.464   5.545
11876TIP3    H135585   2.078   0.476   5.612
11876TIP3    H235586   2.099   0.423   5.472
11877TIP3   OH235587   0.256   7.284   0.562
11877TIP3    H135588   0.224   7.346   0.628
11877TIP3    H235589   0.176   7.244   0.527
11878TIP3   OH235590   3.009   2.414   1.475
11878TIP3    H135591   3.090   2.371   1.500
11878TIP3    H235592   3.017   2.503   1.509
11879TIP3   OH235593   7.380   2.979   6.313
11879TIP3    H135594   7.355   3.064   6.279
11879TIP3    H235595   7.473   2.971   6.292
11880TIP3   OH235596   6.028   7.687   5.195
11880TIP3    H135597   5.954   7.707   5.252
11880TIP3    H235598   6.002   7.720   5.109
11881TIP3   OH235599   4.531   5.629   1.680
11881TIP3    H135600   4.551   5.720   1.658
11881TIP3    H235601   4.442   5.631   1.715
11882TIP3   OH235602   3.880   5.312   5.443
11882TIP3    H135603   3.789   5.282   5.449
11882TIP3    H235604   3.881   5.395   5.490
11883TIP3   OH235605   6.112   6.365   3.844
11883TIP3    H135606   6.184   6.387   3.785
11883TIP3    H235607   6.154   6.312   3.912
11884TIP3   OH235608   4.172   4.471   1.792
11884TIP3    H135609   4.091   4.521   1.787
11884TIP3    H235610   4.149   4.384   1.759
11885TIP3   OH235611   3.389   2.630   5.097
11885TIP3    H135612   3.433   2.609   5.179
11885TIP3    H235613   3.458   2.629   5.031
11886TIP3   OH235614   5.906   6.779   3.747
11886TIP3    H135615   5.973   6.718   3.717
11886TIP3    H235616   5.914   6.855   3.690
11887TIP3   OH235617   4.829   1.658   5.977
11887TIP3    H135618   4.742   1.628   5.950
11887TIP3    H235619   4.879   1.578   5.991
11888TIP3   OH235620   1.527   6.187   5.364
11888TIP3    H135621   1.598   6.142   5.319
11888TIP3    H235622   1.487   6.119   5.420
11889TIP3   OH235623   7.470   2.829   1.838
11889TIP3    H135624   7.470   2.845   1.933
11889TIP3    H235625   7.455   2.916   1.800
11890TIP3   OH235626   6.592   3.173   6.719
11890TIP3    H135627   6.555   3.167   6.807
11890TIP3    H235628   6.672   3.120   6.723
11891TIP3   OH235629   0.942   4.867   2.806
11891TIP3    H135630   0.877   4.874   2.876
11891TIP3    H235631   0.962   4.773   2.802
11892TIP3   OH235632   2.262   5.132   4.389
11892TIP3    H135633   2.212   5.105   4.312
11892TIP3    H235634   2.198   5.130   4.461
11893TIP3   OH235635   2.878   3.307   5.472
11893TIP3    H135636   2.881   3.231   5.531
11893TIP3    H235637   2.853   3.380   5.529
11894TIP3   OH235638   7.474   2.334   6.104
11894TIP3    H135639   7.400   2.352   6.047
11894TIP3    H235640   7.543   2.303   6.045
11895TIP3   OH235641   1.096   1.601   1.438
11895TIP3    H135642   1.068   1.682   1.480
11895TIP3    H235643   1.033   1.588   1.367
11896TIP3   OH235644   1.947   2.391   2.565
11896TIP3    H135645   2.022   2.439   2.528
11896TIP3    H235646   1.942   2.311   2.513
11897TIP3   OH235647   0.887   0.734   2.073
11897TIP3    H135648   0.965   0.710   2.023
11897TIP3    H235649   0.879   0.667   2.140
11898TIP3   OH235650   5.132   3.296   0.052
11898TIP3    H135651   5.165   3.209   0.030
11898TIP3    H235652   5.210   3.346   0.076
11899TIP3   OH235653   7.847   6.832   0.207
11899TIP3    H135654   7.918   6.894   0.190
11899TIP3    H235655   7.888   6.746   0.200
11900TIP3   OH235656   0.196   6.717   3.553
11900TIP3    H135657   0.251   6.734   3.630
11900TIP3    H235658   0.252   6.665   3.495
11901TIP3   OH235659   3.110   4.084   5.287
11901TIP3    H135660   3.150   4.041   5.212
11901TIP3    H235661   3.042   4.023   5.317
11902TIP3   OH235662   8.023   6.867   3.146
11902TIP3    H135663   8.079   6.820   3.085
11902TIP3    H235664   8.084   6.913   3.204
11903TIP3   OH235665   6.679   3.689   2.463
11903TIP3    H135666   6.750   3.672   2.401
11903TIP3    H235667   6.712   3.759   2.519
11904TIP3   OH235668   7.591   4.072   1.017
11904TIP3    H135669   7.682   4.095   1.037
11904TIP3    H235670   7.541   4.150   1.037
11905TIP3   OH235671   6.396   7.125   2.458
11905TIP3    H135672   6.477   7.166   2.427
11905TIP3    H235673   6.356   7.190   2.516
11906TIP3   OH235674   0.631   5.276   6.404
11906TIP3    H135675   0.705   5.231   6.445
11906TIP3    H235676   0.662   5.365   6.388
11907TIP3   OH235677   7.971   6.980   6.578
11907TIP3    H135678   8.056   7.019   6.598
11907TIP3    H235679   7.938   7.031   6.504
11908TIP3   OH235680   6.936   2.827   5.392
11908TIP3    H135681   6.892   2.773   5.457
11908TIP3    H235682   6.913   2.917   5.416
11909TIP3   OH235683   6.579   3.228   4.249
11909TIP3    H135684   6.578   3.282   4.328
11909TIP3    H235685   6.643   3.270   4.192
11910TIP3   OH235686   7.001   0.129   1.639
11910TIP3    H135687   7.020   0.047   1.685
11910TIP3    H235688   7.011   0.197   1.706
11911TIP3   OH235689   5.396   0.315   5.158
11911TIP3    H135690   5.306   0.338   5.138
11911TIP3    H235691   5.420   0.370   5.233
11912TIP3   OH235692   2.921   7.086   4.491
11912TIP3    H135693   2.856   7.023   4.459
11912TIP3    H235694   2.942   7.140   4.415
11913TIP3   OH235695   6.462   3.489   6.485
11913TIP3    H135696   6.509   3.495   6.568
11913TIP3    H235697   6.488   3.404   6.449
11914TIP3   OH235698   6.767   0.841   0.046
11914TIP3    H135699   6.859   0.835   0.069
11914TIP3    H235700   6.749   0.935   0.042
11915TIP3   OH235701   5.435   7.133   0.402
11915TIP3    H135702   5.419   7.138   0.496
11915TIP3    H235703   5.458   7.042   0.386
11916TIP3   OH235704   1.018   4.488   4.864
11916TIP3    H135705   1.067   4.429   4.921
11916TIP3    H235706   0.950   4.433   4.825
11917TIP3   OH235707   7.588   1.466   0.476
11917TIP3    H135708   7.531   1.527   0.430
11917TIP3    H235709   7.569   1.381   0.436
11918TIP3   OH235710   3.610   0.270   6.621
11918TIP3    H135711   3.549   0.262   6.694
11918TIP3    H235712   3.646   0.358   6.630
11919TIP3   OH235713   1.144   3.288   6.133
11919TIP3    H135714   1.149   3.361   6.195
11919TIP3    H235715   1.188   3.216   6.178
11920TIP3   OH235716   6.859   2.329   6.019
11920TIP3    H135717   6.855   2.287   5.933
11920TIP3    H235718   6.768   2.331   6.049
11921TIP3   OH235719   2.432   7.136   1.199
11921TIP3    H135720   2.388   7.195   1.260
11921TIP3    H235721   2.361   7.092   1.153
11922TIP3   OH235722   2.459   1.892   0.863
11922TIP3    H135723   2.541   1.941   0.860
11922TIP3    H235724   2.486   1.800   0.864
11923TIP3   OH235725   5.076   7.560   3.240
11923TIP3    H135726   5.105   7.517   3.321
11923TIP3    H235727   5.120   7.646   3.242
11924TIP3   OH235728   3.900   4.135   0.783
11924TIP3    H135729   3.986   4.098   0.763
11924TIP3    H235730   3.838   4.068   0.754
11925TIP3   OH235731   4.983   7.519   2.982
11925TIP3    H135732   5.014   7.547   3.068
11925TIP3    H235733   5.034   7.441   2.962
11926TIP3   OH235734   5.942   1.312   2.703
11926TIP3    H135735   5.916   1.347   2.618
11926TIP3    H235736   6.026   1.353   2.721
11927TIP3   OH235737   6.128   7.366   4.312
11927TIP3    H135738   6.098   7.399   4.397
11927TIP3    H235739   6.187   7.434   4.279
11928TIP3   OH235740   3.837   6.755   4.703
11928TIP3    H135741   3.814   6.801   4.783
11928TIP3    H235742   3.762   6.769   4.645
11929TIP3   OH235743   5.598   0.966   1.220
11929TIP3    H135744   5.653   0.901   1.265
11929TIP3    H235745   5.543   0.914   1.162
11930TIP3   OH235746   6.365   3.936   0.970
11930TIP3    H135747   6.371   3.840   0.970
11930TIP3    H235748   6.408   3.962   0.889
11931TIP3   OH235749   4.156   3.946   0.047
11931TIP3    H135750   4.225   4.009   0.027
11931TIP3    H235751   4.093   3.955  -0.025
11932TIP3   OH235752   5.495   4.585   6.620
11932TIP3    H135753   5.567   4.638   6.655
11932TIP3    H235754   5.491   4.509   6.678
11933TIP3   OH235755   7.775   4.214   0.385
11933TIP3    H135756   7.827   4.293   0.387
11933TIP3    H235757   7.829   4.147   0.427
11934TIP3   OH235758   7.341   6.254   2.780
11934TIP3    H135759   7.285   6.267   2.703
11934TIP3    H235760   7.280   6.237   2.852
11935TIP3   OH235761   7.526   7.325   3.966
11935TIP3    H135762   7.617   7.321   3.935
11935TIP3    H235763   7.520   7.254   4.029
11936TIP3   OH235764   5.108   2.820   4.623
11936TIP3    H135765   5.096   2.736   4.579
11936TIP3    H235766   5.035   2.874   4.592
11937TIP3   OH235767   2.369   5.377   1.034
11937TIP3    H135768   2.402   5.442   1.096
11937TIP3    H235769   2.385   5.416   0.948
11938TIP3   OH235770   6.543   2.191   4.050
11938TIP3    H135771   6.474   2.190   4.117
11938TIP3    H235772   6.622   2.217   4.098
11939TIP3   OH235773   7.744   3.993   2.270
11939TIP3    H135774   7.678   3.977   2.202
11939TIP3    H235775   7.742   4.087   2.285
11940TIP3   OH235776   0.906   2.664   0.752
11940TIP3    H135777   0.823   2.616   0.745
11940TIP3    H235778   0.957   2.613   0.815
11941TIP3   OH235779   4.389   4.794   2.840
11941TIP3    H135780   4.456   4.860   2.820
11941TIP3    H235781   4.350   4.773   2.755
11942TIP3   OH235782   8.095   1.116   4.790
11942TIP3    H135783   8.064   1.147   4.705
11942TIP3    H235784   8.184   1.150   4.796
11943TIP3   OH235785   2.934   6.984   5.567
11943TIP3    H135786   2.920   6.905   5.618
11943TIP3    H235787   2.899   7.055   5.622
11944TIP3   OH235788   1.637   3.709   4.498
11944TIP3    H135789   1.591   3.655   4.563
11944TIP3    H235790   1.569   3.763   4.459
11945TIP3   OH235791   5.699   1.820   1.819
11945TIP3    H135792   5.621   1.765   1.827
11945TIP3    H235793   5.741   1.789   1.738
11946TIP3   OH235794   6.125   6.751   0.191
11946TIP3    H135795   6.091   6.839   0.202
11946TIP3    H235796   6.095   6.703   0.268
11947TIP3   OH235797   3.400   1.158   1.687
11947TIP3    H135798   3.347   1.234   1.711
11947TIP3    H235799   3.358   1.124   1.608
11948TIP3   OH235800   2.123   1.537   5.979
11948TIP3    H135801   2.127   1.622   6.023
11948TIP3    H235802   2.106   1.474   6.049
11949TIP3   OH235803   7.430   3.509   1.791
11949TIP3    H135804   7.524   3.493   1.778
11949TIP3    H235805   7.400   3.434   1.844
11950TIP3   OH235806   1.879   3.939   2.830
11950TIP3    H135807   1.852   3.919   2.740
11950TIP3    H235808   1.935   4.016   2.821
11951TIP3   OH235809   5.878   6.405   3.694
11951TIP3    H135810   5.943   6.367   3.753
11951TIP3    H235811   5.928   6.465   3.639
11952TIP3   OH235812   2.565   2.639   3.988
11952TIP3    H135813   2.641   2.697   3.988
11952TIP3    H235814   2.600   2.553   4.009
11953TIP3   OH235815  -0.004   0.149   1.477
11953TIP3    H135816  -0.055   0.092   1.420
11953TIP3    H235817   0.042   0.089   1.536
11954TIP3   OH235818   2.998   5.359   3.642
11954TIP3    H135819   2.949   5.441   3.643
11954TIP3    H235820   2.932   5.292   3.655
11955TIP3   OH235821   2.292   5.821   5.094
11955TIP3    H135822   2.277   5.906   5.136
11955TIP3    H235823   2.368   5.785   5.140
11956TIP3   OH235824   7.607   6.243   2.727
11956TIP3    H135825   7.512   6.244   2.734
11956TIP3    H235826   7.629   6.153   2.703
11957TIP3   OH235827   6.723   2.290   1.721
11957TIP3    H135828   6.643   2.296   1.668
11957TIP3    H235829   6.718   2.365   1.781
11958TIP3   OH235830   7.856   0.025   1.768
11958TIP3    H135831   7.881   0.114   1.790
11958TIP3    H235832   7.930  -0.029   1.797
11959TIP3   OH235833   0.439   6.135   0.920
11959TIP3    H135834   0.444   6.219   0.876
11959TIP3    H235835   0.409   6.074   0.853
11960TIP3   OH235836   0.719   0.333   0.295
11960TIP3    H135837   0.795   0.390   0.309
11960TIP3    H235838   0.666   0.381   0.232
11961TIP3   OH235839   3.934   1.076   6.265
11961TIP3    H135840   3.940   1.171   6.277
11961TIP3    H235841   3.846   1.061   6.231
11962TIP3   OH235842   8.029   4.127   2.877
11962TIP3    H135843   8.021   4.194   2.809
11962TIP3    H235844   8.124   4.110   2.882
11963TIP3   OH235845   6.619   6.812   2.067
11963TIP3    H135846   6.658   6.726   2.056
11963TIP3    H235847   6.650   6.842   2.152
11964TIP3   OH235848   1.424   1.516   5.816
11964TIP3    H135849   1.334   1.544   5.836
11964TIP3    H235850   1.478   1.591   5.841
11965TIP3   OH235851   4.283   0.950   0.211
11965TIP3    H135852   4.246   0.862   0.220
11965TIP3    H235853   4.318   0.970   0.298
11966TIP3   OH235854   7.826   2.578   0.605
11966TIP3    H135855   7.789   2.665   0.590
11966TIP3    H235856   7.797   2.554   0.693
11967TIP3   OH235857   0.462   2.845   4.800
11967TIP3    H135858   0.420   2.929   4.778
11967TIP3    H235859   0.491   2.810   4.716
11968TIP3   OH235860   6.776   7.682   4.098
11968TIP3    H135861   6.837   7.608   4.096
11968TIP3    H235862   6.697   7.646   4.139
11969TIP3   OH235863   7.268   0.871   5.043
11969TIP3    H135864   7.217   0.946   5.015
11969TIP3    H235865   7.357   0.890   5.017
11970TIP3   OH235866   5.302   6.789   2.312
11970TIP3    H135867   5.220   6.831   2.338
11970TIP3    H235868   5.341   6.760   2.394
11971TIP3   OH235869   3.140   4.259   4.671
11971TIP3    H135870   3.119   4.247   4.579
11971TIP3    H235871   3.183   4.344   4.676
11972TIP3   OH235872   4.757   2.155   4.197
11972TIP3    H135873   4.822   2.204   4.146
11972TIP3    H235874   4.710   2.223   4.247
11973TIP3   OH235875   6.694   5.044   4.884
11973TIP3    H135876   6.739   5.124   4.910
11973TIP3    H235877   6.755   4.974   4.908
11974TIP3   OH235878   4.858   4.145   5.250
11974TIP3    H135879   4.926   4.209   5.231
11974TIP3    H235880   4.899   4.061   5.235
11975TIP3   OH235881   8.175   0.054   1.189
11975TIP3    H135882   8.248   0.049   1.128
11975TIP3    H235883   8.180  -0.027   1.240
11976TIP3   OH235884   5.796   3.666   6.168
11976TIP3    H135885   5.852   3.731   6.210
11976TIP3    H235886   5.708   3.704   6.170
11977TIP3   OH235887   3.237   7.331   4.623
11977TIP3    H135888   3.148   7.300   4.634
11977TIP3    H235889   3.262   7.363   4.710
11978TIP3   OH235890   5.807   4.071   6.112
11978TIP3    H135891   5.737   4.130   6.085
11978TIP3    H235892   5.804   4.000   6.047
11979TIP3   OH235893   4.783   7.529   1.298
11979TIP3    H135894   4.711   7.511   1.237
11979TIP3    H235895   4.821   7.443   1.317
11980TIP3   OH235896   6.836   7.036   3.790
11980TIP3    H135897   6.834   7.010   3.882
11980TIP3    H235898   6.929   7.034   3.767
11981TIP3   OH235899  -0.019   4.709   4.047
11981TIP3    H135900  -0.032   4.756   3.965
11981TIP3    H235901  -0.086   4.744   4.106
11982TIP3   OH235902   1.292   4.995   5.319
11982TIP3    H135903   1.338   4.980   5.236
11982TIP3    H235904   1.354   5.047   5.371
11983TIP3   OH235905   4.694   3.943   3.562
11983TIP3    H135906   4.676   3.925   3.654
11983TIP3    H235907   4.661   4.032   3.549
11984TIP3   OH235908   5.993   2.338   4.823
11984TIP3    H135909   5.995   2.431   4.804
11984TIP3    H235910   5.921   2.304   4.769
11985TIP3   OH235911   7.147   3.334   0.628
11985TIP3    H135912   7.195   3.290   0.698
11985TIP3    H235913   7.199   3.412   0.607
11986TIP3   OH235914   3.572   3.293   3.424
11986TIP3    H135915   3.636   3.256   3.363
11986TIP3    H235916   3.502   3.229   3.427
11987TIP3   OH235917   7.223   1.512   0.012
11987TIP3    H135918   7.195   1.479   0.098
11987TIP3    H235919   7.258   1.599   0.030
11988TIP3   OH235920   4.989   7.532   5.446
11988TIP3    H135921   4.941   7.573   5.374
11988TIP3    H235922   5.081   7.549   5.426
11989TIP3   OH235923   0.032   5.749   1.694
11989TIP3    H135924  -0.044   5.804   1.674
11989TIP3    H235925   0.102   5.784   1.639
11990TIP3   OH235926   5.295   6.410   5.315
11990TIP3    H135927   5.381   6.441   5.286
11990TIP3    H235928   5.303   6.401   5.410
11991TIP3   OH235929   0.686   0.897   1.083
11991TIP3    H135930   0.694   0.974   1.027
11991TIP3    H235931   0.656   0.827   1.024
11992TIP3   OH235932   4.760   6.174   2.155
11992TIP3    H135933   4.688   6.172   2.218
11992TIP3    H235934   4.727   6.227   2.082
11993TIP3   OH235935   1.091   5.918   5.696
11993TIP3    H135936   1.106   5.946   5.786
11993TIP3    H235937   1.039   5.837   5.705
11994TIP3   OH235938   6.284   5.459   3.889
11994TIP3    H135939   6.247   5.502   3.966
11994TIP3    H235940   6.213   5.459   3.825
11995TIP3   OH235941   1.219   0.646   0.097
11995TIP3    H135942   1.310   0.649   0.127
11995TIP3    H235943   1.220   0.692   0.013
11996TIP3   OH235944   6.053   5.945   4.583
11996TIP3    H135945   6.132   5.999   4.577
11996TIP3    H235946   6.041   5.929   4.676
11997TIP3   OH235947   6.264   7.017   0.375
11997TIP3    H135948   6.170   7.035   0.371
11997TIP3    H235949   6.269   6.926   0.406
11998TIP3   OH235950   6.970   2.474   6.641
11998TIP3    H135951   7.010   2.543   6.694
11998TIP3    H235952   7.043   2.433   6.596
11999TIP3   OH235953   6.189   2.083   2.856
11999TIP3    H135954   6.169   2.054   2.767
11999TIP3    H235955   6.112   2.060   2.907
12000TIP3   OH235956   2.426   3.710   6.784
12000TIP3    H135957   2.389   3.672   6.703
12000TIP3    H235958   2.423   3.638   6.847
12001TIP3   OH235959   2.025   5.159   0.610
12001TIP3    H135960   2.112   5.119   0.604
12001TIP3    H235961   2.038   5.250   0.583
12002TIP3   OH235962   6.693   5.209   4.564
12002TIP3    H135963   6.771   5.188   4.511
12002TIP3    H235964   6.701   5.303   4.582
12003TIP3   OH235965   1.656   2.728   5.025
12003TIP3    H135966   1.730   2.773   4.984
12003TIP3    H235967   1.591   2.720   4.955
12004TIP3   OH235968   2.702   4.116   3.218
12004TIP3    H135969   2.715   4.202   3.177
12004TIP3    H235970   2.726   4.129   3.310
12005TIP3   OH235971   0.430   0.951   2.848
12005TIP3    H135972   0.525   0.964   2.848
12005TIP3    H235973   0.399   0.999   2.771
12006TIP3   OH235974   5.257   0.440   3.085
12006TIP3    H135975   5.212   0.458   3.002
12006TIP3    H235976   5.327   0.506   3.089
12007TIP3   OH235977   6.713   1.613   6.412
12007TIP3    H135978   6.695   1.590   6.321
12007TIP3    H235979   6.789   1.560   6.436
12008TIP3   OH235980   7.740   4.713   4.182
12008TIP3    H135981   7.671   4.678   4.126
12008TIP3    H235982   7.694   4.744   4.260
12009TIP3   OH235983   4.928   5.923   1.068
12009TIP3    H135984   4.954   6.011   1.094
12009TIP3    H235985   5.008   5.871   1.073
12010TIP3   OH235986   4.279   0.973   3.644
12010TIP3    H135987   4.209   1.038   3.654
12010TIP3    H235988   4.307   0.982   3.553
12011TIP3   OH235989   6.610   2.037   5.669
12011TIP3    H135990   6.627   2.055   5.577
12011TIP3    H235991   6.690   2.063   5.714
12012TIP3   OH235992   0.499   3.680   0.437
12012TIP3    H135993   0.437   3.699   0.367
12012TIP3    H235994   0.541   3.598   0.411
12013TIP3   OH235995   0.108   1.793   5.984
12013TIP3    H135996   0.114   1.849   5.907
12013TIP3    H235997   0.077   1.851   6.053
12014TIP3   OH235998   7.887   1.019   0.249
12014TIP3    H135999   7.910   0.927   0.242
12014TIP3    H236000   7.971   1.065   0.251
12015TIP3   OH236001   0.271   0.887   1.779
12015TIP3    H136002   0.202   0.945   1.811
12015TIP3    H236003   0.352   0.935   1.796
12016TIP3   OH236004   4.100   7.830   3.812
12016TIP3    H136005   4.051   7.752   3.840
12016TIP3    H236006   4.186   7.797   3.786
12017TIP3   OH236007   2.299   6.509   4.886
12017TIP3    H136008   2.339   6.424   4.904
12017TIP3    H236009   2.357   6.572   4.930
12018TIP3   OH236010   3.994   7.289   3.115
12018TIP3    H136011   4.000   7.198   3.143
12018TIP3    H236012   4.032   7.290   3.027
12019TIP3   OH236013   5.427   0.970   2.239
12019TIP3    H136014   5.520   0.992   2.233
12019TIP3    H236015   5.412   0.953   2.332
12020TIP3   OH236016   7.011   1.305   5.919
12020TIP3    H136017   7.041   1.226   5.873
12020TIP3    H236018   7.070   1.313   5.994
12021TIP3   OH236019   2.983   1.883   4.034
12021TIP3    H136020   3.034   1.962   4.018
12021TIP3    H236021   2.949   1.859   3.947
12022TIP3   OH236022   6.896   5.112   5.830
12022TIP3    H136023   6.943   5.091   5.749
12022TIP3    H236024   6.949   5.073   5.900
12023TIP3   OH236025   8.106   5.401   3.878
12023TIP3    H136026   8.022   5.372   3.842
12023TIP3    H236027   8.082   5.468   3.942
12024TIP3   OH236028   5.938   7.762   2.232
12024TIP3    H136029   5.969   7.710   2.306
12024TIP3    H236030   5.925   7.698   2.162
12025TIP3   OH236031   4.403   2.296   0.787
12025TIP3    H136032   4.352   2.351   0.846
12025TIP3    H236033   4.464   2.356   0.744
12026TIP3   OH236034   3.304   7.677   6.574
12026TIP3    H136035   3.254   7.758   6.571
12026TIP3    H236036   3.394   7.703   6.551
12027TIP3   OH236037   0.731   3.036   0.219
12027TIP3    H136038   0.678   2.985   0.280
12027TIP3    H236039   0.672   3.106   0.190
12028TIP3   OH236040   2.330   3.326   5.783
12028TIP3    H136041   2.301   3.238   5.805
12028TIP3    H236042   2.417   3.314   5.746
12029TIP3   OH236043   8.140   2.434   6.783
12029TIP3    H136044   8.216   2.480   6.821
12029TIP3    H236045   8.165   2.419   6.692
12030TIP3   OH236046   7.490   1.715   0.890
12030TIP3    H136047   7.432   1.789   0.909
12030TIP3    H236048   7.437   1.638   0.907
12031TIP3   OH236049   7.648   5.752   6.466
12031TIP3    H136050   7.652   5.841   6.429
12031TIP3    H236051   7.727   5.744   6.518
12032TIP3   OH236052   5.493   7.242   1.057
12032TIP3    H136053   5.466   7.150   1.058
12032TIP3    H236054   5.507   7.262   0.965
12033TIP3   OH236055   2.874   1.022   0.909
12033TIP3    H136056   2.839   0.962   0.975
12033TIP3    H236057   2.835   0.993   0.827
12034TIP3   OH236058   7.159   0.491   5.949
12034TIP3    H136059   7.066   0.507   5.938
12034TIP3    H236060   7.166   0.440   6.029
12035TIP3   OH236061   8.267   0.597   4.087
12035TIP3    H136062   8.181   0.576   4.050
12035TIP3    H236063   8.248   0.662   4.155
12036TIP3   OH236064   4.831   6.360   5.421
12036TIP3    H136065   4.895   6.426   5.393
12036TIP3    H236066   4.826   6.299   5.347
12037TIP3   OH236067   1.972   6.949   1.366
12037TIP3    H136068   1.999   6.951   1.458
12037TIP3    H236069   2.053   6.937   1.317
12038TIP3   OH236070   1.321   3.571   0.496
12038TIP3    H136071   1.313   3.651   0.444
12038TIP3    H236072   1.279   3.592   0.580
12039TIP3   OH236073   0.202   6.130   5.556
12039TIP3    H136074   0.188   6.041   5.590
12039TIP3    H236075   0.152   6.186   5.615
12040TIP3   OH236076   4.722   0.715   5.478
12040TIP3    H136077   4.627   0.727   5.475
12040TIP3    H236078   4.757   0.804   5.486
12041TIP3   OH236079   2.352   3.592   6.551
12041TIP3    H136080   2.314   3.565   6.468
12041TIP3    H236081   2.397   3.514   6.584
12042TIP3   OH236082   5.055   7.387   5.992
12042TIP3    H136083   4.968   7.397   5.954
12042TIP3    H236084   5.085   7.476   6.009
12043TIP3   OH236085   6.757   1.595   1.132
12043TIP3    H136086   6.774   1.508   1.097
12043TIP3    H236087   6.844   1.631   1.150
12044TIP3   OH236088   6.177   3.780   3.698
12044TIP3    H136089   6.092   3.809   3.664
12044TIP3    H236090   6.155   3.708   3.758
12045TIP3   OH236091   3.707   6.429   1.583
12045TIP3    H136092   3.614   6.423   1.604
12045TIP3    H236093   3.726   6.523   1.580
12046TIP3   OH236094   3.925   2.553   6.441
12046TIP3    H136095   3.906   2.625   6.501
12046TIP3    H236096   3.983   2.591   6.375
12047TIP3   OH236097   1.724   5.366   5.634
12047TIP3    H136098   1.743   5.289   5.687
12047TIP3    H236099   1.779   5.435   5.671
12048TIP3   OH236100   2.209   2.837   5.550
12048TIP3    H136101   2.129   2.812   5.596
12048TIP3    H236102   2.206   2.787   5.468
12049TIP3   OH236103   0.757   3.181   6.315
12049TIP3    H136104   0.691   3.216   6.375
12049TIP3    H236105   0.802   3.258   6.282
12050TIP3   OH236106   0.164   3.150   3.298
12050TIP3    H136107   0.104   3.095   3.248
12050TIP3    H236108   0.238   3.093   3.318
12051TIP3   OH236109   4.983   2.711   5.768
12051TIP3    H136110   4.926   2.787   5.770
12051TIP3    H236111   5.059   2.736   5.821
12052TIP3   OH236112   0.300   6.646   6.023
12052TIP3    H136113   0.212   6.674   6.045
12052TIP3    H236114   0.352   6.727   6.022
12053TIP3   OH236115   5.555   4.833   4.128
12053TIP3    H136116   5.621   4.770   4.158
12053TIP3    H236117   5.523   4.874   4.209
12054TIP3   OH236118   0.469   5.617   2.847
12054TIP3    H136119   0.500   5.580   2.930
12054TIP3    H236120   0.384   5.577   2.833
12055TIP3   OH236121   7.350   6.170   6.278
12055TIP3    H136122   7.334   6.245   6.221
12055TIP3    H236123   7.339   6.093   6.221
12056TIP3   OH236124   8.033   2.453   2.744
12056TIP3    H136125   8.075   2.539   2.745
12056TIP3    H236126   8.103   2.392   2.767
12057TIP3   OH236127   0.639   7.782   0.939
12057TIP3    H136128   0.678   7.728   0.870
12057TIP3    H236129   0.553   7.806   0.904
12058TIP3   OH236130   7.730   3.218   1.343
12058TIP3    H136131   7.753   3.296   1.395
12058TIP3    H236132   7.802   3.210   1.280
12059TIP3   OH236133   6.465   1.621   0.181
12059TIP3    H136134   6.485   1.682   0.110
12059TIP3    H236135   6.397   1.665   0.232
12060TIP3   OH236136   1.458   1.787   4.161
12060TIP3    H136137   1.426   1.874   4.183
12060TIP3    H236138   1.390   1.727   4.193
12061TIP3   OH236139   3.101   6.609   0.647
12061TIP3    H136140   3.135   6.674   0.709
12061TIP3    H236141   3.097   6.657   0.564
12062TIP3   OH236142   3.771   1.481   2.351
12062TIP3    H136143   3.727   1.566   2.342
12062TIP3    H236144   3.864   1.502   2.351
12063TIP3   OH236145   4.362   7.259   2.696
12063TIP3    H136146   4.366   7.168   2.726
12063TIP3    H236147   4.449   7.276   2.660
12064TIP3   OH236148   6.636   2.145   6.009
12064TIP3    H136149   6.653   2.142   6.103
12064TIP3    H236150   6.627   2.053   5.984
12065TIP3   OH236151   4.338   5.298   6.566
12065TIP3    H136152   4.336   5.271   6.475
12065TIP3    H236153   4.263   5.357   6.576
12066TIP3   OH236154   1.057   1.248   1.989
12066TIP3    H136155   0.966   1.216   1.993
12066TIP3    H236156   1.076   1.277   2.079
12067TIP3   OH236157   7.393   4.326   5.166
12067TIP3    H136158   7.316   4.273   5.146
12067TIP3    H236159   7.388   4.342   5.260
12068TIP3   OH236160   1.913   0.894   5.308
12068TIP3    H136161   1.830   0.927   5.343
12068TIP3    H236162   1.980   0.943   5.355
12069TIP3   OH236163   6.307   3.783   6.270
12069TIP3    H136164   6.375   3.817   6.212
12069TIP3    H236165   6.259   3.720   6.217
12070TIP3   OH236166   6.796   3.623   1.434
12070TIP3    H136167   6.762   3.604   1.347
12070TIP3    H236168   6.837   3.541   1.462
12071TIP3   OH236169   5.992   3.494   6.548
12071TIP3    H136170   5.969   3.457   6.633
12071TIP3    H236171   5.923   3.462   6.489
12072TIP3   OH236172   4.219   6.074   3.272
12072TIP3    H136173   4.134   6.081   3.316
12072TIP3    H236174   4.249   5.985   3.292
12073TIP3   OH236175   4.467   6.763   5.318
12073TIP3    H136176   4.543   6.754   5.261
12073TIP3    H236177   4.505   6.774   5.406
12074TIP3   OH236178   8.020   7.378   3.796
12074TIP3    H136179   8.092   7.347   3.852
12074TIP3    H236180   7.950   7.400   3.858
12075TIP3   OH236181   3.599   6.486   5.305
12075TIP3    H136182   3.662   6.557   5.318
12075TIP3    H236183   3.517   6.530   5.282
12076TIP3   OH236184   7.796   4.996   0.634
12076TIP3    H136185   7.728   4.964   0.693
12076TIP3    H236186   7.873   5.007   0.690
12077TIP3   OH236187   7.855   5.120   2.731
12077TIP3    H136188   7.846   5.132   2.637
12077TIP3    H236189   7.949   5.105   2.744
12078TIP3   OH236190   5.161   0.267   6.676
12078TIP3    H136191   5.105   0.215   6.618
12078TIP3    H236192   5.165   0.217   6.757
12079TIP3   OH236193   0.420   2.376   6.678
12079TIP3    H136194   0.379   2.455   6.644
12079TIP3    H236195   0.445   2.399   6.768
12080TIP3   OH236196   1.957   4.028   3.444
12080TIP3    H136197   1.969   4.122   3.430
12080TIP3    H236198   1.977   4.014   3.536
12081TIP3   OH236199   3.537   4.039   1.535
12081TIP3    H136200   3.535   4.090   1.616
12081TIP3    H236201   3.571   3.954   1.561
12082TIP3   OH236202   3.609   3.829   4.301
12082TIP3    H136203   3.589   3.898   4.238
12082TIP3    H236204   3.697   3.800   4.278
12083TIP3   OH236205   3.998   0.769   2.048
12083TIP3    H136206   3.992   0.722   1.964
12083TIP3    H236207   4.051   0.846   2.028
12084TIP3   OH236208   2.907   2.493   3.104
12084TIP3    H136209   2.915   2.537   3.189
12084TIP3    H236210   2.818   2.459   3.104
12085TIP3   OH236211   3.134   5.387   1.083
12085TIP3    H136212   3.228   5.387   1.068
12085TIP3    H236213   3.097   5.343   1.006
12086TIP3   OH236214   5.756   7.303   0.201
12086TIP3    H136215   5.662   7.318   0.197
12086TIP3    H236216   5.790   7.376   0.252
12087TIP3   OH236217   5.810   0.118   3.612
12087TIP3    H136218   5.801   0.213   3.607
12087TIP3    H236219   5.780   0.096   3.700
12088TIP3   OH236220   6.123   2.844   3.082
12088TIP3    H136221   6.106   2.750   3.069
12088TIP3    H236222   6.204   2.860   3.032
12089TIP3   OH236223   8.107   3.459   1.217
12089TIP3    H136224   8.062   3.378   1.238
12089TIP3    H236225   8.125   3.500   1.302
12090TIP3   OH236226   2.033   4.685   4.165
12090TIP3    H136227   2.014   4.746   4.094
12090TIP3    H236228   2.044   4.600   4.121
12091TIP3   OH236229   0.944   4.979   3.663
12091TIP3    H136230   0.912   4.951   3.749
12091TIP3    H236231   0.914   4.911   3.603
12092TIP3   OH236232   4.246   6.586   5.227
12092TIP3    H136233   4.327   6.613   5.269
12092TIP3    H236234   4.241   6.639   5.148
12093TIP3   OH236235   4.164   1.556   6.694
12093TIP3    H136236   4.138   1.466   6.714
12093TIP3    H236237   4.198   1.553   6.605
12094TIP3   OH236238   7.698   2.251   2.290
12094TIP3    H136239   7.693   2.295   2.375
12094TIP3    H236240   7.783   2.208   2.290
12095TIP3   OH236241   3.618   6.310   0.162
12095TIP3    H136242   3.696   6.362   0.145
12095TIP3    H236243   3.639   6.261   0.241
12096TIP3   OH236244   0.808   6.052   4.180
12096TIP3    H136245   0.719   6.041   4.145
12096TIP3    H236246   0.836   5.963   4.202
12097TIP3   OH236247   4.310   3.742   3.335
12097TIP3    H136248   4.267   3.797   3.400
12097TIP3    H236249   4.316   3.656   3.376
12098TIP3   OH236250   8.084   2.168   2.688
12098TIP3    H136251   7.993   2.151   2.664
12098TIP3    H236252   8.101   2.112   2.763
12099TIP3   OH236253   6.202   0.935   4.870
12099TIP3    H136254   6.113   0.970   4.865
12099TIP3    H236255   6.190   0.843   4.892
12100TIP3   OH236256   3.791   6.688   0.308
12100TIP3    H136257   3.759   6.777   0.322
12100TIP3    H236258   3.827   6.689   0.220
12101TIP3   OH236259   6.201   0.502   3.309
12101TIP3    H136260   6.204   0.415   3.348
12101TIP3    H236261   6.270   0.551   3.353
12102TIP3   OH236262   7.043   1.493   3.624
12102TIP3    H136263   7.026   1.585   3.643
12102TIP3    H236264   7.079   1.493   3.536
12103TIP3   OH236265   4.827   6.856   1.371
12103TIP3    H136266   4.774   6.931   1.397
12103TIP3    H236267   4.854   6.875   1.281
12104TIP3   OH236268   4.416   4.521   6.314
12104TIP3    H136269   4.329   4.508   6.276
12104TIP3    H236270   4.429   4.446   6.372
12105TIP3   OH236271   6.154   5.146   0.799
12105TIP3    H136272   6.073   5.106   0.832
12105TIP3    H236273   6.181   5.205   0.869
12106TIP3   OH236274   2.425   2.708   0.032
12106TIP3    H136275   2.499   2.743  -0.018
12106TIP3    H236276   2.386   2.784   0.074
12107TIP3   OH236277   0.857   6.692   3.319
12107TIP3    H136278   0.778   6.736   3.289
12107TIP3    H236279   0.898   6.658   3.240
12108TIP3   OH236280   2.916   0.683   1.225
12108TIP3    H136281   2.998   0.644   1.197
12108TIP3    H236282   2.861   0.683   1.147
12109TIP3   OH236283   0.081   4.042   6.532
12109TIP3    H136284   0.029   4.041   6.452
12109TIP3    H236285   0.035   3.982   6.591
12110TIP3   OH236286   5.988   5.254   6.532
12110TIP3    H136287   5.913   5.239   6.590
12110TIP3    H236288   5.961   5.217   6.448
12111TIP3   OH236289   6.668   4.809   2.501
12111TIP3    H136290   6.617   4.830   2.579
12111TIP3    H236291   6.620   4.851   2.429
12112TIP3   OH236292   0.753   3.618   4.697
12112TIP3    H136293   0.712   3.558   4.760
12112TIP3    H236294   0.697   3.613   4.620
12113TIP3   OH236295   5.926   6.378   4.704
12113TIP3    H136296   5.977   6.343   4.778
12113TIP3    H236297   5.950   6.322   4.630
12114TIP3   OH236298   4.244   5.173   3.986
12114TIP3    H136299   4.324   5.163   3.935
12114TIP3    H236300   4.180   5.210   3.925
12115TIP3   OH236301   6.569   7.504   0.604
12115TIP3    H136302   6.541   7.593   0.579
12115TIP3    H236303   6.572   7.506   0.699
12116TIP3   OH236304   6.245   5.733   0.399
12116TIP3    H136305   6.218   5.759   0.311
12116TIP3    H236306   6.200   5.794   0.457
12117TIP3   OH236307   0.640   6.902   2.588
12117TIP3    H136308   0.714   6.843   2.602
12117TIP3    H236309   0.628   6.905   2.493
12118TIP3   OH236310   2.973   2.931   6.382
12118TIP3    H136311   3.015   2.863   6.436
12118TIP3    H236312   3.045   2.990   6.359
12119TIP3   OH236313   7.128   6.125   1.405
12119TIP3    H136314   7.148   6.032   1.416
12119TIP3    H236315   7.077   6.148   1.482
12120TIP3   OH236316   4.878   5.440   5.093
12120TIP3    H136317   4.924   5.364   5.129
12120TIP3    H236318   4.831   5.406   5.017
12121TIP3   OH236319   1.688   0.966   1.703
12121TIP3    H136320   1.594   0.966   1.723
12121TIP3    H236321   1.706   1.056   1.673
12122TIP3   OH236322   1.870   1.382   5.434
12122TIP3    H136323   1.875   1.477   5.419
12122TIP3    H236324   1.861   1.374   5.529
12123TIP3   OH236325   5.251   1.350   2.166
12123TIP3    H136326   5.270   1.288   2.095
12123TIP3    H236327   5.322   1.338   2.228
12124TIP3   OH236328   1.862   2.819   2.953
12124TIP3    H136329   1.824   2.907   2.950
12124TIP3    H236330   1.932   2.821   2.888
12125TIP3   OH236331   7.875   4.385   6.059
12125TIP3    H136332   7.816   4.418   5.991
12125TIP3    H236333   7.852   4.435   6.137
12126TIP3   OH236334   4.961   1.793   1.741
12126TIP3    H136335   4.876   1.825   1.772
12126TIP3    H236336   4.948   1.699   1.728
12127TIP3   OH236337   0.445   4.925   0.492
12127TIP3    H136338   0.516   4.944   0.553
12127TIP3    H236339   0.409   5.011   0.470
12128TIP3   OH236340   0.078   2.336   0.121
12128TIP3    H136341   0.158   2.330   0.068
12128TIP3    H236342   0.087   2.418   0.169
12129TIP3   OH236343   4.961   6.296   3.100
12129TIP3    H136344   4.995   6.206   3.104
12129TIP3    H236345   4.976   6.322   3.009
12130TIP3   OH236346   6.920   6.521   4.109
12130TIP3    H136347   6.895   6.549   4.021
12130TIP3    H236348   7.014   6.503   4.101
12131TIP3   OH236349   3.500   4.709   6.630
12131TIP3    H136350   3.442   4.730   6.703
12131TIP3    H236351   3.444   4.664   6.567
12132TIP3   OH236352   2.163   7.453   4.528
12132TIP3    H136353   2.109   7.403   4.589
12132TIP3    H236354   2.168   7.397   4.450
12133TIP3   OH236355   1.483   6.219   2.245
12133TIP3    H136356   1.472   6.152   2.178
12133TIP3    H236357   1.420   6.195   2.314
12134TIP3   OH236358   1.151   2.991   4.548
12134TIP3    H136359   1.174   2.967   4.458
12134TIP3    H236360   1.056   2.987   4.550
12135TIP3   OH236361   4.381   7.504   6.350
12135TIP3    H136362   4.308   7.509   6.289
12135TIP3    H236363   4.340   7.500   6.437
12136TIP3   OH236364   6.642   6.496   5.743
12136TIP3    H136365   6.565   6.551   5.732
12136TIP3    H236366   6.620   6.414   5.698
12137TIP3   OH236367   0.137   7.395   2.605
12137TIP3    H136368   0.223   7.407   2.645
12137TIP3    H236369   0.136   7.456   2.531
12138TIP3   OH236370   1.379   0.330   5.475
12138TIP3    H136371   1.413   0.246   5.444
12138TIP3    H236372   1.436   0.353   5.549
12139TIP3   OH236373   7.488   6.225   6.520
12139TIP3    H136374   7.513   6.317   6.513
12139TIP3    H236375   7.417   6.215   6.457
12140TIP3   OH236376   6.805   0.466   6.424
12140TIP3    H136377   6.717   0.495   6.399
12140TIP3    H236378   6.849   0.448   6.341
12141TIP3   OH236379   1.980   2.782   0.736
12141TIP3    H136380   1.946   2.694   0.720
12141TIP3    H236381   1.908   2.841   0.711
12142TIP3   OH236382   8.310   4.815   1.680
12142TIP3    H136383   8.348   4.730   1.701
12142TIP3    H236384   8.278   4.849   1.764
12143TIP3   OH236385   1.303   5.852   5.989
12143TIP3    H136386   1.219   5.894   6.007
12143TIP3    H236387   1.330   5.815   6.073
12144TIP3   OH236388   2.000   7.298   0.490
12144TIP3    H136389   2.060   7.372   0.501
12144TIP3    H236390   1.918   7.328   0.529
12145TIP3   OH236391   5.257   3.374   2.304
12145TIP3    H136392   5.169   3.355   2.270
12145TIP3    H236393   5.262   3.470   2.303
12146TIP3   OH236394   2.973   0.851   2.793
12146TIP3    H136395   2.944   0.846   2.702
12146TIP3    H236396   2.960   0.763   2.827
12147TIP3   OH236397   6.082   0.864   2.978
12147TIP3    H136398   6.090   0.947   2.930
12147TIP3    H236399   6.135   0.802   2.929
12148TIP3   OH236400   4.484   6.219   3.698
12148TIP3    H136401   4.427   6.152   3.735
12148TIP3    H236402   4.473   6.295   3.755
12149TIP3   OH236403   1.477   6.007   2.961
12149TIP3    H136404   1.500   6.034   2.872
12149TIP3    H236405   1.388   5.974   2.953
12150TIP3   OH236406   4.231   5.777   3.629
12150TIP3    H136407   4.218   5.682   3.631
12150TIP3    H236408   4.142   5.813   3.630
12151TIP3   OH236409   3.344   1.668   2.693
12151TIP3    H136410   3.412   1.673   2.760
12151TIP3    H236411   3.301   1.584   2.709
12152TIP3   OH236412   1.432   0.657   2.492
12152TIP3    H136413   1.484   0.728   2.455
12152TIP3    H236414   1.483   0.578   2.474
12153TIP3   OH236415   3.831   0.320   0.611
12153TIP3    H136416   3.745   0.338   0.573
12153TIP3    H236417   3.849   0.229   0.587
12154TIP3   OH236418   3.914   0.883   0.131
12154TIP3    H136419   3.925   0.880   0.226
12154TIP3    H236420   3.878   0.970   0.114
12155TIP3   OH236421   0.650   7.391   4.214
12155TIP3    H136422   0.629   7.464   4.157
12155TIP3    H236423   0.611   7.413   4.298
12156TIP3   OH236424   2.667   0.301   1.490
12156TIP3    H136425   2.748   0.252   1.505
12156TIP3    H236426   2.613   0.283   1.567
12157TIP3   OH236427   1.390   4.302   4.382
12157TIP3    H136428   1.340   4.363   4.327
12157TIP3    H236429   1.345   4.303   4.466
12158TIP3   OH236430   5.461   4.003   6.148
12158TIP3    H136431   5.494   4.072   6.091
12158TIP3    H236432   5.475   4.037   6.237
12159TIP3   OH236433   8.162   6.686   2.539
12159TIP3    H136434   8.121   6.638   2.466
12159TIP3    H236435   8.105   6.669   2.614
12160TIP3   OH236436   6.980   4.631   0.221
12160TIP3    H136437   7.068   4.666   0.205
12160TIP3    H236438   6.937   4.697   0.275
12161TIP3   OH236439   7.357   0.546   5.330
12161TIP3    H136440   7.389   0.514   5.414
12161TIP3    H236441   7.297   0.477   5.299
12162TIP3   OH236442   7.394   2.608   4.349
12162TIP3    H136443   7.339   2.634   4.274
12162TIP3    H236444   7.452   2.683   4.362
12163TIP3   OH236445   3.551   7.275   5.849
12163TIP3    H136446   3.486   7.268   5.920
12163TIP3    H236447   3.502   7.314   5.776
12164TIP3   OH236448   6.331   2.469   4.793
12164TIP3    H136449   6.296   2.390   4.751
12164TIP3    H236450   6.261   2.499   4.851
12165TIP3   OH236451   5.589   1.044   1.885
12165TIP3    H136452   5.611   0.966   1.935
12165TIP3    H236453   5.631   1.031   1.800
12166TIP3   OH236454   0.084   4.186   1.537
12166TIP3    H136455   0.056   4.265   1.490
12166TIP3    H236456   0.026   4.118   1.503
12167TIP3   OH236457   5.521   2.288   4.440
12167TIP3    H136458   5.459   2.337   4.494
12167TIP3    H236459   5.466   2.233   4.384
12168TIP3   OH236460   2.108   4.662   2.048
12168TIP3    H136461   2.109   4.735   1.986
12168TIP3    H236462   2.197   4.657   2.081
12169TIP3   OH236463   2.461   3.228   3.662
12169TIP3    H136464   2.543   3.202   3.705
12169TIP3    H236465   2.410   3.268   3.732
12170TIP3   OH236466   3.053   2.181   4.547
12170TIP3    H136467   3.062   2.086   4.534
12170TIP3    H236468   2.958   2.194   4.555
12171TIP3   OH236469   3.672   3.881   5.032
12171TIP3    H136470   3.718   3.964   5.028
12171TIP3    H236471   3.710   3.836   5.108
12172TIP3   OH236472   0.962   5.191   3.078
12172TIP3    H136473   1.004   5.228   3.001
12172TIP3    H236474   1.023   5.209   3.149
12173TIP3   OH236475   5.599   3.523   6.008
12173TIP3    H136476   5.663   3.592   6.024
12173TIP3    H236477   5.652   3.445   5.992
12174TIP3   OH236478   7.457   7.789   4.371
12174TIP3    H136479   7.525   7.775   4.304
12174TIP3    H236480   7.394   7.848   4.328
12175TIP3   OH236481   6.872   5.073   1.561
12175TIP3    H136482   6.781   5.101   1.550
12175TIP3    H236483   6.884   5.006   1.494
12176TIP3   OH236484   1.319   2.545   1.176
12176TIP3    H136485   1.255   2.524   1.245
12176TIP3    H236486   1.404   2.522   1.214
12177TIP3   OH236487   7.855   3.399   1.526
12177TIP3    H136488   7.841   3.492   1.509
12177TIP3    H236489   7.950   3.387   1.518
12178TIP3   OH236490   6.582   2.726   0.331
12178TIP3    H136491   6.569   2.639   0.294
12178TIP3    H236492   6.511   2.736   0.395
12179TIP3   OH236493   2.147   7.595   2.418
12179TIP3    H136494   2.081   7.606   2.349
12179TIP3    H236495   2.103   7.545   2.486
12180TIP3   OH236496   6.656   3.651   1.207
12180TIP3    H136497   6.696   3.584   1.151
12180TIP3    H236498   6.663   3.732   1.157
12181TIP3   OH236499   8.243   7.035   6.113
12181TIP3    H136500   8.185   6.969   6.074
12181TIP3    H236501   8.292   6.987   6.180
12182TIP3   OH236502   7.772   6.424   0.622
12182TIP3    H136503   7.792   6.503   0.571
12182TIP3    H236504   7.695   6.387   0.578
12183TIP3   OH236505   1.698  -0.002   4.631
12183TIP3    H136506   1.698   0.007   4.726
12183TIP3    H236507   1.770   0.055   4.602
12184TIP3   OH236508   2.320   2.466   5.042
12184TIP3    H136509   2.402   2.416   5.037
12184TIP3    H236510   2.289   2.453   5.131
12185TIP3   OH236511   2.919   6.743   5.710
12185TIP3    H136512   2.993   6.715   5.764
12185TIP3    H236513   2.849   6.681   5.731
12186TIP3   OH236514   2.060   5.079   3.805
12186TIP3    H136515   1.997   5.006   3.806
12186TIP3    H236516   2.074   5.101   3.897
12187TIP3   OH236517   0.729   4.436   4.530
12187TIP3    H136518   0.821   4.464   4.529
12187TIP3    H236519   0.689   4.486   4.601
12188TIP3   OH236520   2.944   3.353   5.074
12188TIP3    H136521   2.895   3.421   5.121
12188TIP3    H236522   2.976   3.396   4.995
12189TIP3   OH236523   4.862   2.235   0.401
12189TIP3    H136524   4.800   2.284   0.456
12189TIP3    H236525   4.809   2.204   0.328
12190TIP3   OH236526   2.649   7.554   1.451
12190TIP3    H136527   2.716   7.550   1.519
12190TIP3    H236528   2.566   7.552   1.499
12191TIP3   OH236529   4.590   3.323   6.486
12191TIP3    H136530   4.628   3.354   6.568
12191TIP3    H236531   4.502   3.361   6.485
12192TIP3   OH236532   4.801   5.515   4.354
12192TIP3    H136533   4.806   5.544   4.263
12192TIP3    H236534   4.887   5.536   4.391
12193TIP3   OH236535   3.953   5.494   2.395
12193TIP3    H136536   4.047   5.496   2.376
12193TIP3    H236537   3.945   5.539   2.479
12194TIP3   OH236538   2.773   1.137   5.400
12194TIP3    H136539   2.750   1.218   5.354
12194TIP3    H236540   2.868   1.131   5.391
12195TIP3   OH236541   4.717   2.195   5.406
12195TIP3    H136542   4.696   2.287   5.422
12195TIP3    H236543   4.748   2.163   5.491
12196TIP3   OH236544   5.221   7.733   4.588
12196TIP3    H136545   5.295   7.750   4.646
12196TIP3    H236546   5.259   7.729   4.500
12197TIP3   OH236547   1.807   7.149   6.394
12197TIP3    H136548   1.776   7.073   6.444
12197TIP3    H236549   1.847   7.112   6.316
12198TIP3   OH236550   7.139   4.197   1.187
12198TIP3    H136551   7.152   4.224   1.096
12198TIP3    H236552   7.221   4.153   1.211
12199TIP3   OH236553   1.831   0.026   4.906
12199TIP3    H136554   1.827   0.116   4.938
12199TIP3    H236555   1.764  -0.020   4.957
12200TIP3   OH236556   3.104   3.959   1.847
12200TIP3    H136557   3.099   3.999   1.761
12200TIP3    H236558   3.060   3.875   1.837
12201TIP3   OH236559   0.884   6.738   6.294
12201TIP3    H136560   0.894   6.806   6.361
12201TIP3    H236561   0.797   6.755   6.257
12202TIP3   OH236562   2.838   2.152   2.295
12202TIP3    H136563   2.894   2.207   2.350
12202TIP3    H236564   2.896   2.122   2.225
12203TIP3   OH236565   4.336   2.011   6.456
12203TIP3    H136566   4.394   1.943   6.423
12203TIP3    H236567   4.280   1.965   6.520
12204TIP3   OH236568   4.535   2.913   1.863
12204TIP3    H136569   4.552   2.878   1.775
12204TIP3    H236570   4.563   3.004   1.858
12205TIP3   OH236571   5.216   2.678   1.495
12205TIP3    H136572   5.219   2.766   1.532
12205TIP3    H236573   5.284   2.677   1.428
12206TIP3   OH236574   7.247   2.105   2.821
12206TIP3    H136575   7.337   2.080   2.803
12206TIP3    H236576   7.206   2.111   2.735
12207TIP3   OH236577   5.552   1.516   2.192
12207TIP3    H136578   5.472   1.508   2.140
12207TIP3    H236579   5.543   1.600   2.237
12208TIP3   OH236580   3.845   3.312   2.571
12208TIP3    H136581   3.860   3.252   2.499
12208TIP3    H236582   3.903   3.281   2.641
12209TIP3   OH236583   1.364   7.617   1.333
12209TIP3    H136584   1.417   7.602   1.254
12209TIP3    H236585   1.369   7.711   1.348
12210TIP3   OH236586   6.647   6.620   1.210
12210TIP3    H136587   6.726   6.572   1.184
12210TIP3    H236588   6.678   6.710   1.224
12211TIP3   OH236589   4.615   3.155   4.601
12211TIP3    H136590   4.541   3.123   4.653
12211TIP3    H236591   4.646   3.232   4.649
12212TIP3   OH236592   6.863   0.333   0.561
12212TIP3    H136593   6.828   0.303   0.477
12212TIP3    H236594   6.829   0.270   0.625
12213TIP3   OH236595   2.741   0.601   1.547
12213TIP3    H136596   2.678   0.549   1.498
12213TIP3    H236597   2.801   0.536   1.585
12214TIP3   OH236598   0.326   2.095   2.181
12214TIP3    H136599   0.314   2.002   2.160
12214TIP3    H236600   0.298   2.141   2.101
12215TIP3   OH236601   4.277   2.312   3.401
12215TIP3    H136602   4.257   2.233   3.450
12215TIP3    H236603   4.265   2.288   3.309
12216TIP3   OH236604   3.904   7.174   0.370
12216TIP3    H136605   3.965   7.238   0.406
12216TIP3    H236606   3.865   7.132   0.447
12217TIP3   OH236607   0.982   0.812   4.986
12217TIP3    H136608   0.998   0.730   4.939
12217TIP3    H236609   1.036   0.806   5.065
12218TIP3   OH236610   7.197   7.785   2.441
12218TIP3    H136611   7.119   7.731   2.455
12218TIP3    H236612   7.203   7.794   2.346
12219TIP3   OH236613   8.137   5.689   0.724
12219TIP3    H136614   8.098   5.776   0.722
12219TIP3    H236615   8.217   5.699   0.775
12220TIP3   OH236616   3.033   3.833   3.396
12220TIP3    H136617   3.056   3.806   3.485
12220TIP3    H236618   2.937   3.830   3.394
12221TIP3   OH236619   3.775   5.296   1.622
12221TIP3    H136620   3.837   5.319   1.553
12221TIP3    H236621   3.787   5.202   1.635
12222TIP3   OH236622   8.271   7.628   6.488
12222TIP3    H136623   8.292   7.716   6.518
12222TIP3    H236624   8.291   7.571   6.562
12223TIP3   OH236625   6.835   0.628   1.047
12223TIP3    H136626   6.929   0.617   1.030
12223TIP3    H236627   6.793   0.563   0.990
12224TIP3   OH236628   0.894   1.933   3.944
12224TIP3    H136629   0.970   1.915   4.000
12224TIP3    H236630   0.929   1.929   3.855
12225TIP3   OH236631   2.898   6.987   2.660
12225TIP3    H136632   2.807   6.962   2.646
12225TIP3    H236633   2.894   7.061   2.720
12226TIP3   OH236634   7.795   0.079   6.423
12226TIP3    H136635   7.819   0.097   6.513
12226TIP3    H236636   7.872   0.035   6.386
12227TIP3   OH236637   3.840   5.548   5.993
12227TIP3    H136638   3.748   5.549   5.966
12227TIP3    H236639   3.850   5.467   6.043
12228TIP3   OH236640   1.261   3.937   1.058
12228TIP3    H136641   1.175   3.912   1.025
12228TIP3    H236642   1.323   3.883   1.009
12229TIP3   OH236643   4.360   1.968   4.292
12229TIP3    H136644   4.336   1.876   4.302
12229TIP3    H236645   4.426   1.983   4.360
12230TIP3   OH236646   4.016   1.844   0.267
12230TIP3    H136647   3.974   1.785   0.329
12230TIP3    H236648   3.944   1.892   0.227
12231TIP3   OH236649   7.659   5.643   4.278
12231TIP3    H136650   7.748   5.650   4.311
12231TIP3    H236651   7.662   5.569   4.217
12232TIP3   OH236652   1.356   7.820   0.539
12232TIP3    H136653   1.261   7.819   0.550
12232TIP3    H236654   1.377   7.910   0.518
12233TIP3   OH236655   7.713   5.461   1.622
12233TIP3    H136656   7.676   5.472   1.534
12233TIP3    H236657   7.637   5.446   1.678
12234TIP3   OH236658   0.931   4.958   4.323
12234TIP3    H136659   0.889   5.034   4.364
12234TIP3    H236660   0.997   4.930   4.386
12235TIP3   OH236661   4.944   5.717   3.053
12235TIP3    H136662   4.955   5.807   3.025
12235TIP3    H236663   5.032   5.679   3.046
12236TIP3   OH236664   6.444   1.008   1.861
12236TIP3    H136665   6.510   1.003   1.930
12236TIP3    H236666   6.401   0.922   1.863
12237TIP3   OH236667   7.980   7.636   1.936
12237TIP3    H136668   7.920   7.709   1.948
12237TIP3    H236669   7.927   7.567   1.896
12238TIP3   OH236670   0.393   1.282   1.947
12238TIP3    H136671   0.384   1.316   1.858
12238TIP3    H236672   0.405   1.188   1.936
12239TIP3   OH236673   3.868   2.368   1.456
12239TIP3    H136674   3.836   2.433   1.393
12239TIP3    H236675   3.794   2.310   1.469
12240TIP3   OH236676   0.752   1.699   3.991
12240TIP3    H136677   0.794   1.747   3.920
12240TIP3    H236678   0.673   1.750   4.010
12241TIP3   OH236679   7.758   3.774   2.588
12241TIP3    H136680   7.795   3.829   2.658
12241TIP3    H236681   7.683   3.731   2.628
12242TIP3   OH236682   3.427   6.820   0.027
12242TIP3    H136683   3.372   6.743   0.027
12242TIP3    H236684   3.517   6.786   0.031
12243TIP3   OH236685   1.650   3.257   6.160
12243TIP3    H136686   1.717   3.322   6.180
12243TIP3    H236687   1.668   3.185   6.221
12244TIP3   OH236688   1.575   1.389   4.340
12244TIP3    H136689   1.544   1.443   4.413
12244TIP3    H236690   1.515   1.410   4.268
12245TIP3   OH236691   4.263   0.602   4.021
12245TIP3    H136692   4.287   0.640   4.105
12245TIP3    H236693   4.167   0.597   4.023
12246TIP3   OH236694   1.751   2.524   2.723
12246TIP3    H136695   1.834   2.521   2.677
12246TIP3    H236696   1.699   2.453   2.685
12247TIP3   OH236697   3.732   7.025   4.412
12247TIP3    H136698   3.827   7.020   4.425
12247TIP3    H236699   3.700   6.940   4.443
12248TIP3   OH236700   0.569   7.612   3.695
12248TIP3    H136701   0.566   7.522   3.728
12248TIP3    H236702   0.630   7.608   3.622
12249TIP3   OH236703   3.863   4.602   3.033
12249TIP3    H136704   3.840   4.510   3.045
12249TIP3    H236705   3.923   4.621   3.106
12250TIP3   OH236706   0.976   7.116   0.222
12250TIP3    H136707   0.937   7.190   0.267
12250TIP3    H236708   0.901   7.063   0.194
12251TIP3   OH236709   0.589   7.012   5.286
12251TIP3    H136710   0.584   7.052   5.199
12251TIP3    H236711   0.512   6.955   5.290
12252TIP3   OH236712   2.632   3.097   0.937
12252TIP3    H136713   2.548   3.064   0.904
12252TIP3    H236714   2.698   3.047   0.889
12253TIP3   OH236715   0.060   1.121   3.865
12253TIP3    H136716   0.151   1.130   3.895
12253TIP3    H236717   0.014   1.085   3.941
12254TIP3   OH236718   2.175   1.559   5.328
12254TIP3    H136719   2.196   1.640   5.282
12254TIP3    H236720   2.198   1.576   5.419
12255TIP3   OH236721   2.864   7.075   5.932
12255TIP3    H136722   2.931   7.143   5.921
12255TIP3    H236723   2.902   7.014   5.994
12256TIP3   OH236724   4.663   6.496   2.163
12256TIP3    H136725   4.750   6.532   2.149
12256TIP3    H236726   4.660   6.417   2.109
12257TIP3   OH236727   3.356   7.332   3.963
12257TIP3    H136728   3.361   7.412   3.911
12257TIP3    H236729   3.435   7.333   4.017
12258TIP3   OH236730   1.535   2.481   1.591
12258TIP3    H136731   1.499   2.398   1.561
12258TIP3    H236732   1.570   2.462   1.678
12259TIP3   OH236733   7.785   7.107   2.733
12259TIP3    H136734   7.758   7.115   2.824
12259TIP3    H236735   7.774   7.014   2.712
12260TIP3   OH236736   4.076   5.943   0.158
12260TIP3    H136737   3.989   5.929   0.121
12260TIP3    H236738   4.061   5.948   0.253
12261TIP3   OH236739   3.757   2.540   1.248
12261TIP3    H136740   3.679   2.487   1.234
12261TIP3    H236741   3.724   2.625   1.277
12262TIP3   OH236742   7.016   2.104   4.284
12262TIP3    H136743   6.939   2.109   4.227
12262TIP3    H236744   7.080   2.162   4.242
12263TIP3   OH236745   4.487   5.482   3.076
12263TIP3    H136746   4.466   5.572   3.054
12263TIP3    H236747   4.429   5.460   3.149
12264TIP3   OH236748   7.163   0.890   4.658
12264TIP3    H136749   7.109   0.823   4.700
12264TIP3    H236750   7.241   0.843   4.629
12265TIP3   OH236751   5.602   1.402   1.515
12265TIP3    H136752   5.567   1.464   1.451
12265TIP3    H236753   5.610   1.320   1.466
12266TIP3   OH236754   1.664   4.462   3.957
12266TIP3    H136755   1.720   4.478   4.032
12266TIP3    H236756   1.647   4.548   3.920
12267TIP3   OH236757   0.314   2.174   2.710
12267TIP3    H136758   0.320   2.120   2.789
12267TIP3    H236759   0.316   2.112   2.637
12268TIP3   OH236760   4.111   7.203   3.559
12268TIP3    H136761   4.168   7.154   3.619
12268TIP3    H236762   4.026   7.159   3.565
12269TIP3   OH236763   6.494   3.489   3.706
12269TIP3    H136764   6.501   3.527   3.618
12269TIP3    H236765   6.580   3.502   3.745
12270TIP3   OH236766   6.822   3.254   4.624
12270TIP3    H136767   6.853   3.238   4.713
12270TIP3    H236768   6.804   3.167   4.588
12271TIP3   OH236769   0.790   5.006   4.815
12271TIP3    H136770   0.842   4.936   4.853
12271TIP3    H236771   0.802   5.080   4.874
12272TIP3   OH236772   3.231   3.588   1.784
12272TIP3    H136773   3.169   3.637   1.839
12272TIP3    H236774   3.198   3.600   1.695
12273TIP3   OH236775   6.599   7.667   0.093
12273TIP3    H136776   6.682   7.639   0.054
12273TIP3    H236777   6.622   7.698   0.180
12274TIP3   OH236778   2.975   0.483   6.164
12274TIP3    H136779   2.887   0.493   6.125
12274TIP3    H236780   3.002   0.396   6.138
12275TIP3   OH236781   3.883   0.533   2.198
12275TIP3    H136782   3.817   0.492   2.142
12275TIP3    H236783   3.911   0.611   2.150
12276TIP3   OH236784   4.549   4.201   2.366
12276TIP3    H136785   4.485   4.145   2.410
12276TIP3    H236786   4.624   4.201   2.426
12277TIP3   OH236787   6.191   3.758   5.143
12277TIP3    H136788   6.189   3.849   5.172
12277TIP3    H236789   6.129   3.713   5.200
12278TIP3   OH236790   6.599   7.041   0.319
12278TIP3    H136791   6.643   7.036   0.234
12278TIP3    H236792   6.657   6.993   0.379
12279TIP3   OH236793   0.750   0.813   4.801
12279TIP3    H136794   0.664   0.826   4.842
12279TIP3    H236795   0.812   0.817   4.873
12280TIP3   OH236796   0.621   1.727   4.781
12280TIP3    H136797   0.680   1.802   4.781
12280TIP3    H236798   0.649   1.674   4.855
12281TIP3   OH236799   4.043   3.529   0.060
12281TIP3    H136800   3.958   3.516   0.018
12281TIP3    H236801   4.034   3.611   0.109
12282TIP3   OH236802   2.040   0.653   4.597
12282TIP3    H136803   2.084   0.693   4.672
12282TIP3    H236804   2.011   0.726   4.544
12283TIP3   OH236805   7.595   4.329   6.346
12283TIP3    H136806   7.659   4.388   6.305
12283TIP3    H236807   7.617   4.332   6.439
12284TIP3   OH236808   4.216   1.535   3.295
12284TIP3    H136809   4.232   1.625   3.322
12284TIP3    H236810   4.159   1.542   3.218
12285TIP3   OH236811   2.909   7.403   1.423
12285TIP3    H136812   2.944   7.490   1.404
12285TIP3    H236813   2.949   7.346   1.357
12286TIP3   OH236814   3.351   5.062   0.905
12286TIP3    H136815   3.274   5.033   0.955
12286TIP3    H236816   3.392   5.128   0.961
12287TIP3   OH236817   0.783   0.712   0.225
12287TIP3    H136818   0.794   0.795   0.179
12287TIP3    H236819   0.712   0.728   0.287
12288TIP3   OH236820   5.627   4.873   6.132
12288TIP3    H136821   5.594   4.834   6.051
12288TIP3    H236822   5.572   4.836   6.201
12289TIP3   OH236823   0.442   2.105   1.840
12289TIP3    H136824   0.501   2.179   1.823
12289TIP3    H236825   0.432   2.063   1.754
12290TIP3   OH236826   6.071   2.509   0.379
12290TIP3    H136827   6.114   2.592   0.400
12290TIP3    H236828   6.013   2.529   0.306
12291TIP3   OH236829   6.030   5.575   6.172
12291TIP3    H136830   6.113   5.530   6.188
12291TIP3    H236831   6.056   5.661   6.139
12292TIP3   OH236832   7.940   1.056   6.780
12292TIP3    H136833   7.912   0.969   6.751
12292TIP3    H236834   7.865   1.092   6.826
12293TIP3   OH236835   8.034   5.177   1.447
12293TIP3    H136836   8.024   5.089   1.482
12293TIP3    H236837   8.045   5.165   1.353
12294TIP3   OH236838   0.437   6.907   6.478
12294TIP3    H136839   0.346   6.893   6.507
12294TIP3    H236840   0.443   7.001   6.465
12295TIP3   OH236841   7.512   4.955   6.376
12295TIP3    H136842   7.595   4.927   6.340
12295TIP3    H236843   7.451   4.884   6.354
12296TIP3   OH236844   2.812   4.652   3.132
12296TIP3    H136845   2.829   4.664   3.225
12296TIP3    H236846   2.797   4.740   3.099
12297TIP3   OH236847   2.887   1.117   2.771
12297TIP3    H136848   2.922   1.028   2.783
12297TIP3    H236849   2.815   1.123   2.834
12298TIP3   OH236850   2.154   7.660   3.655
12298TIP3    H136851   2.196   7.647   3.740
12298TIP3    H236852   2.226   7.664   3.592
12299TIP3   OH236853   3.686   0.767   4.751
12299TIP3    H136854   3.611   0.796   4.803
12299TIP3    H236855   3.657   0.685   4.712
12300TIP3   OH236856   4.946   0.807   2.794
12300TIP3    H136857   4.855   0.795   2.769
12300TIP3    H236858   4.941   0.851   2.879
12301TIP3   OH236859   7.450   5.445   0.735
12301TIP3    H136860   7.499   5.523   0.707
12301TIP3    H236861   7.496   5.372   0.692
12302TIP3   OH236862   4.373   6.561   1.943
12302TIP3    H136863   4.402   6.626   2.007
12302TIP3    H236864   4.427   6.577   1.866
12303TIP3   OH236865   6.987   5.359   0.654
12303TIP3    H136866   7.023   5.443   0.684
12303TIP3    H236867   7.062   5.313   0.616
12304TIP3   OH236868   7.449   2.239   0.119
12304TIP3    H136869   7.464   2.184   0.196
12304TIP3    H236870   7.499   2.319   0.136
12305TIP3   OH236871   8.058   7.194   4.401
12305TIP3    H136872   8.111   7.200   4.321
12305TIP3    H236873   7.983   7.141   4.376
12306TIP3   OH236874   1.918   1.215   4.508
12306TIP3    H136875   1.867   1.227   4.589
12306TIP3    H236876   2.003   1.253   4.528
12307TIP3   OH236877   1.535   4.170   1.416
12307TIP3    H136878   1.593   4.240   1.386
12307TIP3    H236879   1.455   4.214   1.442
12308TIP3   OH236880   5.444   1.943   4.062
12308TIP3    H136881   5.527   1.954   4.108
12308TIP3    H236882   5.449   2.005   3.989
12309TIP3   OH236883   3.103   6.812   1.690
12309TIP3    H136884   3.056   6.737   1.654
12309TIP3    H236885   3.035   6.873   1.717
12310TIP3   OH236886   3.107   4.894   4.749
12310TIP3    H136887   3.106   4.816   4.805
12310TIP3    H236888   3.015   4.908   4.726
12311TIP3   OH236889   0.805   4.427   0.224
12311TIP3    H136890   0.799   4.353   0.164
12311TIP3    H236891   0.857   4.395   0.298
12312TIP3   OH236892   8.091   5.193   6.736
12312TIP3    H136893   8.101   5.285   6.760
12312TIP3    H236894   8.044   5.195   6.653
12313TIP3   OH236895   3.000   6.591   1.528
12313TIP3    H136896   2.992   6.496   1.522
12313TIP3    H236897   2.911   6.624   1.510
12314TIP3   OH236898   3.946   4.091   1.166
12314TIP3    H136899   3.885   4.082   1.240
12314TIP3    H236900   3.894   4.130   1.096
12315TIP3   OH236901   1.556   0.629   5.070
12315TIP3    H136902   1.590   0.564   5.007
12315TIP3    H236903   1.540   0.707   5.017
12316TIP3   OH236904   4.588   0.807   4.018
12316TIP3    H136905   4.576   0.881   3.958
12316TIP3    H236906   4.501   0.791   4.054
12317TIP3   OH236907   1.535   1.856   2.996
12317TIP3    H136908   1.514   1.853   2.903
12317TIP3    H236909   1.454   1.887   3.038
12318TIP3   OH236910   0.694   0.446   4.867
12318TIP3    H136911   0.779   0.427   4.827
12318TIP3    H236912   0.715   0.481   4.953
12319TIP3   OH236913   0.142   4.758   3.150
12319TIP3    H136914   0.113   4.844   3.119
12319TIP3    H236915   0.235   4.754   3.126
12320TIP3   OH236916   7.555   7.297   3.582
12320TIP3    H136917   7.506   7.305   3.500
12320TIP3    H236918   7.647   7.305   3.557
12321TIP3   OH236919   7.460   6.565   3.682
12321TIP3    H136920   7.463   6.627   3.610
12321TIP3    H236921   7.515   6.492   3.654
12322TIP3   OH236922   3.338   6.496   5.237
12322TIP3    H136923   3.275   6.565   5.258
12322TIP3    H236924   3.343   6.443   5.316
12323TIP3   OH236925   6.327   7.024   4.101
12323TIP3    H136926   6.332   7.023   4.006
12323TIP3    H236927   6.334   6.932   4.127
12324TIP3   OH236928   7.582   7.086   4.118
12324TIP3    H136929   7.569   7.020   4.051
12324TIP3    H236930   7.663   7.061   4.162
12325TIP3   OH236931   2.607   6.747   4.654
12325TIP3    H136932   2.584   6.692   4.579
12325TIP3    H236933   2.652   6.688   4.715
12326TIP3   OH236934   3.638   1.590   6.576
12326TIP3    H136935   3.625   1.684   6.558
12326TIP3    H236936   3.562   1.548   6.537
12327TIP3   OH236937   4.621   4.978   0.482
12327TIP3    H136938   4.716   4.983   0.473
12327TIP3    H236939   4.591   4.928   0.407
12328TIP3   OH236940   4.108   6.447   4.395
12328TIP3    H136941   4.163   6.377   4.430
12328TIP3    H236942   4.091   6.504   4.469
12329TIP3   OH236943   1.236   1.980   6.380
12329TIP3    H136944   1.271   1.991   6.468
12329TIP3    H236945   1.248   1.887   6.361
12330TIP3   OH236946   6.807   1.366   5.190
12330TIP3    H136947   6.794   1.311   5.267
12330TIP3    H236948   6.722   1.367   5.147
12331TIP3   OH236949   3.531   1.671   0.117
12331TIP3    H136950   3.500   1.601   0.061
12331TIP3    H236951   3.526   1.750   0.063
12332TIP3   OH236952   1.903   7.051   2.230
12332TIP3    H136953   1.846   6.999   2.174
12332TIP3    H236954   1.917   7.132   2.181
12333TIP3   OH236955   1.850   6.539   4.899
12333TIP3    H136956   1.850   6.444   4.911
12333TIP3    H236957   1.758   6.561   4.884
12334TIP3   OH236958   2.528   4.543   0.062
12334TIP3    H136959   2.563   4.575  -0.021
12334TIP3    H236960   2.604   4.508   0.109
12335TIP3   OH236961   3.850   2.961   3.385
12335TIP3    H136962   3.842   2.882   3.438
12335TIP3    H236963   3.837   2.932   3.295
12336TIP3   OH236964   0.174   6.328   2.376
12336TIP3    H136965   0.116   6.404   2.368
12336TIP3    H236966   0.257   6.358   2.340
12337TIP3   OH236967   4.444   3.180   6.111
12337TIP3    H136968   4.515   3.188   6.175
12337TIP3    H236969   4.488   3.182   6.026
12338TIP3   OH236970   0.742   0.491   3.273
12338TIP3    H136971   0.657   0.450   3.287
12338TIP3    H236972   0.730   0.549   3.199
12339TIP3   OH236973   6.173   3.935   2.643
12339TIP3    H136974   6.129   3.976   2.569
12339TIP3    H236975   6.168   3.841   2.624
12340TIP3   OH236976   0.960   5.838   1.340
12340TIP3    H136977   1.019   5.776   1.382
12340TIP3    H236978   0.927   5.792   1.263
12341TIP3   OH236979   6.268   1.229   5.132
12341TIP3    H136980   6.207   1.296   5.100
12341TIP3    H236981   6.214   1.150   5.140
12342TIP3   OH236982   6.715   6.402   1.454
12342TIP3    H136983   6.647   6.465   1.476
12342TIP3    H236984   6.796   6.443   1.484
12343TIP3   OH236985   4.490   2.433   2.763
12343TIP3    H136986   4.477   2.500   2.830
12343TIP3    H236987   4.571   2.459   2.719
12344TIP3   OH236988   0.337   4.222   1.613
12344TIP3    H136989   0.400   4.149   1.611
12344TIP3    H236990   0.253   4.181   1.591
12345TIP3   OH236991   5.487   7.124   0.021
12345TIP3    H136992   5.559   7.072  -0.015
12345TIP3    H236993   5.524   7.167   0.098
12346TIP3   OH236994   0.433   5.123   4.424
12346TIP3    H136995   0.373   5.171   4.482
12346TIP3    H236996   0.500   5.088   4.483
12347TIP3   OH236997   8.192   2.253   1.763
12347TIP3    H136998   8.274   2.294   1.788
12347TIP3    H236999   8.196   2.247   1.667
12348TIP3   OH237000   0.024   4.181   4.641
12348TIP3    H137001  -0.051   4.123   4.636
12348TIP3    H237002  -0.013   4.269   4.640
12349TIP3   OH237003   1.596   0.870   0.662
12349TIP3    H137004   1.556   0.786   0.683
12349TIP3    H237005   1.530   0.915   0.608
12350TIP3   OH237006   4.551   6.212   4.978
12350TIP3    H137007   4.642   6.241   4.968
12350TIP3    H237008   4.528   6.237   5.068
12351TIP3   OH237009   0.971   5.626   1.955
12351TIP3    H137010   0.969   5.638   2.049
12351TIP3    H237011   0.889   5.664   1.924
12352TIP3   OH237012   1.727   6.847   2.115
12352TIP3    H137013   1.698   6.789   2.044
12352TIP3    H237014   1.714   6.796   2.195
12353TIP3   OH237015   2.114   0.993   3.012
12353TIP3    H137016   2.129   0.914   3.065
12353TIP3    H237017   2.090   1.060   3.076
12354TIP3   OH237018   8.090   6.494   6.390
12354TIP3    H137019   8.165   6.434   6.392
12354TIP3    H237020   8.120   6.569   6.340
12355TIP3   OH237021   0.060   1.267   2.933
12355TIP3    H137022   0.030   1.358   2.935
12355TIP3    H237023   0.044   1.234   3.021
12356TIP3   OH237024   1.891   5.645   3.237
12356TIP3    H137025   1.872   5.628   3.145
12356TIP3    H237026   1.826   5.593   3.284
12357TIP3   OH237027   1.730   0.665   2.111
12357TIP3    H137028   1.706   0.606   2.039
12357TIP3    H237029   1.815   0.700   2.085
12358TIP3   OH237030   4.832   1.955   2.124
12358TIP3    H137031   4.837   1.873   2.173
12358TIP3    H237032   4.794   1.931   2.040
12359TIP3   OH237033   1.383   5.812   3.659
12359TIP3    H137034   1.472   5.778   3.659
12359TIP3    H237035   1.336   5.757   3.722
12360TIP3   OH237036   0.767   4.752   4.567
12360TIP3    H137037   0.746   4.671   4.612
12360TIP3    H237038   0.853   4.735   4.527
12361TIP3   OH237039   7.822   1.193   1.551
12361TIP3    H137040   7.787   1.107   1.571
12361TIP3    H237041   7.781   1.251   1.616
12362TIP3   OH237042   0.607   6.960   2.318
12362TIP3    H137043   0.523   6.933   2.356
12362TIP3    H237044   0.593   7.051   2.291
12363TIP3   OH237045   4.854   4.370   2.818
12363TIP3    H137046   4.835   4.286   2.860
12363TIP3    H237047   4.831   4.435   2.884
12364TIP3   OH237048   7.040   5.976   6.042
12364TIP3    H137049   6.994   6.019   5.970
12364TIP3    H237050   6.973   5.924   6.086
12365TIP3   OH237051   0.282   1.136   1.121
12365TIP3    H137052   0.360   1.091   1.153
12365TIP3    H237053   0.293   1.227   1.149
12366TIP3   OH237054   4.691   1.758   5.111
12366TIP3    H137055   4.619   1.697   5.127
12366TIP3    H237056   4.681   1.825   5.178
12367TIP3   OH237057   6.172   7.784   6.683
12367TIP3    H137058   6.252   7.774   6.632
12367TIP3    H237059   6.178   7.872   6.720
12368TIP3   OH237060   5.816   6.986   0.607
12368TIP3    H137061   5.812   7.074   0.569
12368TIP3    H237062   5.909   6.975   0.629
12369TIP3   OH237063   2.665   0.195   6.698
12369TIP3    H137064   2.573   0.183   6.674
12369TIP3    H237065   2.686   0.121   6.755
12370TIP3   OH237066   0.508   0.070   3.796
12370TIP3    H137067   0.578   0.076   3.732
12370TIP3    H237068   0.546   0.021   3.869
12371TIP3   OH237069   2.932   0.274   2.319
12371TIP3    H137070   2.886   0.331   2.258
12371TIP3    H237071   2.896   0.187   2.304
12372TIP3   OH237072   3.791   6.062   1.449
12372TIP3    H137073   3.798   6.136   1.509
12372TIP3    H237074   3.845   5.993   1.488
12373TIP3   OH237075   2.855   3.457   0.468
12373TIP3    H137076   2.782   3.478   0.410
12373TIP3    H237077   2.931   3.451   0.411
12374TIP3   OH237078   0.621   2.652   3.465
12374TIP3    H137079   0.580   2.636   3.550
12374TIP3    H237080   0.559   2.707   3.418
12375TIP3   OH237081   4.935   1.164   3.608
12375TIP3    H137082   4.873   1.108   3.562
12375TIP3    H237083   5.000   1.104   3.644
12376TIP3   OH237084   7.546   5.427   2.654
12376TIP3    H137085   7.595   5.479   2.718
12376TIP3    H237086   7.546   5.339   2.691
12377TIP3   OH237087   7.735   5.921   4.502
12377TIP3    H137088   7.736   5.918   4.406
12377TIP3    H237089   7.824   5.896   4.527
12378TIP3   OH237090   7.863   1.343   6.116
12378TIP3    H137091   7.939   1.380   6.162
12378TIP3    H237092   7.787   1.376   6.163
12379TIP3   OH237093   7.227   7.545   0.882
12379TIP3    H137094   7.316   7.512   0.898
12379TIP3    H237095   7.233   7.639   0.900
12380TIP3   OH237096   3.426   7.326   3.223
12380TIP3    H137097   3.398   7.248   3.174
12380TIP3    H237098   3.514   7.343   3.192
12381TIP3   OH237099   2.534   3.827   1.956
12381TIP3    H137100   2.473   3.901   1.946
12381TIP3    H237101   2.601   3.842   1.889
12382TIP3   OH237102   5.761   2.722   2.025
12382TIP3    H137103   5.817   2.767   2.088
12382TIP3    H237104   5.739   2.639   2.068
12383TIP3   OH237105   0.464   7.743   0.168
12383TIP3    H137106   0.526   7.800   0.123
12383TIP3    H237107   0.384   7.795   0.174
12384TIP3   OH237108   6.668   2.582   5.143
12384TIP3    H137109   6.650   2.545   5.057
12384TIP3    H237110   6.666   2.507   5.202
12385TIP3   OH237111   5.671   3.114   3.503
12385TIP3    H137112   5.630   3.113   3.417
12385TIP3    H237113   5.753   3.162   3.491
12386TIP3   OH237114   1.113   6.922   1.708
12386TIP3    H137115   1.026   6.943   1.742
12386TIP3    H237116   1.151   7.007   1.686
12387TIP3   OH237117   0.475   1.607   5.659
12387TIP3    H137118   0.460   1.660   5.738
12387TIP3    H237119   0.477   1.671   5.588
12388TIP3   OH237120   2.208   2.185   3.410
12388TIP3    H137121   2.177   2.127   3.480
12388TIP3    H237122   2.267   2.247   3.453
12389TIP3   OH237123   7.047   7.533   3.085
12389TIP3    H137124   7.102   7.504   3.012
12389TIP3    H237125   7.010   7.453   3.122
12390TIP3   OH237126   1.722   7.049   3.609
12390TIP3    H137127   1.631   7.020   3.599
12390TIP3    H237128   1.767   7.014   3.531
12391TIP3   OH237129   6.136   7.097   5.563
12391TIP3    H137130   6.150   7.178   5.613
12391TIP3    H237131   6.080   7.044   5.618
12392TIP3   OH237132   6.869   3.066   5.515
12392TIP3    H137133   6.873   3.101   5.604
12392TIP3    H237134   6.811   3.126   5.469
12393TIP3   OH237135   1.612   0.121   1.534
12393TIP3    H137136   1.658   0.038   1.546
12393TIP3    H237137   1.529   0.097   1.492
12394TIP3   OH237138   1.910   3.315   2.017
12394TIP3    H137139   1.897   3.348   2.106
12394TIP3    H237140   1.976   3.373   1.980
12395TIP3   OH237141   2.297   3.630   0.526
12395TIP3    H137142   2.298   3.722   0.501
12395TIP3    H237143   2.263   3.630   0.616
12396TIP3   OH237144   7.121   0.547   1.475
12396TIP3    H137145   7.041   0.588   1.441
12396TIP3    H237146   7.182   0.549   1.401
12397TIP3   OH237147   1.091   4.160   1.413
12397TIP3    H137148   1.074   4.191   1.324
12397TIP3    H237149   1.013   4.185   1.463
12398TIP3   OH237150   4.041   1.436   3.753
12398TIP3    H137151   4.094   1.429   3.673
12398TIP3    H237152   4.056   1.525   3.784
12399TIP3   OH237153   7.362   7.690   3.202
12399TIP3    H137154   7.386   7.613   3.150
12399TIP3    H237155   7.303   7.739   3.146
12400TIP3   OH237156   6.234   7.530   5.420
12400TIP3    H137157   6.315   7.485   5.396
12400TIP3    H237158   6.225   7.599   5.353
12401TIP3   OH237159   7.180   1.867   6.308
12401TIP3    H137160   7.233   1.899   6.235
12401TIP3    H237161   7.106   1.823   6.267
12402TIP3   OH237162   4.436   4.389   0.685
12402TIP3    H137163   4.486   4.344   0.753
12402TIP3    H237164   4.346   4.387   0.717
12403TIP3   OH237165   7.263   5.124   5.162
12403TIP3    H137166   7.272   5.173   5.081
12403TIP3    H237167   7.230   5.038   5.135
12404TIP3   OH237168   4.289   2.078   2.899
12404TIP3    H137169   4.352   2.098   2.829
12404TIP3    H237170   4.204   2.102   2.862
12405TIP3   OH237171   6.072   4.163   1.500
12405TIP3    H137172   6.064   4.170   1.404
12405TIP3    H237173   5.996   4.211   1.533
12406TIP3   OH237174   0.501   1.472   1.139
12406TIP3    H137175   0.503   1.405   1.208
12406TIP3    H237176   0.443   1.540   1.174
12407TIP3   OH237177   0.969   4.555   4.586
12407TIP3    H137178   0.994   4.526   4.674
12407TIP3    H237179   1.049   4.546   4.534
12408TIP3   OH237180   6.914   1.682   2.489
12408TIP3    H137181   6.992   1.691   2.434
12408TIP3    H237182   6.888   1.590   2.480
12409TIP3   OH237183   2.997   3.761   2.117
12409TIP3    H137184   3.046   3.694   2.166
12409TIP3    H237185   3.020   3.843   2.160
12410TIP3   OH237186   0.742   1.527   1.012
12410TIP3    H137187   0.671   1.521   1.075
12410TIP3    H237188   0.705   1.577   0.939
12411TIP3   OH237189   3.073   2.411   0.853
12411TIP3    H137190   3.049   2.417   0.946
12411TIP3    H237191   3.146   2.349   0.852
12412TIP3   OH237192   7.494   6.357   2.462
12412TIP3    H137193   7.449   6.305   2.395
12412TIP3    H237194   7.572   6.305   2.482
12413TIP3   OH237195   6.248   4.970   1.439
12413TIP3    H137196   6.154   4.958   1.424
12413TIP3    H237197   6.254   5.048   1.493
12414TIP3   OH237198   7.711   7.227   6.407
12414TIP3    H137199   7.652   7.233   6.332
12414TIP3    H237200   7.683   7.148   6.453
12415TIP3   OH237201   8.086   3.604   3.714
12415TIP3    H137202   8.059   3.652   3.793
12415TIP3    H237203   8.027   3.635   3.646
12416TIP3   OH237204   6.915   1.004   6.643
12416TIP3    H137205   6.988   0.954   6.606
12416TIP3    H237206   6.900   0.965   6.729
12417TIP3   OH237207   3.861   7.078   5.882
12417TIP3    H137208   3.948   7.067   5.920
12417TIP3    H237209   3.828   6.989   5.871
12418TIP3   OH237210   8.070   7.270   0.637
12418TIP3    H137211   8.036   7.200   0.581
12418TIP3    H237212   8.137   7.228   0.690
12419TIP3   OH237213   1.541   5.939   5.193
12419TIP3    H137214   1.599   5.936   5.269
12419TIP3    H237215   1.598   5.922   5.118
12420TIP3   OH237216   6.973   0.926   4.392
12420TIP3    H137217   6.959   1.000   4.333
12420TIP3    H237218   7.046   0.877   4.353
12421TIP3   OH237219   0.415   4.583   5.942
12421TIP3    H137220   0.438   4.673   5.917
12421TIP3    H237221   0.474   4.528   5.889
12422TIP3   OH237222   8.305   2.328   2.656
12422TIP3    H137223   8.223   2.295   2.621
12422TIP3    H237224   8.371   2.302   2.592
12423TIP3   OH237225   3.612   4.799   1.439
12423TIP3    H137226   3.626   4.734   1.370
12423TIP3    H237227   3.693   4.851   1.440
12424TIP3   OH237228   1.628   2.878   1.055
12424TIP3    H137229   1.583   2.884   1.139
12424TIP3    H237230   1.720   2.898   1.075
12425TIP3   OH237231   3.041   5.346   5.634
12425TIP3    H137232   3.023   5.347   5.729
12425TIP3    H237233   3.135   5.335   5.628
12426TIP3   OH237234   0.542   3.040   2.002
12426TIP3    H137235   0.562   2.955   1.962
12426TIP3    H237236   0.585   3.037   2.087
12427TIP3   OH237237   4.212   7.345   2.468
12427TIP3    H137238   4.159   7.274   2.433
12427TIP3    H237239   4.249   7.310   2.549
12428TIP3   OH237240   4.662   0.823   3.135
12428TIP3    H137241   4.694   0.742   3.095
12428TIP3    H237242   4.634   0.796   3.223
12429TIP3   OH237243   4.422   0.351   0.285
12429TIP3    H137244   4.419   0.260   0.258
12429TIP3    H237245   4.363   0.357   0.359
12430TIP3   OH237246   7.367   3.517   5.550
12430TIP3    H137247   7.434   3.585   5.554
12430TIP3    H237248   7.293   3.559   5.505
12431TIP3   OH237249   1.786   2.282   0.479
12431TIP3    H137250   1.767   2.366   0.437
12431TIP3    H237251   1.881   2.282   0.492
12432TIP3   OH237252   0.081   6.920   6.318
12432TIP3    H137253   0.118   6.872   6.392
12432TIP3    H237254   0.068   7.009   6.351
12433TIP3   OH237255   0.796   6.420   5.922
12433TIP3    H137256   0.790   6.344   5.980
12433TIP3    H237257   0.747   6.488   5.968
12434TIP3   OH237258   0.661   7.639   5.911
12434TIP3    H137259   0.596   7.691   5.957
12434TIP3    H237260   0.714   7.703   5.864
12435TIP3   OH237261   3.647   1.368   1.572
12435TIP3    H137262   3.699   1.331   1.643
12435TIP3    H237263   3.582   1.423   1.615
12436TIP3   OH237264   5.430   7.683   6.753
12436TIP3    H137265   5.353   7.671   6.698
12436TIP3    H237266   5.504   7.674   6.693
12437TIP3   OH237267   1.187   1.278   3.978
12437TIP3    H137268   1.098   1.311   3.973
12437TIP3    H237269   1.182   1.205   4.041
12438TIP3   OH237270   1.341   3.771   5.566
12438TIP3    H137271   1.410   3.743   5.507
12438TIP3    H237272   1.326   3.697   5.624
12439TIP3   OH237273   5.494   3.687   0.193
12439TIP3    H137274   5.531   3.667   0.279
12439TIP3    H237275   5.400   3.673   0.203
12440TIP3   OH237276   6.648   5.361   3.271
12440TIP3    H137277   6.644   5.280   3.220
12440TIP3    H237278   6.728   5.352   3.323
12441TIP3   OH237279   6.749   4.696   3.192
12441TIP3    H137280   6.830   4.645   3.196
12441TIP3    H237281   6.778   4.783   3.162
12442TIP3   OH237282   2.456   0.219   2.184
12442TIP3    H137283   2.450   0.218   2.279
12442TIP3    H237284   2.476   0.310   2.162
12443TIP3   OH237285   3.980   1.652   3.475
12443TIP3    H137286   3.976   1.557   3.472
12443TIP3    H237287   4.015   1.672   3.562
12444TIP3   OH237288   1.361   1.369   2.337
12444TIP3    H137289   1.427   1.383   2.405
12444TIP3    H237290   1.405   1.314   2.272
12445TIP3   OH237291   6.016   0.429   2.827
12445TIP3    H137292   6.044   0.422   2.919
12445TIP3    H237293   6.095   0.409   2.777
12446TIP3   OH237294   5.360   4.255   5.134
12446TIP3    H137295   5.436   4.312   5.148
12446TIP3    H237296   5.300   4.307   5.082
12447TIP3   OH237297   0.325   4.537   2.617
12447TIP3    H137298   0.321   4.576   2.530
12447TIP3    H237299   0.300   4.445   2.604
12448TIP3   OH237300   4.931   0.609   0.758
12448TIP3    H137301   4.837   0.626   0.766
12448TIP3    H237302   4.967   0.633   0.844
12449TIP3   OH237303   3.027   4.767   6.706
12449TIP3    H137304   3.038   4.672   6.700
12449TIP3    H237305   2.932   4.779   6.717
12450TIP3   OH237306   3.409   2.293   4.061
12450TIP3    H137307   3.405   2.309   3.967
12450TIP3    H237308   3.427   2.200   4.070
12451TIP3   OH237309   1.487   2.007   6.223
12451TIP3    H137310   1.498   2.079   6.286
12451TIP3    H237311   1.392   1.993   6.220
12452TIP3   OH237312   1.499   7.225   3.946
12452TIP3    H137313   1.518   7.240   4.039
12452TIP3    H237314   1.581   7.190   3.910
12453TIP3   OH237315   0.969   4.186   4.558
12453TIP3    H137316   0.984   4.162   4.649
12453TIP3    H237317   0.875   4.177   4.546
12454TIP3   OH237318   2.709   1.702   3.654
12454TIP3    H137319   2.657   1.778   3.680
12454TIP3    H237320   2.798   1.723   3.683
12455TIP3   OH237321   2.877   1.421   4.038
12455TIP3    H137322   2.836   1.393   4.120
12455TIP3    H237323   2.956   1.368   4.031
12456TIP3   OH237324   5.928   4.910   0.222
12456TIP3    H137325   5.968   4.823   0.220
12456TIP3    H237326   5.835   4.894   0.206
12457TIP3   OH237327   4.136   6.228   0.608
12457TIP3    H137328   4.062   6.171   0.626
12457TIP3    H237329   4.162   6.261   0.694
12458TIP3   OH237330   6.407   3.329   3.064
12458TIP3    H137331   6.320   3.347   3.101
12458TIP3    H237332   6.390   3.286   2.981
12459TIP3   OH237333   6.136   1.505   5.377
12459TIP3    H137334   6.121   1.417   5.411
12459TIP3    H237335   6.185   1.550   5.447
12460TIP3   OH237336   3.047   5.114   2.244
12460TIP3    H137337   3.113   5.046   2.233
12460TIP3    H237338   2.996   5.112   2.163
12461TIP3   OH237339   1.927   5.538   4.680
12461TIP3    H137340   1.927   5.443   4.666
12461TIP3    H237341   1.989   5.571   4.615
12462TIP3   OH237342   3.604   7.058   3.651
12462TIP3    H137343   3.532   7.066   3.714
12462TIP3    H237344   3.573   6.995   3.586
12463TIP3   OH237345   7.233   5.210   0.567
12463TIP3    H137346   7.325   5.234   0.565
12463TIP3    H237347   7.222   5.165   0.651
12464TIP3   OH237348   1.169   5.826   2.235
12464TIP3    H137349   1.169   5.731   2.222
12464TIP3    H237350   1.179   5.862   2.147
12465TIP3   OH237351   7.640   0.683   2.647
12465TIP3    H137352   7.549   0.711   2.638
12465TIP3    H237353   7.641   0.593   2.615
12466TIP3   OH237354   6.931   7.236   0.763
12466TIP3    H137355   6.971   7.150   0.757
12466TIP3    H237356   6.969   7.285   0.690
12467TIP3   OH237357   0.820   0.515   0.601
12467TIP3    H137358   0.906   0.475   0.602
12467TIP3    H237359   0.837   0.609   0.590
12468TIP3   OH237360   2.026   0.545   2.868
12468TIP3    H137361   1.951   0.574   2.921
12468TIP3    H237362   2.103   0.580   2.915
12469TIP3   OH237363   0.409   5.988   5.856
12469TIP3    H137364   0.424   6.081   5.873
12469TIP3    H237365   0.470   5.967   5.785
12470TIP3   OH237366   3.366   7.563   4.205
12470TIP3    H137367   3.461   7.567   4.217
12470TIP3    H237368   3.330   7.602   4.285
12471TIP3   OH237369   8.297   0.093   5.976
12471TIP3    H137370   8.218   0.117   5.928
12471TIP3    H237371   8.349   0.043   5.914
12472TIP3   OH237372   4.687   0.699   0.834
12472TIP3    H137373   4.697   0.632   0.901
12472TIP3    H237374   4.624   0.761   0.870
12473TIP3   OH237375   2.043   0.281   1.404
12473TIP3    H137376   1.973   0.238   1.354
12473TIP3    H237377   2.009   0.369   1.421
12474TIP3   OH237378   1.935   7.617   5.279
12474TIP3    H137379   1.947   7.711   5.267
12474TIP3    H237380   1.906   7.586   5.193
12475TIP3   OH237381   5.485   4.998   5.753
12475TIP3    H137382   5.416   5.013   5.689
12475TIP3    H237383   5.484   4.903   5.769
12476TIP3   OH237384   1.598   2.519   4.256
12476TIP3    H137385   1.617   2.426   4.260
12476TIP3    H237386   1.505   2.524   4.235
12477TIP3   OH237387   1.327   2.028   0.207
12477TIP3    H137388   1.401   2.073   0.247
12477TIP3    H237389   1.263   2.020   0.277
12478TIP3   OH237390   3.397   5.314   0.326
12478TIP3    H137391   3.315   5.300   0.280
12478TIP3    H237392   3.456   5.351   0.260
12479TIP3   OH237393   7.477   4.793   4.340
12479TIP3    H137394   7.453   4.703   4.366
12479TIP3    H237395   7.457   4.797   4.247
12480TIP3   OH237396   1.780   7.481   5.082
12480TIP3    H137397   1.759   7.395   5.120
12480TIP3    H237398   1.828   7.460   5.002
12481TIP3   OH237399   5.576   5.376   5.166
12481TIP3    H137400   5.536   5.298   5.203
12481TIP3    H237401   5.506   5.414   5.112
12482TIP3   OH237402   6.534   6.210   0.530
12482TIP3    H137403   6.614   6.183   0.485
12482TIP3    H237404   6.463   6.166   0.483
12483TIP3   OH237405   5.256   5.441   5.456
12483TIP3    H137406   5.203   5.472   5.530
12483TIP3    H237407   5.195   5.387   5.405
12484TIP3   OH237408   4.972   3.151   1.677
12484TIP3    H137409   4.966   3.106   1.761
12484TIP3    H237410   5.045   3.212   1.687
12485TIP3   OH237411   4.663   7.416   6.808
12485TIP3    H137412   4.707   7.412   6.723
12485TIP3    H237413   4.658   7.509   6.828
12486TIP3   OH237414   7.838   3.067   2.010
12486TIP3    H137415   7.823   3.037   1.920
12486TIP3    H237416   7.757   3.111   2.034
12487TIP3   OH237417   7.131   7.154   4.106
12487TIP3    H137418   7.120   7.143   4.012
12487TIP3    H237419   7.185   7.079   4.132
12488TIP3   OH237420   6.583   7.363   6.423
12488TIP3    H137421   6.649   7.355   6.355
12488TIP3    H237422   6.502   7.331   6.382
12489TIP3   OH237423   5.404   3.782   2.965
12489TIP3    H137424   5.337   3.724   2.929
12489TIP3    H237425   5.457   3.726   3.021
12490TIP3   OH237426   3.405   3.952   4.857
12490TIP3    H137427   3.440   3.890   4.921
12490TIP3    H237428   3.471   4.022   4.853
12491TIP3   OH237429   3.416   6.903   1.105
12491TIP3    H137430   3.479   6.931   1.039
12491TIP3    H237431   3.375   6.825   1.067
12492TIP3   OH237432   0.469   5.201   1.529
12492TIP3    H137433   0.386   5.247   1.523
12492TIP3    H237434   0.494   5.208   1.621
12493TIP3   OH237435   7.803   6.148   2.154
12493TIP3    H137436   7.739   6.201   2.106
12493TIP3    H237437   7.883   6.200   2.153
12494TIP3   OH237438   6.495   5.084   4.715
12494TIP3    H137439   6.560   5.088   4.786
12494TIP3    H237440   6.537   5.129   4.642
12495TIP3   OH237441   5.011   6.032   6.772
12495TIP3    H137442   5.085   5.975   6.748
12495TIP3    H237443   4.993   6.082   6.692
12496TIP3   OH237444   1.948   4.202   3.703
12496TIP3    H137445   1.872   4.260   3.701
12496TIP3    H237446   2.012   4.246   3.646
12497TIP3   OH237447   2.272   4.917   6.679
12497TIP3    H137448   2.276   4.939   6.772
12497TIP3    H237449   2.186   4.947   6.651
12498TIP3   OH237450   8.019   2.073   4.711
12498TIP3    H137451   7.984   2.015   4.779
12498TIP3    H237452   7.950   2.137   4.696
12499TIP3   OH237453   1.820   5.469   1.184
12499TIP3    H137454   1.752   5.432   1.128
12499TIP3    H237455   1.902   5.449   1.139
12500TIP3   OH237456   0.785   7.726   0.180
12500TIP3    H137457   0.819   7.774   0.104
12500TIP3    H237458   0.782   7.635   0.152
12501TIP3   OH237459   1.405   4.569   3.091
12501TIP3    H137460   1.342   4.641   3.093
12501TIP3    H237461   1.424   4.556   2.998
12502TIP3   OH237462   5.171   4.397   4.945
12502TIP3    H137463   5.085   4.359   4.928
12502TIP3    H237464   5.216   4.394   4.860
12503TIP3   OH237465   5.095   5.020   2.984
12503TIP3    H137466   5.135   5.007   2.899
12503TIP3    H237467   5.029   5.089   2.969
12504TIP3   OH237468   0.375   6.937   2.444
12504TIP3    H137469   0.366   6.889   2.526
12504TIP3    H237470   0.315   7.011   2.453
12505TIP3   OH237471   6.289   4.946   6.117
12505TIP3    H137472   6.329   4.917   6.035
12505TIP3    H237473   6.249   4.868   6.153
12506TIP3   OH237474   5.977   7.493   2.986
12506TIP3    H137475   5.997   7.505   2.893
12506TIP3    H237476   5.975   7.398   2.999
12507TIP3   OH237477   2.787   3.000   1.367
12507TIP3    H137478   2.697   2.969   1.364
12507TIP3    H237479   2.813   3.007   1.275
12508TIP3   OH237480   3.832   0.462   6.203
12508TIP3    H137481   3.848   0.382   6.255
12508TIP3    H237482   3.757   0.440   6.148
12509TIP3   OH237483   6.892   6.230   0.446
12509TIP3    H137484   6.876   6.139   0.470
12509TIP3    H237485   6.833   6.246   0.372
12510TIP3   OH237486   4.300   5.283   3.581
12510TIP3    H137487   4.269   5.297   3.492
12510TIP3    H237488   4.282   5.191   3.599
12511TIP3   OH237489   1.295   1.341   4.433
12511TIP3    H137490   1.365   1.403   4.415
12511TIP3    H237491   1.292   1.335   4.528
12512TIP3   OH237492   3.229   0.882   3.652
12512TIP3    H137493   3.240   0.960   3.599
12512TIP3    H237494   3.167   0.908   3.721
12513TIP3   OH237495   7.086   7.808   6.554
12513TIP3    H137496   7.040   7.724   6.556
12513TIP3    H237497   7.172   7.788   6.590
12514TIP3   OH237498   3.993   2.616   5.010
12514TIP3    H137499   3.948   2.656   4.936
12514TIP3    H237500   3.957   2.527   5.014
12515TIP3   OH237501   3.766   2.952   3.991
12515TIP3    H137502   3.790   3.044   3.997
12515TIP3    H237503   3.701   2.939   4.060
12516TIP3   OH237504   7.915   5.011   1.723
12516TIP3    H137505   7.932   5.084   1.782
12516TIP3    H237506   7.833   5.035   1.678
12517TIP3   OH237507   2.695   6.238   0.558
12517TIP3    H137508   2.664   6.309   0.503
12517TIP3    H237509   2.616   6.192   0.586
12518TIP3   OH237510   4.081   0.909   5.611
12518TIP3    H137511   4.070   1.004   5.611
12518TIP3    H237512   3.992   0.875   5.597
12519TIP3   OH237513   4.579   1.547   5.913
12519TIP3    H137514   4.580   1.462   5.957
12519TIP3    H237515   4.486   1.569   5.904
12520TIP3   OH237516   3.612   5.489   1.518
12520TIP3    H137517   3.694   5.518   1.479
12520TIP3    H237518   3.638   5.434   1.591
12521TIP3   OH237519   8.022   2.364   2.499
12521TIP3    H137520   8.027   2.356   2.594
12521TIP3    H237521   8.026   2.458   2.483
12522TIP3   OH237522   1.729   6.477   1.360
12522TIP3    H137523   1.779   6.472   1.441
12522TIP3    H237524   1.755   6.560   1.321
12523TIP3   OH237525   5.988   1.218   5.695
12523TIP3    H137526   5.937   1.285   5.650
12523TIP3    H237527   5.996   1.249   5.785
12524TIP3   OH237528   1.889   6.440   3.725
12524TIP3    H137529   1.879   6.453   3.819
12524TIP3    H237530   1.876   6.346   3.712
12525TIP3   OH237531   3.675   1.140   6.277
12525TIP3    H137532   3.704   1.136   6.368
12525TIP3    H237533   3.604   1.077   6.272
12526TIP3   OH237534   1.681   1.012   5.429
12526TIP3    H137535   1.673   1.108   5.430
12526TIP3    H237536   1.593   0.981   5.406
12527TIP3   OH237537   1.406   6.836   5.012
12527TIP3    H137538   1.430   6.793   5.094
12527TIP3    H237539   1.315   6.810   4.997
12528TIP3   OH237540   6.384   1.142   3.681
12528TIP3    H137541   6.359   1.058   3.644
12528TIP3    H237542   6.386   1.202   3.607
12529TIP3   OH237543   0.520   2.742   2.967
12529TIP3    H137544   0.501   2.651   2.941
12529TIP3    H237545   0.588   2.770   2.907
12530TIP3   OH237546   0.099   3.347   6.219
12530TIP3    H137547   0.120   3.306   6.303
12530TIP3    H237548   0.049   3.425   6.243
12531TIP3   OH237549   1.411   7.526   0.058
12531TIP3    H137550   1.371   7.445   0.092
12531TIP3    H237551   1.424   7.580   0.136
12532TIP3   OH237552   8.224   4.359   1.387
12532TIP3    H137553   8.166   4.386   1.459
12532TIP3    H237554   8.209   4.424   1.319
12533TIP3   OH237555   3.897   4.004   5.578
12533TIP3    H137556   3.846   3.939   5.627
12533TIP3    H237557   3.974   4.020   5.632
12534TIP3   OH237558   4.791   7.423   3.611
12534TIP3    H137559   4.881   7.405   3.640
12534TIP3    H237560   4.797   7.428   3.516
12535TIP3   OH237561   0.955   1.387   5.796
12535TIP3    H137562   0.888   1.455   5.785
12535TIP3    H237563   0.906   1.305   5.789
12536TIP3   OH237564   0.895   4.806   5.867
12536TIP3    H137565   0.980   4.850   5.867
12536TIP3    H237566   0.882   4.778   5.776
12537TIP3   OH237567   0.453   5.262   0.650
12537TIP3    H137568   0.515   5.333   0.666
12537TIP3    H237569   0.497   5.206   0.585
12538TIP3   OH237570   1.829   1.961   3.518
12538TIP3    H137571   1.757   1.906   3.488
12538TIP3    H237572   1.786   2.037   3.558
12539TIP3   OH237573   6.272   0.044   0.080
12539TIP3    H137574   6.221  -0.001   0.013
12539TIP3    H237575   6.246   0.136   0.072
12540TIP3   OH237576   1.680   2.116   2.181
12540TIP3    H137577   1.724   2.200   2.188
12540TIP3    H237578   1.717   2.064   2.252
12541TIP3   OH237579   0.573   2.120   4.700
12541TIP3    H137580   0.487   2.090   4.669
12541TIP3    H237581   0.627   2.125   4.621
12542TIP3   OH237582   1.489   4.919   3.087
12542TIP3    H137583   1.424   4.899   3.020
12542TIP3    H237584   1.481   5.013   3.103
12543TIP3   OH237585   0.018   5.078   0.740
12543TIP3    H137586   0.113   5.094   0.734
12543TIP3    H237587  -0.019   5.162   0.768
12544TIP3   OH237588   2.646   5.332   4.544
12544TIP3    H137589   2.592   5.376   4.479
12544TIP3    H237590   2.691   5.402   4.590
12545TIP3   OH237591   1.188   4.933   0.643
12545TIP3    H137592   1.124   4.862   0.633
12545TIP3    H237593   1.138   5.005   0.681
12546TIP3   OH237594   0.281   4.923   2.796
12546TIP3    H137595   0.254   4.988   2.861
12546TIP3    H237596   0.245   4.841   2.828
12547TIP3   OH237597   2.107   7.231   2.577
12547TIP3    H137598   2.193   7.273   2.588
12547TIP3    H237599   2.111   7.155   2.635
12548TIP3   OH237600   4.641   2.591   0.208
12548TIP3    H137601   4.653   2.588   0.113
12548TIP3    H237602   4.607   2.504   0.230
12549TIP3   OH237603   7.684   4.161   1.994
12549TIP3    H137604   7.661   4.241   2.041
12549TIP3    H237605   7.779   4.167   1.983
12550TIP3   OH237606   5.015   7.805   0.088
12550TIP3    H137607   5.083   7.747   0.052
12550TIP3    H237608   5.037   7.892   0.055
12551TIP3   OH237609   5.946   3.856   3.568
12551TIP3    H137610   5.918   3.931   3.620
12551TIP3    H237611   5.929   3.882   3.477
12552TIP3   OH237612   4.151   4.192   4.049
12552TIP3    H137613   4.207   4.222   3.977
12552TIP3    H237614   4.091   4.129   4.009
12553TIP3   OH237615   8.299   4.313   2.750
12553TIP3    H137616   8.302   4.362   2.832
12553TIP3    H237617   8.210   4.328   2.717
12554TIP3   OH237618   4.280   1.562   6.444
12554TIP3    H137619   4.287   1.467   6.449
12554TIP3    H237620   4.264   1.580   6.351
12555TIP3   OH237621   7.613   5.644   5.123
12555TIP3    H137622   7.615   5.558   5.081
12555TIP3    H237623   7.565   5.700   5.062
12556TIP3   OH237624   0.366   4.739   1.690
12556TIP3    H137625   0.291   4.680   1.694
12556TIP3    H237626   0.344   4.800   1.619
12557TIP3   OH237627   3.890   5.417   0.980
12557TIP3    H137628   3.808   5.388   0.939
12557TIP3    H237629   3.956   5.355   0.950
12558TIP3   OH237630   7.495   5.732   1.687
12558TIP3    H137631   7.460   5.683   1.611
12558TIP3    H237632   7.490   5.823   1.660
12559TIP3   OH237633   8.184   3.401   0.941
12559TIP3    H137634   8.153   3.313   0.918
12559TIP3    H237635   8.180   3.404   1.036
12560TIP3   OH237636   5.476   0.959   0.233
12560TIP3    H137637   5.428   0.957   0.150
12560TIP3    H237638   5.468   1.049   0.264
12561TIP3   OH237639   4.680   5.751   5.876
12561TIP3    H137640   4.756   5.733   5.930
12561TIP3    H237641   4.697   5.837   5.838
12562TIP3   OH237642   6.938   1.345   4.388
12562TIP3    H137643   6.906   1.292   4.315
12562TIP3    H237644   6.889   1.426   4.382
12563TIP3   OH237645   1.465   5.648   5.544
12563TIP3    H137646   1.410   5.674   5.618
12563TIP3    H237647   1.554   5.664   5.575
12564TIP3   OH237648   0.243   2.206   4.513
12564TIP3    H137649   0.295   2.125   4.508
12564TIP3    H237650   0.160   2.178   4.551
12565TIP3   OH237651   7.366   3.034   0.615
12565TIP3    H137652   7.404   3.006   0.699
12565TIP3    H237653   7.362   3.129   0.621
12566TIP3   OH237654   1.963   0.389   5.742
12566TIP3    H137655   2.005   0.377   5.827
12566TIP3    H237656   1.902   0.315   5.735
12567TIP3   OH237657   2.437   5.512   0.809
12567TIP3    H137658   2.529   5.534   0.796
12567TIP3    H237659   2.402   5.499   0.721
12568TIP3   OH237660   0.405   1.152   4.679
12568TIP3    H137661   0.360   1.093   4.741
12568TIP3    H237662   0.347   1.155   4.603
12569TIP3   OH237663   2.440   0.150   0.421
12569TIP3    H137664   2.403   0.237   0.439
12569TIP3    H237665   2.404   0.126   0.336
12570TIP3   OH237666   6.279   2.156   1.935
12570TIP3    H137667   6.303   2.162   1.842
12570TIP3    H237668   6.347   2.206   1.980
12571TIP3   OH237669   6.519   3.534   4.728
12571TIP3    H137670   6.612   3.537   4.749
12571TIP3    H237671   6.475   3.557   4.809
12572TIP3   OH237672   5.507   3.391   2.417
12572TIP3    H137673   5.511   3.487   2.421
12572TIP3    H237674   5.414   3.372   2.399
12573TIP3   OH237675   7.220   7.622   3.645
12573TIP3    H137676   7.213   7.542   3.697
12573TIP3    H237677   7.286   7.601   3.578
12574TIP3   OH237678   7.294   4.832   6.083
12574TIP3    H137679   7.332   4.767   6.142
12574TIP3    H237680   7.368   4.886   6.055
12575TIP3   OH237681   6.996   6.613   0.156
12575TIP3    H137682   6.973   6.680   0.220
12575TIP3    H237683   6.921   6.555   0.153
12576TIP3   OH237684   5.027   6.968   0.246
12576TIP3    H137685   5.117   6.966   0.212
12576TIP3    H237686   4.982   7.031   0.190
12577TIP3   OH237687   1.912   4.052   6.771
12577TIP3    H137688   1.934   4.079   6.861
12577TIP3    H237689   1.841   4.111   6.745
12578TIP3   OH237690   5.646   5.230   2.526
12578TIP3    H137691   5.573   5.291   2.514
12578TIP3    H237692   5.693   5.264   2.602
12579TIP3   OH237693   7.304   2.999   5.529
12579TIP3    H137694   7.384   2.988   5.580
12579TIP3    H237695   7.256   3.068   5.574
12580TIP3   OH237696   5.217   4.092   3.097
12580TIP3    H137697   5.159   4.157   3.137
12580TIP3    H237698   5.161   4.043   3.037
12581TIP3   OH237699   7.294   1.685   4.029
12581TIP3    H137700   7.313   1.625   3.956
12581TIP3    H237701   7.236   1.635   4.086
12582TIP3   OH237702   5.470   4.228   2.304
12582TIP3    H137703   5.429   4.181   2.232
12582TIP3    H237704   5.551   4.180   2.322
12583TIP3   OH237705   4.671   4.646   0.634
12583TIP3    H137706   4.609   4.580   0.666
12583TIP3    H237707   4.735   4.655   0.706
12584TIP3   OH237708   0.332   7.103   1.191
12584TIP3    H137709   0.341   7.094   1.096
12584TIP3    H237710   0.245   7.068   1.210
12585TIP3   OH237711   5.520   2.998   3.904
12585TIP3    H137712   5.514   2.979   3.811
12585TIP3    H237713   5.434   3.032   3.928
12586TIP3   OH237714   2.833   2.407   1.702
12586TIP3    H137715   2.888   2.410   1.623
12586TIP3    H237716   2.752   2.365   1.673
12587TIP3   OH237717   0.389   5.103   2.093
12587TIP3    H137718   0.398   5.012   2.120
12587TIP3    H237719   0.371   5.150   2.174
12588TIP3   OH237720   8.117   6.975   4.033
12588TIP3    H137721   8.171   6.978   3.955
12588TIP3    H237722   8.032   7.010   4.005
12589TIP3   OH237723   5.545  -0.058   4.262
12589TIP3    H137724   5.474  -0.097   4.314
12589TIP3    H237725   5.521   0.035   4.255
12590TIP3   OH237726   0.790   4.030   0.564
12590TIP3    H137727   0.822   3.941   0.550
12590TIP3    H237728   0.696   4.025   0.545
12591TIP3   OH237729   0.323   2.606   2.263
12591TIP3    H137730   0.301   2.658   2.340
12591TIP3    H237731   0.401   2.648   2.227
12592TIP3   OH237732   0.464   7.675   2.368
12592TIP3    H137733   0.498   7.642   2.451
12592TIP3    H237734   0.382   7.718   2.391
12593TIP3   OH237735   1.989   6.121   4.490
12593TIP3    H137736   1.959   6.102   4.401
12593TIP3    H237737   2.072   6.167   4.478
12594TIP3   OH237738   1.845   7.149   2.488
12594TIP3    H137739   1.863   7.106   2.404
12594TIP3    H237740   1.930   7.183   2.516
12595TIP3   OH237741   2.544   2.457   1.631
12595TIP3    H137742   2.480   2.481   1.563
12595TIP3    H237743   2.592   2.538   1.648
12596TIP3   OH237744   1.996   2.608   1.277
12596TIP3    H137745   1.956   2.684   1.320
12596TIP3    H237746   2.066   2.645   1.224
12597TIP3   OH237747   7.101   7.542   3.965
12597TIP3    H137748   7.017   7.510   3.999
12597TIP3    H237749   7.163   7.530   4.037
12598TIP3   OH237750   7.544   5.595   4.533
12598TIP3    H137751   7.462   5.644   4.530
12598TIP3    H237752   7.580   5.602   4.444
12599TIP3   OH237753   4.947   7.172   2.327
12599TIP3    H137754   4.860   7.134   2.315
12599TIP3    H237755   4.953   7.240   2.260
12600TIP3   OH237756   5.524  -0.063   1.048
12600TIP3    H137757   5.522  -0.077   0.953
12600TIP3    H237758   5.609  -0.097   1.075
12601TIP3   OH237759   0.778   0.199   5.068
12601TIP3    H137760   0.805   0.275   5.016
12601TIP3    H237761   0.710   0.157   5.014
12602TIP3   OH237762   4.948   3.320   3.939
12602TIP3    H137763   4.987   3.356   4.018
12602TIP3    H237764   4.958   3.225   3.948
12603TIP3   OH237765   7.446   0.824   6.373
12603TIP3    H137766   7.387   0.774   6.430
12603TIP3    H237767   7.427   0.792   6.285
12604TIP3   OH237768   2.581   3.174   4.914
12604TIP3    H137769   2.557   3.247   4.970
12604TIP3    H237770   2.541   3.195   4.829
12605TIP3   OH237771   5.082   3.111   4.261
12605TIP3    H137772   5.072   3.204   4.241
12605TIP3    H237773   4.995   3.083   4.291
12606TIP3   OH237774   8.266   1.562   3.594
12606TIP3    H137775   8.239   1.501   3.662
12606TIP3    H237776   8.227   1.646   3.619
12607TIP3   OH237777   3.001   4.891   2.634
12607TIP3    H137778   3.002   4.795   2.641
12607TIP3    H237779   2.925   4.910   2.580
12608TIP3   OH237780   7.282   6.637   6.093
12608TIP3    H137781   7.276   6.542   6.090
12608TIP3    H237782   7.257   6.660   6.183
12609TIP3   OH237783   3.104   3.944   3.154
12609TIP3    H137784   3.072   3.911   3.238
12609TIP3    H237785   3.140   4.030   3.174
12610TIP3   OH237786   6.176   2.178   5.441
12610TIP3    H137787   6.142   2.105   5.493
12610TIP3    H237788   6.225   2.231   5.504
12611TIP3   OH237789   6.323   5.862   2.731
12611TIP3    H137790   6.360   5.775   2.741
12611TIP3    H237791   6.288   5.863   2.641
12612TIP3   OH237792   7.662   1.860   2.981
12612TIP3    H137793   7.591   1.908   3.023
12612TIP3    H237794   7.711   1.926   2.933
12613TIP3   OH237795   2.097   3.812   5.811
12613TIP3    H137796   2.047   3.752   5.866
12613TIP3    H237797   2.053   3.808   5.726
12614TIP3   OH237798   0.087   6.946   1.258
12614TIP3    H137799   0.062   6.893   1.182
12614TIP3    H237800   0.063   6.893   1.333
12615TIP3   OH237801   2.752   6.191   3.372
12615TIP3    H137802   2.686   6.212   3.437
12615TIP3    H237803   2.812   6.131   3.416
12616TIP3   OH237804   5.865   7.365   4.184
12616TIP3    H137805   5.951   7.341   4.218
12616TIP3    H237806   5.867   7.338   4.092
12617TIP3   OH237807   5.824   3.871   1.562
12617TIP3    H137808   5.752   3.852   1.622
12617TIP3    H237809   5.898   3.820   1.595
12618TIP3   OH237810   5.634   2.563   5.644
12618TIP3    H137811   5.582   2.570   5.724
12618TIP3    H237812   5.629   2.651   5.605
12619TIP3   OH237813   5.841   2.570   1.765
12619TIP3    H137814   5.883   2.515   1.699
12619TIP3    H237815   5.903   2.573   1.837
12620TIP3   OH237816   6.621   1.961   3.912
12620TIP3    H137817   6.620   2.056   3.923
12620TIP3    H237818   6.592   1.927   3.997
12621TIP3   OH237819   3.962   0.924   1.259
12621TIP3    H137820   3.889   0.874   1.223
12621TIP3    H237821   4.030   0.859   1.277
12622TIP3   OH237822   1.664   2.550   6.521
12622TIP3    H137823   1.657   2.486   6.449
12622TIP3    H237824   1.579   2.594   6.523
12623TIP3   OH237825   6.013   0.878   6.123
12623TIP3    H137826   6.064   0.910   6.196
12623TIP3    H237827   6.015   0.948   6.058
12624TIP3   OH237828   1.120   7.480   1.171
12624TIP3    H137829   1.094   7.446   1.086
12624TIP3    H237830   1.213   7.458   1.178
12625TIP3   OH237831   1.487   6.910   3.576
12625TIP3    H137832   1.448   6.918   3.490
12625TIP3    H237833   1.477   6.818   3.600
12626TIP3   OH237834   0.341   1.731   4.709
12626TIP3    H137835   0.434   1.737   4.731
12626TIP3    H237836   0.297   1.715   4.792
12627TIP3   OH237837   0.548   6.680   5.208
12627TIP3    H137838   0.474   6.716   5.257
12627TIP3    H237839   0.592   6.756   5.171
12628TIP3   OH237840   4.196   7.411   6.136
12628TIP3    H137841   4.268   7.369   6.089
12628TIP3    H237842   4.147   7.339   6.175
12629TIP3   OH237843   5.252   1.595   4.460
12629TIP3    H137844   5.297   1.592   4.375
12629TIP3    H237845   5.177   1.653   4.444
12630TIP3   OH237846   6.673   6.799   1.509
12630TIP3    H137847   6.645   6.798   1.600
12630TIP3    H237848   6.768   6.790   1.513
12631TIP3   OH237849   0.189   0.378   3.999
12631TIP3    H137850   0.248   0.357   3.926
12631TIP3    H237851   0.222   0.461   4.034
12632TIP3   OH237852   2.291   7.358   1.017
12632TIP3    H137853   2.386   7.353   1.023
12632TIP3    H237854   2.261   7.272   1.048
12633TIP3   OH237855   2.602   5.827   1.881
12633TIP3    H137856   2.565   5.870   1.804
12633TIP3    H237857   2.696   5.826   1.864
12634TIP3   OH237858   0.702   6.908   6.157
12634TIP3    H137859   0.778   6.934   6.105
12634TIP3    H237860   0.654   6.989   6.171
12635TIP3   OH237861   7.349   5.632   3.322
12635TIP3    H137862   7.340   5.600   3.412
12635TIP3    H237863   7.337   5.726   3.329
12636TIP3   OH237864   3.303   5.397   5.451
12636TIP3    H137865   3.276   5.335   5.519
12636TIP3    H237866   3.353   5.345   5.389
12637TIP3   OH237867   6.015   5.619   2.138
12637TIP3    H137868   6.106   5.623   2.109
12637TIP3    H237869   6.000   5.527   2.160
12638TIP3   OH237870   2.187   4.477   0.829
12638TIP3    H137871   2.157   4.530   0.755
12638TIP3    H237872   2.115   4.416   0.846
12639TIP3   OH237873   2.906   1.586   2.904
12639TIP3    H137874   2.897   1.665   2.851
12639TIP3    H237875   2.950   1.615   2.984
12640TIP3   OH237876   6.534   0.302   0.801
12640TIP3    H137877   6.532   0.253   0.883
12640TIP3    H237878   6.458   0.360   0.806
12641TIP3   OH237879   7.521   4.005   0.579
12641TIP3    H137880   7.588   3.957   0.531
12641TIP3    H237881   7.502   3.950   0.655
12642TIP3   OH237882   8.075   3.543   6.156
12642TIP3    H137883   8.153   3.579   6.114
12642TIP3    H237884   8.006   3.551   6.090
12643TIP3   OH237885   1.848   5.316   2.785
12643TIP3    H137886   1.757   5.307   2.814
12643TIP3    H237887   1.900   5.298   2.863
12644TIP3   OH237888   1.534   0.786   4.392
12644TIP3    H137889   1.563   0.876   4.406
12644TIP3    H237890   1.506   0.783   4.301
12645TIP3   OH237891   8.084   6.966   1.581
12645TIP3    H137892   8.144   6.925   1.519
12645TIP3    H237893   8.000   6.968   1.536
12646TIP3   OH237894   8.148   5.648   4.635
12646TIP3    H137895   8.241   5.653   4.654
12646TIP3    H237896   8.124   5.557   4.654
12647TIP3   OH237897   2.535   1.313   1.761
12647TIP3    H137898   2.630   1.318   1.774
12647TIP3    H237899   2.508   1.235   1.810
12648TIP3   OH237900   3.615   2.494   3.739
12648TIP3    H137901   3.707   2.473   3.721
12648TIP3    H237902   3.594   2.565   3.678
12649TIP3   OH237903   3.725  -0.001   5.793
12649TIP3    H137904   3.641   0.043   5.799
12649TIP3    H237905   3.785   0.055   5.843
12650TIP3   OH237906   2.770   3.472   1.787
12650TIP3    H137907   2.743   3.380   1.780
12650TIP3    H237908   2.811   3.478   1.873
12651TIP3   OH237909   7.897   1.951   2.621
12651TIP3    H137910   7.871   1.859   2.632
12651TIP3    H237911   7.853   1.997   2.691
12652TIP3   OH237912   3.268   6.090   5.329
12652TIP3    H137913   3.238   6.014   5.280
12652TIP3    H237914   3.203   6.158   5.311
12653TIP3   OH237915   7.562   6.861   3.938
12653TIP3    H137916   7.488   6.801   3.950
12653TIP3    H237917   7.536   6.916   3.864
12654TIP3   OH237918   3.305   5.413   5.866
12654TIP3    H137919   3.215   5.446   5.865
12654TIP3    H237920   3.300   5.332   5.917
12655TIP3   OH237921   2.160   0.116   6.696
12655TIP3    H137922   2.097   0.107   6.624
12655TIP3    H237923   2.107   0.116   6.775
12656TIP3   OH237924   8.254   2.900   2.048
12656TIP3    H137925   8.232   2.990   2.024
12656TIP3    H237926   8.284   2.860   1.966
12657TIP3   OH237927   2.699   5.599   2.591
12657TIP3    H137928   2.751   5.540   2.537
12657TIP3    H237929   2.744   5.601   2.675
12658TIP3   OH237930   2.709   6.084   0.096
12658TIP3    H137931   2.690   6.160   0.040
12658TIP3    H237932   2.802   6.067   0.080
12659TIP3   OH237933   5.083   2.093   2.260
12659TIP3    H137934   5.080   2.188   2.268
12659TIP3    H237935   5.020   2.073   2.190
12660TIP3   OH237936   1.936   0.261   6.176
12660TIP3    H137937   1.959   0.303   6.259
12660TIP3    H237938   1.927   0.333   6.114
12661TIP3   OH237939   0.118   5.445   0.927
12661TIP3    H137940   0.145   5.435   1.018
12661TIP3    H237941   0.157   5.370   0.882
12662TIP3   OH237942   2.484   2.826   6.367
12662TIP3    H137943   2.559   2.846   6.422
12662TIP3    H237944   2.450   2.912   6.341
12663TIP3   OH237945   7.316   5.692   6.182
12663TIP3    H137946   7.288   5.607   6.147
12663TIP3    H237947   7.380   5.669   6.250
12664TIP3   OH237948   8.054   0.500   4.679
12664TIP3    H137949   8.088   0.539   4.599
12664TIP3    H237950   8.069   0.567   4.746
12665TIP3   OH237951   4.958   4.134   2.401
12665TIP3    H137952   4.947   4.161   2.492
12665TIP3    H237953   4.887   4.071   2.386
12666TIP3   OH237954   8.278   1.209   2.460
12666TIP3    H137955   8.195   1.231   2.504
12666TIP3    H237956   8.252   1.184   2.371
12667TIP3   OH237957   4.810   5.918   1.725
12667TIP3    H137958   4.734   5.958   1.768
12667TIP3    H237959   4.879   5.921   1.792
12668TIP3   OH237960   3.168   6.813   4.568
12668TIP3    H137961   3.164   6.857   4.483
12668TIP3    H237962   3.243   6.754   4.561
12669TIP3   OH237963   4.425   0.266   5.950
12669TIP3    H137964   4.383   0.311   5.876
12669TIP3    H237965   4.514   0.248   5.919
12670TIP3   OH237966   7.719   0.161   6.177
12670TIP3    H137967   7.641   0.213   6.158
12670TIP3    H237968   7.717   0.149   6.272
12671TIP3   OH237969   0.154   6.225   5.861
12671TIP3    H137970   0.136   6.171   5.938
12671TIP3    H237971   0.249   6.217   5.848
12672TIP3   OH237972   6.477   4.118   1.994
12672TIP3    H137973   6.553   4.060   1.987
12672TIP3    H237974   6.509   4.203   1.965
12673TIP3   OH237975   0.605   4.667   1.510
12673TIP3    H137976   0.599   4.593   1.570
12673TIP3    H237977   0.541   4.730   1.543
12674TIP3   OH237978   5.454   1.467   1.881
12674TIP3    H137979   5.544   1.441   1.903
12674TIP3    H237980   5.464   1.537   1.816
12675TIP3   OH237981   2.441   0.997   1.533
12675TIP3    H137982   2.511   0.979   1.470
12675TIP3    H237983   2.365   0.947   1.500
12676TIP3   OH237984   1.792   4.401   1.561
12676TIP3    H137985   1.881   4.381   1.531
12676TIP3    H237986   1.752   4.447   1.488
12677TIP3   OH237987   3.955   1.529   5.569
12677TIP3    H137988   3.888   1.465   5.545
12677TIP3    H237989   3.999   1.491   5.644
12678TIP3   OH237990   1.738   5.905   1.896
12678TIP3    H137991   1.737   5.814   1.865
12678TIP3    H237992   1.685   5.903   1.975
12679TIP3   OH237993   1.409   7.579   0.843
12679TIP3    H137994   1.485   7.617   0.799
12679TIP3    H237995   1.355   7.544   0.772
12680TIP3   OH237996   5.069   4.232   1.042
12680TIP3    H137997   5.158   4.261   1.064
12680TIP3    H237998   5.045   4.284   0.966
12681TIP3   OH237999   0.553   1.704   0.332
12681TIP3    H138000   0.628   1.715   0.390
12681TIP3    H238001   0.477   1.709   0.390
12682TIP3   OH238002   7.786   3.846   3.214
12682TIP3    H138003   7.860   3.827   3.157
12682TIP3    H238004   7.821   3.905   3.281
12683TIP3   OH238005   3.264   0.881   0.406
12683TIP3    H138006   3.322   0.956   0.419
12683TIP3    H238007   3.208   0.907   0.332
12684TIP3   OH238008   4.753   0.099   1.247
12684TIP3    H138009   4.698   0.021   1.240
12684TIP3    H238010   4.743   0.127   1.338
12685TIP3   OH238011   4.866   0.367   6.519
12685TIP3    H138012   4.891   0.282   6.482
12685TIP3    H238013   4.916   0.431   6.467
12686TIP3   OH238014   0.295   6.050   2.474
12686TIP3    H138015   0.323   6.103   2.400
12686TIP3    H238016   0.374   6.037   2.526
12687TIP3   OH238017   2.006   7.614   5.565
12687TIP3    H138018   2.000   7.660   5.481
12687TIP3    H238019   2.095   7.580   5.567
12688TIP3   OH238020   2.647   3.893   6.493
12688TIP3    H138021   2.658   3.803   6.520
12688TIP3    H238022   2.720   3.940   6.533
12689TIP3   OH238023   3.169   2.550   6.725
12689TIP3    H138024   3.244   2.508   6.767
12689TIP3    H238025   3.093   2.499   6.755
12690TIP3   OH238026   6.422   0.691   4.117
12690TIP3    H138027   6.513   0.660   4.120
12690TIP3    H238028   6.370   0.614   4.138
12691TIP3   OH238029   0.828   7.329   0.301
12691TIP3    H138030   0.790   7.410   0.267
12691TIP3    H238031   0.783   7.316   0.385
12692TIP3   OH238032   4.226   6.796   0.106
12692TIP3    H138033   4.189   6.806   0.194
12692TIP3    H238034   4.274   6.714   0.109
12693TIP3   OH238035   6.634   2.053   6.642
12693TIP3    H138036   6.584   2.123   6.599
12693TIP3    H238037   6.724   2.069   6.614
12694TIP3   OH238038   2.710   1.911   6.651
12694TIP3    H138039   2.789   1.963   6.636
12694TIP3    H238040   2.685   1.880   6.565
12695TIP3   OH238041   6.848   7.309   1.695
12695TIP3    H138042   6.798   7.227   1.704
12695TIP3    H238043   6.788   7.377   1.725
12696TIP3   OH238044   8.203   4.875   2.517
12696TIP3    H138045   8.238   4.837   2.436
12696TIP3    H238046   8.187   4.799   2.574
12697TIP3   OH238047   1.705   5.564   0.366
12697TIP3    H138048   1.643   5.625   0.326
12697TIP3    H238049   1.715   5.493   0.301
12698TIP3   OH238050   1.563   4.558   3.422
12698TIP3    H138051   1.564   4.637   3.368
12698TIP3    H238052   1.478   4.518   3.405
12699TIP3   OH238053   4.712   0.464   4.377
12699TIP3    H138054   4.776   0.402   4.412
12699TIP3    H238055   4.755   0.501   4.300
12700TIP3   OH238056   3.140   2.574   4.960
12700TIP3    H138057   3.216   2.552   5.014
12700TIP3    H238058   3.175   2.630   4.891
12701TIP3   OH238059   4.683   1.653   1.987
12701TIP3    H138060   4.615   1.608   2.037
12701TIP3    H238061   4.751   1.672   2.051
12702TIP3   OH238062   3.506   1.419   3.249
12702TIP3    H138063   3.517   1.405   3.343
12702TIP3    H238064   3.567   1.490   3.228
12703TIP3   OH238065   2.445   1.835   5.891
12703TIP3    H138066   2.531   1.822   5.851
12703TIP3    H238067   2.383   1.827   5.819
12704TIP3   OH238068   6.095   4.895   1.209
12704TIP3    H138069   6.092   4.818   1.152
12704TIP3    H238070   6.047   4.868   1.287
12705TIP3   OH238071   2.151   6.513   6.297
12705TIP3    H138072   2.090   6.443   6.271
12705TIP3    H238073   2.222   6.507   6.233
12706TIP3   OH238074   5.780   0.689   1.071
12706TIP3    H138075   5.829   0.607   1.072
12706TIP3    H238076   5.729   0.686   0.990
12707TIP3   OH238077   5.869   2.524   2.898
12707TIP3    H138078   5.819   2.576   2.962
12707TIP3    H238079   5.945   2.493   2.948
12708TIP3   OH238080   4.758   1.840   1.441
12708TIP3    H138081   4.794   1.759   1.406
12708TIP3    H238082   4.834   1.890   1.470
12709TIP3   OH238083   3.380   5.023   4.606
12709TIP3    H138084   3.301   4.975   4.631
12709TIP3    H238085   3.448   4.956   4.605
12710TIP3   OH238086   7.221   1.269   0.697
12710TIP3    H138087   7.157   1.232   0.758
12710TIP3    H238088   7.179   1.348   0.664
12711TIP3   OH238089   3.460   6.834   3.487
12711TIP3    H138090   3.511   6.777   3.429
12711TIP3    H238091   3.371   6.830   3.451
12712TIP3   OH238092   5.310   3.612   5.180
12712TIP3    H138093   5.403   3.621   5.162
12712TIP3    H238094   5.271   3.591   5.095
12713TIP3   OH238095   8.038   1.723   1.619
12713TIP3    H138096   7.954   1.753   1.586
12713TIP3    H238097   8.062   1.788   1.685
12714TIP3   OH238098   6.904   4.672   4.572
12714TIP3    H138099   6.834   4.727   4.537
12714TIP3    H238100   6.984   4.722   4.554
12715TIP3   OH238101   0.219   5.213   3.282
12715TIP3    H138102   0.315   5.217   3.273
12715TIP3    H238103   0.192   5.149   3.216
12716TIP3   OH238104   5.234   2.632   5.031
12716TIP3    H138105   5.300   2.609   5.097
12716TIP3    H238106   5.230   2.728   5.034
12717TIP3   OH238107   7.929   4.433   0.464
12717TIP3    H138108   7.995   4.475   0.518
12717TIP3    H238109   7.959   4.446   0.374
12718TIP3   OH238110   5.105   4.196   1.387
12718TIP3    H138111   5.160   4.212   1.311
12718TIP3    H238112   5.078   4.283   1.417
12719TIP3   OH238113   4.241   2.604   2.306
12719TIP3    H138114   4.251   2.511   2.325
12719TIP3    H238115   4.210   2.643   2.388
12720TIP3   OH238116   4.947   5.286   2.622
12720TIP3    H138117   4.890   5.350   2.664
12720TIP3    H238118   4.930   5.204   2.668
12721TIP3   OH238119   1.355   7.091   5.952
12721TIP3    H138120   1.305   7.112   5.873
12721TIP3    H238121   1.446   7.101   5.926
12722TIP3   OH238122   1.801   6.799   5.022
12722TIP3    H138123   1.795   6.704   5.029
12722TIP3    H238124   1.777   6.831   5.109
12723TIP3   OH238125   5.372   3.418   0.147
12723TIP3    H138126   5.458   3.457   0.163
12723TIP3    H238127   5.312   3.467   0.203
12724TIP3   OH238128   1.699   7.180   0.635
12724TIP3    H138129   1.783   7.166   0.679
12724TIP3    H238130   1.693   7.110   0.570
12725TIP3   OH238131   8.241   1.027   6.659
12725TIP3    H138132   8.333   1.036   6.686
12725TIP3    H238133   8.191   1.037   6.740
12726TIP3   OH238134   3.149   3.008   2.067
12726TIP3    H138135   3.103   3.054   1.996
12726TIP3    H238136   3.094   2.931   2.085
12727TIP3   OH238137   1.184   6.139   4.871
12727TIP3    H138138   1.256   6.151   4.808
12727TIP3    H238139   1.228   6.123   4.954
12728TIP3   OH238140   2.834   6.057   2.578
12728TIP3    H138141   2.754   6.021   2.541
12728TIP3    H238142   2.810   6.145   2.606
12729TIP3   OH238143   1.582   6.612   6.775
12729TIP3    H138144   1.647   6.545   6.753
12729TIP3    H238145   1.632   6.678   6.824
12730TIP3   OH238146   4.642   7.084   0.529
12730TIP3    H138147   4.588   7.115   0.601
12730TIP3    H238148   4.618   7.139   0.455
12731TIP3   OH238149   5.027   6.621   4.021
12731TIP3    H138150   5.043   6.688   4.087
12731TIP3    H238151   5.106   6.567   4.022
12732TIP3   OH238152   2.900   6.896   0.727
12732TIP3    H138153   2.984   6.855   0.747
12732TIP3    H238154   2.847   6.881   0.805
12733TIP3   OH238155   0.739   5.668   2.993
12733TIP3    H138156   0.695   5.715   3.064
12733TIP3    H238157   0.808   5.618   3.036
12734TIP3   OH238158   4.592   2.729   6.528
12734TIP3    H138159   4.579   2.677   6.449
12734TIP3    H238160   4.619   2.815   6.496
12735TIP3   OH238161   6.414   5.217   3.284
12735TIP3    H138162   6.480   5.283   3.306
12735TIP3    H238163   6.341   5.236   3.343
12736TIP3   OH238164   7.440   5.571   4.121
12736TIP3    H138165   7.459   5.627   4.046
12736TIP3    H238166   7.465   5.624   4.197
12737TIP3   OH238167   6.389   2.562   2.048
12737TIP3    H138168   6.416   2.596   1.963
12737TIP3    H238169   6.463   2.581   2.106
12738TIP3   OH238170   3.182   2.865   3.862
12738TIP3    H138171   3.204   2.923   3.934
12738TIP3    H238172   3.096   2.896   3.832
12739TIP3   OH238173   5.517   7.470   1.816
12739TIP3    H138174   5.469   7.426   1.886
12739TIP3    H238175   5.457   7.467   1.741
12740TIP3   OH238176   4.953   2.685   3.248
12740TIP3    H138177   4.936   2.635   3.328
12740TIP3    H238178   4.988   2.769   3.279
12741TIP3   OH238179   5.384   4.607   0.607
12741TIP3    H138180   5.434   4.542   0.657
12741TIP3    H238181   5.299   4.610   0.651
12742TIP3   OH238182   4.570   3.587   6.242
12742TIP3    H138183   4.556   3.568   6.149
12742TIP3    H238184   4.559   3.682   6.249
12743TIP3   OH238185   7.697   6.533   2.628
12743TIP3    H138186   7.733   6.486   2.554
12743TIP3    H238187   7.682   6.466   2.695
12744TIP3   OH238188   7.871   5.348   3.695
12744TIP3    H138189   7.901   5.258   3.684
12744TIP3    H238190   7.801   5.358   3.631
12745TIP3   OH238191   6.992   6.626   6.767
12745TIP3    H138192   6.982   6.589   6.855
12745TIP3    H238193   6.903   6.646   6.738
12746TIP3   OH238194   7.680   4.089   2.737
12746TIP3    H138195   7.690   4.135   2.820
12746TIP3    H238196   7.585   4.076   2.729
12747TIP3   OH238197   1.787   7.804   1.623
12747TIP3    H138198   1.848   7.744   1.581
12747TIP3    H238199   1.830   7.829   1.705
12748TIP3   OH238200   0.674   3.708   6.648
12748TIP3    H138201   0.767   3.691   6.631
12748TIP3    H238202   0.636   3.721   6.561
12749TIP3   OH238203   4.780   7.293   4.993
12749TIP3    H138204   4.835   7.298   4.915
12749TIP3    H238205   4.710   7.355   4.977
12750TIP3   OH238206   6.698   1.564   2.745
12750TIP3    H138207   6.780   1.611   2.761
12750TIP3    H238208   6.662   1.606   2.667
12751TIP3   OH238209   1.444   1.276   0.809
12751TIP3    H138210   1.495   1.310   0.882
12751TIP3    H238211   1.375   1.342   0.795
12752TIP3   OH238212   8.215   4.346   3.206
12752TIP3    H138213   8.120   4.351   3.217
12752TIP3    H238214   8.229   4.363   3.113
12753TIP3   OH238215   5.005   3.513   5.386
12753TIP3    H138216   5.045   3.595   5.415
12753TIP3    H238217   5.078   3.451   5.382
12754TIP3   OH238218   3.256   4.590   6.451
12754TIP3    H138219   3.322   4.557   6.390
12754TIP3    H238220   3.231   4.514   6.503
12755TIP3   OH238221   4.556   7.146   6.095
12755TIP3    H138222   4.470   7.184   6.081
12755TIP3    H238223   4.538   7.056   6.123
12756TIP3   OH238224   4.026   4.654   5.240
12756TIP3    H138225   4.043   4.655   5.334
12756TIP3    H238226   3.932   4.669   5.232
12757TIP3   OH238227   3.029   5.391   5.916
12757TIP3    H138228   3.015   5.328   5.987
12757TIP3    H238229   2.997   5.474   5.951
12758TIP3   OH238230   2.571   5.203   0.098
12758TIP3    H138231   2.513   5.270   0.136
12758TIP3    H238232   2.520   5.122   0.102
12759TIP3   OH238233   6.981   2.339   5.187
12759TIP3    H138234   6.985   2.393   5.108
12759TIP3    H238235   7.004   2.251   5.156
12760TIP3   OH238236   4.200   5.523   0.765
12760TIP3    H138237   4.209   5.617   0.780
12760TIP3    H238238   4.158   5.490   0.845
12761TIP3   OH238239   5.729   5.818   1.727
12761TIP3    H138240   5.664   5.767   1.678
12761TIP3    H238241   5.733   5.776   1.813
12762TIP3   OH238242   1.824   2.948   4.193
12762TIP3    H138243   1.855   3.002   4.265
12762TIP3    H238244   1.818   3.008   4.118
12763TIP3   OH238245   8.217   1.735   5.165
12763TIP3    H138246   8.301   1.710   5.204
12763TIP3    H238247   8.219   1.695   5.078
12764TIP3   OH238248   2.087   5.145   3.529
12764TIP3    H138249   2.038   5.143   3.446
12764TIP3    H238250   2.032   5.097   3.590
12765TIP3   OH238251   4.888   1.412   3.985
12765TIP3    H138252   4.829   1.354   3.935
12765TIP3    H238253   4.858   1.403   4.076
12766TIP3   OH238254   5.647   2.707   0.595
12766TIP3    H138255   5.605   2.650   0.530
12766TIP3    H238256   5.692   2.773   0.543
12767TIP3   OH238257   6.201   7.043   3.217
12767TIP3    H138258   6.147   7.058   3.295
12767TIP3    H238259   6.142   6.999   3.155
12768TIP3   OH238260   2.942   1.515   5.448
12768TIP3    H138261   2.915   1.602   5.478
12768TIP3    H238262   2.938   1.520   5.353
12769TIP3   OH238263   6.942   6.132   3.117
12769TIP3    H138264   6.882   6.136   3.043
12769TIP3    H238265   6.948   6.038   3.137
12770TIP3   OH238266   5.891   6.097   3.060
12770TIP3    H138267   5.931   6.056   3.136
12770TIP3    H238268   5.960   6.099   2.994
12771TIP3   OH238269   6.458   3.543   4.200
12771TIP3    H138270   6.429   3.504   4.118
12771TIP3    H238271   6.407   3.498   4.267
12772TIP3   OH238272   3.938   7.299   6.289
12772TIP3    H138273   3.893   7.285   6.205
12772TIP3    H238274   3.955   7.210   6.321
12773TIP3   OH238275   0.072   3.814   6.202
12773TIP3    H138276   0.049   3.905   6.219
12773TIP3    H238277   0.168   3.814   6.195
12774TIP3   OH238278   2.246   7.279   4.894
12774TIP3    H138279   2.270   7.245   4.980
12774TIP3    H238280   2.283   7.368   4.893
12775TIP3   OH238281   7.411   5.872   3.561
12775TIP3    H138282   7.431   5.961   3.592
12775TIP3    H238283   7.466   5.815   3.616
12776TIP3   OH238284   7.951   6.263   6.012
12776TIP3    H138285   7.921   6.281   6.101
12776TIP3    H238286   8.034   6.310   6.004
12777TIP3   OH238287   4.032   6.214   5.236
12777TIP3    H138288   3.979   6.151   5.187
12777TIP3    H238289   4.119   6.209   5.196
12778TIP3   OH238290   4.649   3.718   5.178
12778TIP3    H138291   4.686   3.630   5.176
12778TIP3    H238292   4.589   3.721   5.103
12779TIP3   OH238293   8.072   6.698   4.036
12779TIP3    H138294   7.979   6.720   4.035
12779TIP3    H238295   8.116   6.782   4.050
12780TIP3   OH238296   2.038   5.772   5.218
12780TIP3    H138297   2.052   5.796   5.126
12780TIP3    H238298   2.102   5.703   5.235
12781TIP3   OH238299   4.305   4.229   4.846
12781TIP3    H138300   4.394   4.216   4.880
12781TIP3    H238301   4.302   4.322   4.824
12782TIP3   OH238302   5.908   5.635   0.324
12782TIP3    H138303   5.978   5.576   0.353
12782TIP3    H238304   5.840   5.576   0.291
12783TIP3   OH238305   6.525   6.395   2.465
12783TIP3    H138306   6.470   6.363   2.536
12783TIP3    H238307   6.530   6.490   2.478
12784TIP3   OH238308   3.694   3.929   3.247
12784TIP3    H138309   3.767   3.991   3.255
12784TIP3    H238310   3.616   3.982   3.266
12785TIP3   OH238311   7.959   1.713   0.408
12785TIP3    H138312   7.891   1.768   0.369
12785TIP3    H238313   8.011   1.682   0.334
12786TIP3   OH238314   4.676   7.483   6.400
12786TIP3    H138315   4.699   7.556   6.342
12786TIP3    H238316   4.583   7.469   6.385
12787TIP3   OH238317   7.136   0.280   3.114
12787TIP3    H138318   7.050   0.244   3.134
12787TIP3    H238319   7.121   0.374   3.104
12788TIP3   OH238320   6.911   4.217   5.920
12788TIP3    H138321   6.923   4.164   5.841
12788TIP3    H238322   6.888   4.304   5.888
12789TIP3   OH238323   1.830   7.108   1.604
12789TIP3    H138324   1.893   7.149   1.545
12789TIP3    H238325   1.785   7.182   1.646
12790TIP3   OH238326   0.257   7.581   0.476
12790TIP3    H138327   0.351   7.591   0.494
12790TIP3    H238328   0.254   7.534   0.393
12791TIP3   OH238329   5.366   1.273   1.678
12791TIP3    H138330   5.321   1.244   1.599
12791TIP3    H238331   5.437   1.328   1.646
12792TIP3   OH238332   6.257   5.608   3.080
12792TIP3    H138333   6.331   5.622   3.139
12792TIP3    H238334   6.262   5.515   3.057
12793TIP3   OH238335   6.351   1.906   6.770
12793TIP3    H138336   6.279   1.950   6.724
12793TIP3    H238337   6.399   1.860   6.702
12794TIP3   OH238338   6.201   4.562   1.356
12794TIP3    H138339   6.127   4.564   1.296
12794TIP3    H238340   6.191   4.479   1.403
12795TIP3   OH238341   1.100   5.819   0.103
12795TIP3    H138342   1.159   5.837   0.031
12795TIP3    H238343   1.013   5.840   0.069
12796TIP3   OH238344   5.756   3.510   0.208
12796TIP3    H138345   5.774   3.417   0.223
12796TIP3    H238346   5.784   3.553   0.288
12797TIP3   OH238347   2.087   1.182   6.659
12797TIP3    H138348   2.177   1.164   6.633
12797TIP3    H238349   2.063   1.259   6.609
12798TIP3   OH238350   4.353   2.792   2.817
12798TIP3    H138351   4.427   2.744   2.854
12798TIP3    H238352   4.380   2.884   2.821
12799TIP3   OH238353   5.163   4.452   1.995
12799TIP3    H138354   5.216   4.476   2.071
12799TIP3    H238355   5.115   4.374   2.023
12800TIP3   OH238356   7.903   6.192   0.671
12800TIP3    H138357   7.886   6.286   0.667
12800TIP3    H238358   7.943   6.171   0.587
12801TIP3   OH238359   3.938   4.117   2.918
12801TIP3    H138360   3.928   4.070   2.835
12801TIP3    H238361   3.987   4.056   2.974
12802TIP3   OH238362   5.205   2.283   2.031
12802TIP3    H138363   5.294   2.299   2.062
12802TIP3    H238364   5.167   2.370   2.020
12803TIP3   OH238365   6.535   5.591   3.152
12803TIP3    H138366   6.623   5.627   3.145
12803TIP3    H238367   6.544   5.520   3.216
12804TIP3   OH238368   7.554   5.407   5.018
12804TIP3    H138369   7.529   5.350   4.945
12804TIP3    H238370   7.615   5.353   5.070
12805TIP3   OH238371   4.102   1.742   5.877
12805TIP3    H138372   4.136   1.831   5.866
12805TIP3    H238373   4.027   1.737   5.818
12806TIP3   OH238374   5.796   5.145   5.061
12806TIP3    H138375   5.885   5.153   5.028
12806TIP3    H238376   5.791   5.210   5.132
12807TIP3   OH238377   0.060   6.482   2.914
12807TIP3    H138378   0.080   6.491   2.821
12807TIP3    H238379   0.051   6.388   2.927
12808TIP3   OH238380   7.207   2.545   5.178
12808TIP3    H138381   7.187   2.518   5.268
12808TIP3    H238382   7.182   2.638   5.176
12809TIP3   OH238383   4.449   3.856   3.042
12809TIP3    H138384   4.523   3.916   3.031
12809TIP3    H238385   4.392   3.901   3.105
12810TIP3   OH238386   7.478   6.910   6.679
12810TIP3    H138387   7.548   6.873   6.733
12810TIP3    H238388   7.406   6.847   6.688
12811TIP3   OH238389   6.385   7.726   5.667
12811TIP3    H138390   6.304   7.676   5.655
12811TIP3    H238391   6.419   7.739   5.578
12812TIP3   OH238392   2.449   0.451   3.392
12812TIP3    H138393   2.453   0.525   3.332
12812TIP3    H238394   2.356   0.440   3.411
12813TIP3   OH238395   1.110   7.583   0.568
12813TIP3    H138396   1.166   7.509   0.590
12813TIP3    H238397   1.127   7.648   0.636
12814TIP3   OH238398   1.287   5.754   1.660
12814TIP3    H138399   1.364   5.809   1.647
12814TIP3    H238400   1.320   5.676   1.705
12815TIP3   OH238401   5.991   7.489   4.516
12815TIP3    H138402   5.989   7.585   4.516
12815TIP3    H238403   6.029   7.466   4.601
12816TIP3   OH238404   3.389   7.081   4.349
12816TIP3    H138405   3.390   7.054   4.440
12816TIP3    H238406   3.398   7.176   4.352
12817TIP3   OH238407   6.537   7.672   3.026
12817TIP3    H138408   6.625   7.699   3.001
12817TIP3    H238409   6.537   7.676   3.122
12818TIP3   OH238410   4.583   5.108   1.401
12818TIP3    H138411   4.643   5.175   1.435
12818TIP3    H238412   4.599   5.107   1.307
12819TIP3   OH238413   2.913   4.050   6.403
12819TIP3    H138414   2.891   3.985   6.336
12819TIP3    H238415   2.881   4.132   6.367
12820TIP3   OH238416   1.208   7.227   3.494
12820TIP3    H138417   1.270   7.215   3.422
12820TIP3    H238418   1.251   7.288   3.553
12821TIP3   OH238419   2.020   4.348   1.375
12821TIP3    H138420   2.091   4.373   1.315
12821TIP3    H238421   2.064   4.330   1.458
12822TIP3   OH238422   5.225   2.338   6.769
12822TIP3    H138423   5.170   2.356   6.693
12822TIP3    H238424   5.269   2.256   6.749
12823TIP3   OH238425   2.426   3.020   3.214
12823TIP3    H138426   2.423   3.007   3.309
12823TIP3    H238427   2.340   3.058   3.192
12824TIP3   OH238428   5.415   0.691   6.103
12824TIP3    H138429   5.381   0.687   6.014
12824TIP3    H238430   5.486   0.627   6.104
12825TIP3   OH238431   4.464   5.654   3.769
12825TIP3    H138432   4.434   5.722   3.708
12825TIP3    H238433   4.436   5.685   3.855
12826TIP3   OH238434   1.251   2.447   6.663
12826TIP3    H138435   1.219   2.410   6.581
12826TIP3    H238436   1.300   2.376   6.704
12827TIP3   OH238437   3.051   0.846   6.683
12827TIP3    H138438   3.128   0.792   6.700
12827TIP3    H238439   2.981   0.804   6.732
12828TIP3   OH238440   7.306   6.548   1.386
12828TIP3    H138441   7.225   6.579   1.346
12828TIP3    H238442   7.300   6.573   1.478
12829TIP3   OH238443   1.445   6.040   6.283
12829TIP3    H138444   1.387   6.090   6.226
12829TIP3    H238445   1.386   5.993   6.342
12830TIP3   OH238446   0.188   0.845   6.597
12830TIP3    H138447   0.267   0.898   6.589
12830TIP3    H238448   0.204   0.790   6.673
12831TIP3   OH238449   0.968   3.240   5.889
12831TIP3    H138450   1.031   3.206   5.825
12831TIP3    H238451   1.014   3.233   5.973
12832TIP3   OH238452   0.393   4.257   3.246
12832TIP3    H138453   0.469   4.287   3.296
12832TIP3    H238454   0.399   4.161   3.249
12833TIP3   OH238455   3.604   3.421   3.156
12833TIP3    H138456   3.536   3.427   3.224
12833TIP3    H238457   3.664   3.353   3.189
12834TIP3   OH238458   8.122   6.397   4.051
12834TIP3    H138459   8.030   6.373   4.066
12834TIP3    H238460   8.122   6.493   4.053
12835TIP3   OH238461   0.826   2.052   5.140
12835TIP3    H138462   0.898   2.114   5.140
12835TIP3    H238463   0.815   2.028   5.232
12836TIP3   OH238464   5.563   1.835   3.301
12836TIP3    H138465   5.509   1.901   3.257
12836TIP3    H238466   5.551   1.755   3.249
12837TIP3   OH238467   1.563   4.606   0.377
12837TIP3    H138468   1.468   4.610   0.380
12837TIP3    H238469   1.592   4.672   0.440
12838TIP3   OH238470   2.827   0.503   5.729
12838TIP3    H138471   2.821   0.515   5.634
12838TIP3    H238472   2.743   0.534   5.762
12839TIP3   OH238473   2.177   7.783   4.238
12839TIP3    H138474   2.125   7.835   4.177
12839TIP3    H238475   2.119   7.769   4.313
12840TIP3   OH238476   6.968   6.422   2.309
12840TIP3    H138477   6.933   6.454   2.392
12840TIP3    H238478   6.952   6.328   2.311
12841TIP3   OH238479   1.627   3.377   0.421
12841TIP3    H138480   1.561   3.345   0.482
12841TIP3    H238481   1.639   3.305   0.359
12842TIP3   OH238482   2.917   1.756   1.135
12842TIP3    H138483   2.940   1.824   1.071
12842TIP3    H238484   2.902   1.803   1.217
12843TIP3   OH238485   5.706   5.761   6.714
12843TIP3    H138486   5.686   5.776   6.622
12843TIP3    H238487   5.791   5.717   6.714
12844TIP3   OH238488   8.223   5.640   2.479
12844TIP3    H138489   8.275   5.717   2.455
12844TIP3    H238490   8.180   5.614   2.397
12845TIP3   OH238491  -0.049   0.603   1.902
12845TIP3    H138492   0.037   0.627   1.936
12845TIP3    H238493  -0.034   0.520   1.857
12846TIP3   OH238494   1.337   3.934   1.350
12846TIP3    H138495   1.283   3.901   1.278
12846TIP3    H238496   1.280   3.933   1.426
12847TIP3   OH238497   5.414   7.680   3.894
12847TIP3    H138498   5.363   7.713   3.967
12847TIP3    H238499   5.405   7.585   3.899
12848TIP3   OH238500   1.976   1.608   2.782
12848TIP3    H138501   1.892   1.593   2.824
12848TIP3    H238502   1.954   1.626   2.690
12849TIP3   OH238503   3.880   7.455   0.788
12849TIP3    H138504   3.952   7.517   0.778
12849TIP3    H238505   3.842   7.448   0.701
12850TIP3   OH238506   3.400   7.611   4.665
12850TIP3    H138507   3.494   7.598   4.673
12850TIP3    H238508   3.362   7.562   4.738
12851TIP3   OH238509   3.890   6.086   4.781
12851TIP3    H138510   3.933   6.030   4.847
12851TIP3    H238511   3.797   6.064   4.788
12852TIP3   OH238512   4.152  -0.010   4.018
12852TIP3    H138513   4.212   0.001   4.092
12852TIP3    H238514   4.092   0.064   4.024
12853TIP3   OH238515   5.545   4.296   6.649
12853TIP3    H138516   5.508   4.294   6.737
12853TIP3    H238517   5.636   4.325   6.662
12854TIP3   OH238518   7.274   5.830   3.124
12854TIP3    H138519   7.329   5.876   3.187
12854TIP3    H238520   7.267   5.889   3.050
12855TIP3   OH238521   5.042   6.345   6.298
12855TIP3    H138522   5.052   6.431   6.256
12855TIP3    H238523   5.065   6.360   6.389
12856TIP3   OH238524   3.708   6.868   2.862
12856TIP3    H138525   3.797   6.840   2.838
12856TIP3    H238526   3.652   6.795   2.834
12857TIP3   OH238527   6.546   5.870   6.356
12857TIP3    H138528   6.586   5.896   6.439
12857TIP3    H238529   6.603   5.908   6.289
12858TIP3   OH238530   4.753   2.126   2.336
12858TIP3    H138531   4.741   2.089   2.248
12858TIP3    H238532   4.823   2.190   2.325
12859TIP3   OH238533   1.688   4.604   2.790
12859TIP3    H138534   1.598   4.575   2.798
12859TIP3    H238535   1.714   4.580   2.702
12860TIP3   OH238536   2.510   6.346   5.488
12860TIP3    H138537   2.591   6.299   5.508
12860TIP3    H238538   2.466   6.291   5.424
12861TIP3   OH238539   3.419   5.643   5.350
12861TIP3    H138540   3.364   5.712   5.313
12861TIP3    H238541   3.369   5.563   5.337
12862TIP3   OH238542   6.691   7.414   0.372
12862TIP3    H138543   6.716   7.504   0.349
12862TIP3    H238544   6.632   7.425   0.447
12863TIP3   OH238545   6.370   5.878   0.892
12863TIP3    H138546   6.463   5.873   0.871
12863TIP3    H238547   6.335   5.793   0.868
12864TIP3   OH238548   6.805   3.529   4.558
12864TIP3    H138549   6.790   3.523   4.653
12864TIP3    H238550   6.842   3.443   4.535
12865TIP3   OH238551   6.119   4.834   5.517
12865TIP3    H138552   6.195   4.864   5.467
12865TIP3    H238553   6.102   4.905   5.579
12866TIP3   OH238554   6.134   5.584   2.510
12866TIP3    H138555   6.040   5.568   2.516
12866TIP3    H238556   6.167   5.569   2.599
12867TIP3   OH238557   3.515   2.392   1.809
12867TIP3    H138558   3.448   2.336   1.849
12867TIP3    H238559   3.513   2.472   1.862
12868TIP3   OH238560   2.752   5.066   2.707
12868TIP3    H138561   2.693   4.991   2.712
12868TIP3    H238562   2.751   5.104   2.794
12869TIP3   OH238563   2.556   5.363   3.112
12869TIP3    H138564   2.544   5.410   3.029
12869TIP3    H238565   2.480   5.388   3.165
12870TIP3   OH238566   3.794   6.136   1.816
12870TIP3    H138567   3.824   6.173   1.900
12870TIP3    H238568   3.874   6.114   1.770
12871TIP3   OH238569   3.572   0.444   6.133
12871TIP3    H138570   3.569   0.350   6.148
12871TIP3    H238571   3.481   0.470   6.118
12872TIP3   OH238572   5.077   4.643   1.577
12872TIP3    H138573   5.128   4.579   1.626
12872TIP3    H238574   4.991   4.643   1.619
12873TIP3   OH238575   3.360   5.602   6.079
12873TIP3    H138576   3.319   5.599   5.992
12873TIP3    H238577   3.300   5.555   6.136
12874TIP3   OH238578   4.359   3.082   5.685
12874TIP3    H138579   4.410   3.151   5.643
12874TIP3    H238580   4.282   3.071   5.629
12875TIP3   OH238581   5.729   6.172   0.495
12875TIP3    H138582   5.748   6.242   0.557
12875TIP3    H238583   5.677   6.109   0.546
12876TIP3   OH238584   1.605   1.668   5.092
12876TIP3    H138585   1.690   1.662   5.134
12876TIP3    H238586   1.551   1.603   5.136
12877TIP3   OH238587   2.067   6.451   2.599
12877TIP3    H138588   1.992   6.442   2.541
12877TIP3    H238589   2.096   6.542   2.589
12878TIP3   OH238590   6.492   0.834   5.142
12878TIP3    H138591   6.511   0.790   5.059
12878TIP3    H238592   6.427   0.900   5.120
12879TIP3   OH238593   1.822   2.487   3.576
12879TIP3    H138594   1.891   2.492   3.643
12879TIP3    H238595   1.844   2.409   3.525
12880TIP3   OH238596   4.949   6.346   5.712
12880TIP3    H138597   4.913   6.366   5.626
12880TIP3    H238598   5.034   6.391   5.713
12881TIP3   OH238599   5.725   1.683   2.830
12881TIP3    H138600   5.690   1.750   2.888
12881TIP3    H238601   5.788   1.635   2.884
12882TIP3   OH238602   6.507   4.299   4.198
12882TIP3    H138603   6.543   4.222   4.155
12882TIP3    H238604   6.458   4.344   4.130
12883TIP3   OH238605   8.069   0.367   2.460
12883TIP3    H138606   8.107   0.369   2.372
12883TIP3    H238607   8.038   0.456   2.476
12884TIP3   OH238608   4.167   2.146   0.744
12884TIP3    H138609   4.121   2.092   0.808
12884TIP3    H238610   4.260   2.134   0.764
12885TIP3   OH238611   3.741   3.419   5.624
12885TIP3    H138612   3.815   3.362   5.604
12885TIP3    H238613   3.750   3.438   5.718
12886TIP3   OH238614   0.457   5.852   1.700
12886TIP3    H138615   0.462   5.868   1.794
12886TIP3    H238616   0.384   5.790   1.691
12887TIP3   OH238617   0.436   1.128   5.769
12887TIP3    H138618   0.418   1.036   5.787
12887TIP3    H238619   0.398   1.143   5.683
12888TIP3   OH238620   5.111   1.283   1.861
12888TIP3    H138621   5.060   1.238   1.928
12888TIP3    H238622   5.097   1.232   1.781
12889TIP3   OH238623   7.422   2.991   3.306
12889TIP3    H138624   7.423   2.899   3.282
12889TIP3    H238625   7.354   2.998   3.372
12890TIP3   OH238626   5.008   1.993   1.539
12890TIP3    H138627   4.987   1.932   1.610
12890TIP3    H238628   5.097   2.021   1.556
12891TIP3   OH238629   7.910   2.935   6.699
12891TIP3    H138630   7.855   3.004   6.660
12891TIP3    H238631   7.907   2.953   6.793
12892TIP3   OH238632   1.309   7.137   5.521
12892TIP3    H138633   1.382   7.177   5.568
12892TIP3    H238634   1.248   7.111   5.590
12893TIP3   OH238635   0.041   4.882   5.550
12893TIP3    H138636   0.041   4.975   5.570
12893TIP3    H238637  -0.048   4.853   5.574
12894TIP3   OH238638   4.383   1.807   5.351
12894TIP3    H138639   4.298   1.791   5.392
12894TIP3    H238640   4.391   1.738   5.285
12895TIP3   OH238641   5.137   3.265   3.384
12895TIP3    H138642   5.093   3.266   3.469
12895TIP3    H238643   5.221   3.222   3.402
12896TIP3   OH238644   0.375   3.770   2.858
12896TIP3    H138645   0.411   3.771   2.947
12896TIP3    H238646   0.333   3.855   2.848
12897TIP3   OH238647   0.627   4.950   0.707
12897TIP3    H138648   0.718   4.975   0.691
12897TIP3    H238649   0.622   4.936   0.801
12898TIP3   OH238650   8.072   0.029   6.470
12898TIP3    H138651   8.157   0.060   6.503
12898TIP3    H238652   8.056   0.080   6.392
12899TIP3   OH238653   1.977   1.886   0.303
12899TIP3    H138654   1.914   1.874   0.232
12899TIP3    H238655   1.985   1.799   0.343
12900TIP3   OH238656   7.087   5.944   1.921
12900TIP3    H138657   7.085   5.863   1.971
12900TIP3    H238658   6.996   5.958   1.895
12901TIP3   OH238659   6.486   2.543   4.234
12901TIP3    H138660   6.487   2.485   4.310
12901TIP3    H238661   6.565   2.596   4.242
12902TIP3   OH238662   3.505   5.204   4.399
12902TIP3    H138663   3.454   5.281   4.424
12902TIP3    H238664   3.479   5.137   4.461
12903TIP3   OH238665   7.053   4.186   5.383
12903TIP3    H138666   6.993   4.184   5.308
12903TIP3    H238667   7.075   4.278   5.395
12904TIP3   OH238668   3.980   2.859   5.482
12904TIP3    H138669   3.951   2.871   5.392
12904TIP3    H238670   4.031   2.778   5.481
12905TIP3   OH238671   7.589   3.676   2.364
12905TIP3    H138672   7.623   3.755   2.408
12905TIP3    H238673   7.496   3.694   2.353
12906TIP3   OH238674   2.669   7.347   6.264
12906TIP3    H138675   2.634   7.258   6.263
12906TIP3    H238676   2.643   7.381   6.350
12907TIP3   OH238677   7.287   3.131   0.299
12907TIP3    H138678   7.305   3.225   0.307
12907TIP3    H238679   7.308   3.096   0.386
12908TIP3   OH238680   2.204   4.463   0.348
12908TIP3    H138681   2.232   4.526   0.282
12908TIP3    H238682   2.117   4.492   0.375
12909TIP3   OH238683  -0.004   4.604   1.256
12909TIP3    H138684   0.085   4.630   1.282
12909TIP3    H238685  -0.058   4.680   1.276
12910TIP3   OH238686   7.622   5.824   3.742
12910TIP3    H138687   7.680   5.896   3.717
12910TIP3    H238688   7.680   5.747   3.747
12911TIP3   OH238689   5.335   2.865   2.239
12911TIP3    H138690   5.304   2.813   2.313
12911TIP3    H238691   5.287   2.829   2.163
12912TIP3   OH238692   5.765   2.588   1.220
12912TIP3    H138693   5.680   2.578   1.178
12912TIP3    H238694   5.783   2.682   1.217
12913TIP3   OH238695   2.061  -0.034   5.661
12913TIP3    H138696   2.111  -0.049   5.741
12913TIP3    H238697   1.970  -0.045   5.687
12914TIP3   OH238698   5.211   5.784   5.461
12914TIP3    H138699   5.291   5.748   5.422
12914TIP3    H238700   5.213   5.877   5.439
12915TIP3   OH238701   4.897   3.613   3.972
12915TIP3    H138702   4.932   3.526   3.955
12915TIP3    H238703   4.807   3.610   3.939
12916TIP3   OH238704   3.164   1.825   5.479
12916TIP3    H138705   3.147   1.874   5.399
12916TIP3    H238706   3.084   1.838   5.531
12917TIP3   OH238707   1.386   5.508   2.594
12917TIP3    H138708   1.308   5.545   2.553
12917TIP3    H238709   1.439   5.584   2.617
12918TIP3   OH238710   5.364   3.815   4.456
12918TIP3    H138711   5.300   3.744   4.468
12918TIP3    H238712   5.311   3.892   4.438
12919TIP3   OH238713   3.437   1.064   5.344
12919TIP3    H138714   3.532   1.058   5.338
12919TIP3    H238715   3.420   1.153   5.375
12920TIP3   OH238716   0.393   0.761   6.373
12920TIP3    H138717   0.471   0.706   6.386
12920TIP3    H238718   0.429   0.848   6.355
12921TIP3   OH238719   7.291   6.810   5.168
12921TIP3    H138720   7.343   6.817   5.248
12921TIP3    H238721   7.327   6.735   5.122
12922TIP3   OH238722   5.193   6.120   2.069
12922TIP3    H138723   5.213   6.122   1.975
12922TIP3    H238724   5.156   6.207   2.087
12923TIP3   OH238725   5.237   1.829   1.806
12923TIP3    H138726   5.141   1.831   1.798
12923TIP3    H238727   5.260   1.920   1.824
12924TIP3   OH238728   1.696   6.045   2.346
12924TIP3    H138729   1.620   6.088   2.386
12924TIP3    H238730   1.771   6.099   2.372
12925TIP3   OH238731   2.852   6.052   5.926
12925TIP3    H138732   2.906   6.041   6.005
12925TIP3    H238733   2.832   6.145   5.924
12926TIP3   OH238734   3.252   2.870   2.533
12926TIP3    H138735   3.282   2.785   2.499
12926TIP3    H238736   3.329   2.926   2.528
12927TIP3   OH238737   7.280   3.416   2.432
12927TIP3    H138738   7.203   3.370   2.464
12927TIP3    H238739   7.257   3.442   2.342
12928TIP3   OH238740   2.595   4.594   6.722
12928TIP3    H138741   2.615   4.540   6.645
12928TIP3    H238742   2.563   4.676   6.685
12929TIP3   OH238743   5.065   3.491   3.059
12929TIP3    H138744   5.146   3.487   3.111
12929TIP3    H238745   5.023   3.573   3.085
12930TIP3   OH238746   0.079   6.586   4.898
12930TIP3    H138747   0.153   6.611   4.843
12930TIP3    H238748   0.089   6.640   4.977
12931TIP3   OH238749   0.545   7.276   1.759
12931TIP3    H138750   0.498   7.308   1.835
12931TIP3    H238751   0.557   7.183   1.774
12932TIP3   OH238752   7.357   1.927   5.479
12932TIP3    H138753   7.292   1.857   5.472
12932TIP3    H238754   7.344   1.980   5.400
12933TIP3   OH238755   6.623   0.308   2.344
12933TIP3    H138756   6.625   0.226   2.295
12933TIP3    H238757   6.687   0.364   2.299
12934TIP3   OH238758   0.493   4.602   1.261
12934TIP3    H138759   0.549   4.615   1.338
12934TIP3    H238760   0.427   4.539   1.290
12935TIP3   OH238761   8.324   1.280   1.613
12935TIP3    H138762   8.279   1.215   1.559
12935TIP3    H238763   8.258   1.347   1.630
12936TIP3   OH238764   1.083   7.468   6.012
12936TIP3    H138765   1.134   7.410   6.069
12936TIP3    H238766   1.141   7.484   5.937
12937TIP3   OH238767   3.824   2.776   1.441
12937TIP3    H138768   3.747   2.831   1.460
12937TIP3    H238769   3.835   2.723   1.519
12938TIP3   OH238770   0.996   3.574   2.766
12938TIP3    H138771   0.929   3.600   2.829
12938TIP3    H238772   0.953   3.586   2.681
12939TIP3   OH238773   1.062   3.643   2.013
12939TIP3    H138774   1.059   3.626   2.107
12939TIP3    H238775   1.061   3.738   2.005
12940TIP3   OH238776   0.955   0.363   4.807
12940TIP3    H138777   1.013   0.435   4.832
12940TIP3    H238778   1.011   0.306   4.754
12941TIP3   OH238779   6.896   7.060   0.405
12941TIP3    H138780   6.953   7.060   0.482
12941TIP3    H238781   6.853   7.145   0.408
12942TIP3   OH238782   4.605   0.410   6.475
12942TIP3    H138783   4.697   0.386   6.485
12942TIP3    H238784   4.559   0.328   6.458
12943TIP3   OH238785   6.335   2.985   6.614
12943TIP3    H138786   6.258   2.984   6.672
12943TIP3    H238787   6.329   3.069   6.568
12944TIP3   OH238788   5.480   0.807   5.288
12944TIP3    H138789   5.551   0.863   5.318
12944TIP3    H238790   5.407   0.827   5.347
12945TIP3   OH238791   7.399   0.383   0.908
12945TIP3    H138792   7.389   0.375   1.003
12945TIP3    H238793   7.471   0.324   0.886
12946TIP3   OH238794   1.076   3.570   3.384
12946TIP3    H138795   1.061   3.571   3.289
12946TIP3    H238796   1.169   3.588   3.394
12947TIP3   OH238797   1.566   7.311   3.070
12947TIP3    H138798   1.559   7.265   3.154
12947TIP3    H238799   1.622   7.255   3.016
12948TIP3   OH238800   8.164   2.700   4.183
12948TIP3    H138801   8.217   2.620   4.185
12948TIP3    H238802   8.088   2.677   4.130
12949TIP3   OH238803   1.557   4.905   1.482
12949TIP3    H138804   1.462   4.889   1.478
12949TIP3    H238805   1.564   4.992   1.521
12950TIP3   OH238806   2.547   0.710   3.173
12950TIP3    H138807   2.639   0.689   3.158
12950TIP3    H238808   2.544   0.740   3.264
12951TIP3   OH238809   1.127   3.367   4.405
12951TIP3    H138810   1.122   3.319   4.487
12951TIP3    H238811   1.112   3.459   4.430
12952TIP3   OH238812   5.463   0.629   4.964
12952TIP3    H138813   5.373   0.598   4.976
12952TIP3    H238814   5.475   0.695   5.032
12953TIP3   OH238815   3.135   4.141   6.009
12953TIP3    H138816   3.219   4.128   5.964
12953TIP3    H238817   3.124   4.236   6.013
12954TIP3   OH238818   4.358   0.142   1.786
12954TIP3    H138819   4.276   0.159   1.740
12954TIP3    H238820   4.389   0.059   1.750
12955TIP3   OH238821   0.329   4.179   2.374
12955TIP3    H138822   0.398   4.118   2.400
12955TIP3    H238823   0.360   4.216   2.292
12956TIP3   OH238824   4.281   1.601   2.707
12956TIP3    H138825   4.245   1.583   2.620
12956TIP3    H238826   4.235   1.541   2.765
12957TIP3   OH238827   3.296   3.780   5.496
12957TIP3    H138828   3.246   3.729   5.433
12957TIP3    H238829   3.386   3.777   5.463
12958TIP3   OH238830   1.256   1.007   1.633
12958TIP3    H138831   1.292   1.076   1.689
12958TIP3    H238832   1.170   0.989   1.670
12959TIP3   OH238833   7.775   4.230   4.558
12959TIP3    H138834   7.760   4.307   4.504
12959TIP3    H238835   7.689   4.190   4.568
12960TIP3   OH238836   4.742   3.925   4.610
12960TIP3    H138837   4.659   3.928   4.563
12960TIP3    H238838   4.775   3.837   4.594
12961TIP3   OH238839   1.517   4.873   4.549
12961TIP3    H138840   1.467   4.937   4.500
12961TIP3    H238841   1.466   4.792   4.543
12962TIP3   OH238842   4.611   2.000   4.779
12962TIP3    H138843   4.600   1.969   4.689
12962TIP3    H238844   4.702   1.977   4.802
12963TIP3   OH238845   5.049   0.254   1.764
12963TIP3    H138846   5.079   0.326   1.708
12963TIP3    H238847   4.971   0.289   1.808
12964TIP3   OH238848   7.488   0.342   6.233
12964TIP3    H138849   7.499   0.416   6.173
12964TIP3    H238850   7.501   0.380   6.320
12965TIP3   OH238851   3.282   0.911   5.556
12965TIP3    H138852   3.193   0.900   5.525
12965TIP3    H238853   3.332   0.939   5.479
12966TIP3   OH238854   5.405   4.128   3.779
12966TIP3    H138855   5.430   4.054   3.834
12966TIP3    H238856   5.354   4.089   3.707
12967TIP3   OH238857   5.004   4.110   4.573
12967TIP3    H138858   5.041   4.030   4.610
12967TIP3    H238859   4.939   4.079   4.510
12968TIP3   OH238860   6.230   0.249   0.583
12968TIP3    H138861   6.205   0.336   0.610
12968TIP3    H238862   6.307   0.262   0.526
12969TIP3   OH238863   2.341   3.037   3.512
12969TIP3    H138864   2.251   3.069   3.509
12969TIP3    H238865   2.388   3.101   3.565
12970TIP3   OH238866   0.690   4.254   5.962
12970TIP3    H138867   0.695   4.286   6.052
12970TIP3    H238868   0.624   4.184   5.965
12971TIP3   OH238869   7.978   7.105   3.438
12971TIP3    H138870   7.964   7.031   3.497
12971TIP3    H238871   8.066   7.092   3.404
12972TIP3   OH238872   7.730   6.562   4.849
12972TIP3    H138873   7.649   6.543   4.803
12972TIP3    H238874   7.768   6.477   4.869
12973TIP3   OH238875  -0.007   0.185   6.535
12973TIP3    H138876  -0.015   0.242   6.611
12973TIP3    H238877   0.016   0.245   6.463
12974TIP3   OH238878   1.421   6.474   0.414
12974TIP3    H138879   1.359   6.437   0.477
12974TIP3    H238880   1.482   6.403   0.395
12975TIP3   OH238881   5.327   6.881   2.887
12975TIP3    H138882   5.385   6.915   2.955
12975TIP3    H238883   5.246   6.859   2.934
12976TIP3   OH238884   7.827   0.604   5.534
12976TIP3    H138885   7.819   0.610   5.629
12976TIP3    H238886   7.773   0.676   5.501
12977TIP3   OH238887   7.436   2.331   4.890
12977TIP3    H138888   7.415   2.298   4.802
12977TIP3    H238889   7.451   2.424   4.878
12978TIP3   OH238890   1.260   3.571   3.711
12978TIP3    H138891   1.301   3.561   3.797
12978TIP3    H238892   1.321   3.626   3.661
12979TIP3   OH238893   7.186   6.363   6.123
12979TIP3    H138894   7.150   6.379   6.036
12979TIP3    H238895   7.123   6.303   6.164
12980TIP3   OH238896   3.996   1.360   0.568
12980TIP3    H138897   4.043   1.288   0.525
12980TIP3    H238898   4.046   1.438   0.545
12981TIP3   OH238899   7.013   5.569   5.619
12981TIP3    H138900   7.073   5.639   5.593
12981TIP3    H238901   7.066   5.511   5.675
12982TIP3   OH238902   6.328   3.448   3.967
12982TIP3    H138903   6.381   3.465   3.889
12982TIP3    H238904   6.259   3.389   3.936
12983TIP3   OH238905   1.927   3.093   5.423
12983TIP3    H138906   1.848   3.075   5.474
12983TIP3    H238907   1.959   3.177   5.457
12984TIP3   OH238908   5.343   4.719   3.383
12984TIP3    H138909   5.375   4.654   3.321
12984TIP3    H238910   5.256   4.688   3.408
12985TIP3   OH238911   6.932   4.008   0.998
12985TIP3    H138912   7.022   4.038   1.005
12985TIP3    H238913   6.905   4.030   0.909
12986TIP3   OH238914   3.183   5.926   2.295
12986TIP3    H138915   3.184   5.832   2.276
12986TIP3    H238916   3.094   5.954   2.271
12987TIP3   OH238917   1.034   4.312   6.568
12987TIP3    H138918   0.947   4.279   6.589
12987TIP3    H238919   1.056   4.273   6.484
12988TIP3   OH238920   6.228   1.234   0.544
12988TIP3    H138921   6.320   1.213   0.560
12988TIP3    H238922   6.211   1.203   0.455
12989TIP3   OH238923   3.929   0.134   4.042
12989TIP3    H138924   3.880   0.057   4.013
12989TIP3    H238925   3.920   0.197   3.969
12990TIP3   OH238926   7.287   2.985   3.914
12990TIP3    H138927   7.302   2.983   4.009
12990TIP3    H238928   7.353   3.046   3.881
12991TIP3   OH238929   2.332   2.079   3.184
12991TIP3    H138930   2.397   2.130   3.136
12991TIP3    H238931   2.299   2.139   3.251
12992TIP3   OH238932   2.423   0.042   5.141
12992TIP3    H138933   2.455   0.132   5.150
12992TIP3    H238934   2.500  -0.012   5.160
12993TIP3   OH238935   5.984   5.503   0.070
12993TIP3    H138936   5.912   5.457   0.026
12993TIP3    H238937   6.056   5.499   0.007
12994TIP3   OH238938   5.195   0.552   5.122
12994TIP3    H138939   5.112   0.596   5.103
12994TIP3    H238940   5.204   0.558   5.217
12995TIP3   OH238941   1.617   2.725   6.120
12995TIP3    H138942   1.564   2.706   6.198
12995TIP3    H238943   1.553   2.748   6.052
12996TIP3   OH238944   7.223   0.222   4.687
12996TIP3    H138945   7.202   0.220   4.780
12996TIP3    H238946   7.215   0.131   4.659
12997TIP3   OH238947   8.258   3.314   2.100
12997TIP3    H138948   8.197   3.272   2.039
12997TIP3    H238949   8.201   3.360   2.162
12998TIP3   OH238950   8.139   2.874   6.054
12998TIP3    H138951   8.212   2.922   6.093
12998TIP3    H238952   8.180   2.812   5.994
12999TIP3   OH238953   1.309   7.327   2.111
12999TIP3    H138954   1.404   7.339   2.120
12999TIP3    H238955   1.296   7.307   2.019
13000TIP3   OH238956   5.668   0.932   1.617
13000TIP3    H138957   5.752   0.891   1.598
13000TIP3    H238958   5.620   0.865   1.667
13001TIP3   OH238959   4.326   2.255   2.039
13001TIP3    H138960   4.254   2.214   1.991
13001TIP3    H238961   4.308   2.349   2.035
13002TIP3   OH238962   1.968   0.169   2.607
13002TIP3    H138963   1.902   0.192   2.542
13002TIP3    H238964   1.939   0.084   2.641
13003TIP3   OH238965   6.995   1.552   4.070
13003TIP3    H138966   6.965   1.620   4.009
13003TIP3    H238967   6.976   1.588   4.156
13004TIP3   OH238968   6.156   0.333   0.141
13004TIP3    H138969   6.204   0.414   0.152
13004TIP3    H238970   6.115   0.316   0.226
13005TIP3   OH238971   4.352   3.785   3.860
13005TIP3    H138972   4.349   3.725   3.935
13005TIP3    H238973   4.438   3.825   3.864
13006TIP3   OH238974   4.222   2.232   2.345
13006TIP3    H138975   4.255   2.261   2.260
13006TIP3    H238976   4.298   2.195   2.389
13007TIP3   OH238977   6.563   2.056   2.471
13007TIP3    H138978   6.474   2.045   2.505
13007TIP3    H238979   6.615   1.992   2.519
13008TIP3   OH238980   1.233   6.365   0.620
13008TIP3    H138981   1.295   6.311   0.668
13008TIP3    H238982   1.174   6.401   0.687
13009TIP3   OH238983   1.841   3.299   6.546
13009TIP3    H138984   1.760   3.349   6.533
13009TIP3    H238985   1.812   3.208   6.552
13010TIP3   OH238986   2.811   0.086   6.502
13010TIP3    H138987   2.775   0.122   6.421
13010TIP3    H238988   2.761   0.130   6.571
13011TIP3   OH238989   4.374   7.644   5.788
13011TIP3    H138990   4.309   7.642   5.719
13011TIP3    H238991   4.377   7.736   5.816
13012TIP3   OH238992   0.175   1.197   3.609
13012TIP3    H138993   0.080   1.209   3.611
13012TIP3    H238994   0.199   1.183   3.701
13013TIP3   OH238995   0.287   2.257   1.549
13013TIP3    H138996   0.252   2.288   1.633
13013TIP3    H238997   0.239   2.175   1.533
13014TIP3   OH238998   5.663   2.221   6.309
13014TIP3    H138999   5.630   2.247   6.395
13014TIP3    H239000   5.651   2.299   6.255
13015TIP3   OH239001   1.086   5.925   3.804
13015TIP3    H139002   1.125   5.894   3.722
13015TIP3    H239003   1.001   5.881   3.808
13016TIP3   OH239004   5.728   1.972   3.873
13016TIP3    H139005   5.765   1.885   3.859
13016TIP3    H239006   5.680   1.992   3.793
13017TIP3   OH239007   6.422   3.123   4.919
13017TIP3    H139008   6.508   3.121   4.878
13017TIP3    H239009   6.364   3.160   4.852
13018TIP3   OH239010   2.182   2.314   5.760
13018TIP3    H139011   2.230   2.393   5.736
13018TIP3    H239012   2.095   2.325   5.721
13019TIP3   OH239013   2.434   2.937   4.554
13019TIP3    H139014   2.412   2.993   4.628
13019TIP3    H239015   2.425   2.993   4.477
13020TIP3   OH239016   4.115   3.339   5.561
13020TIP3    H139017   4.036   3.291   5.584
13020TIP3    H239018   4.172   3.274   5.521
13021TIP3   OH239019   5.962   7.134   5.829
13021TIP3    H139020   6.025   7.199   5.861
13021TIP3    H239021   5.894   7.131   5.896
13022TIP3   OH239022   5.612   2.828   5.098
13022TIP3    H139023   5.600   2.912   5.055
13022TIP3    H239024   5.599   2.763   5.028
13023TIP3   OH239025   2.576   5.575   6.550
13023TIP3    H139026   2.570   5.484   6.578
13023TIP3    H239027   2.532   5.624   6.619
13024TIP3   OH239028   4.366   5.654   6.730
13024TIP3    H139029   4.418   5.693   6.660
13024TIP3    H239030   4.426   5.648   6.804
13025TIP3   OH239031   6.391   2.355   4.426
13025TIP3    H139032   6.478   2.375   4.461
13025TIP3    H239033   6.337   2.340   4.503
13026TIP3   OH239034   5.795   3.510   5.750
13026TIP3    H139035   5.730   3.510   5.680
13026TIP3    H239036   5.763   3.444   5.812
13027TIP3   OH239037   3.825   7.074   6.499
13027TIP3    H139038   3.912   7.075   6.539
13027TIP3    H239039   3.772   7.132   6.554
13028TIP3   OH239040   7.507   2.801   0.792
13028TIP3    H139041   7.528   2.881   0.743
13028TIP3    H239042   7.588   2.750   0.789
13029TIP3   OH239043   2.592   3.858   3.276
13029TIP3    H139044   2.623   3.779   3.231
13029TIP3    H239045   2.652   3.927   3.245
13030TIP3   OH239046   1.017   7.379   1.451
13030TIP3    H139047   1.081   7.389   1.380
13030TIP3    H239048   1.055   7.426   1.525
13031TIP3   OH239049   2.999   7.372   4.374
13031TIP3    H139050   2.992   7.356   4.280
13031TIP3    H239051   3.091   7.352   4.395
13032TIP3   OH239052   3.080   0.745   0.990
13032TIP3    H139053   3.107   0.781   0.906
13032TIP3    H239054   2.992   0.711   0.975
13033TIP3   OH239055   0.536   7.644   4.095
13033TIP3    H139056   0.609   7.680   4.045
13033TIP3    H239057   0.457   7.673   4.049
13034TIP3   OH239058   5.476   6.395   0.932
13034TIP3    H139059   5.531   6.457   0.979
13034TIP3    H239060   5.529   6.315   0.925
13035TIP3   OH239061   1.684   5.034   6.396
13035TIP3    H139062   1.608   4.999   6.349
13035TIP3    H239063   1.661   5.125   6.415
13036TIP3   OH239064   8.152   7.151   6.699
13036TIP3    H139065   8.205   7.080   6.735
13036TIP3    H239066   8.175   7.227   6.751
13037TIP3   OH239067   6.961   7.078   1.445
13037TIP3    H139068   6.880   7.090   1.395
13037TIP3    H239069   7.015   7.154   1.423
13038TIP3   OH239070   6.139   0.892   3.268
13038TIP3    H139071   6.151   0.963   3.205
13038TIP3    H239072   6.093   0.824   3.219
13039TIP3   OH239073   6.148   1.680   4.640
13039TIP3    H139074   6.149   1.590   4.673
13039TIP3    H239075   6.206   1.678   4.564
13040TIP3   OH239076   6.067   2.067   0.821
13040TIP3    H139077   6.078   2.112   0.738
13040TIP3    H239078   6.072   2.136   0.887
13041TIP3   OH239079   3.463   6.036   2.804
13041TIP3    H139080   3.435   6.112   2.754
13041TIP3    H239081   3.552   6.018   2.774
13042TIP3   OH239082   3.376   1.766   3.846
13042TIP3    H139083   3.416   1.682   3.822
13042TIP3    H239084   3.296   1.741   3.892
13043TIP3   OH239085   2.573   2.357   2.862
13043TIP3    H139086   2.581   2.441   2.815
13043TIP3    H239087   2.662   2.322   2.862
13044TIP3   OH239088   0.744   6.171   5.567
13044TIP3    H139089   0.831   6.159   5.530
13044TIP3    H239090   0.707   6.082   5.572
13045TIP3   OH239091   1.531   0.496   3.958
13045TIP3    H139092   1.513   0.403   3.974
13045TIP3    H239093   1.623   0.506   3.981
13046TIP3   OH239094   0.696   1.727   6.649
13046TIP3    H139095   0.773   1.765   6.606
13046TIP3    H239096   0.688   1.776   6.731
13047TIP3   OH239097   3.073   6.265   5.245
13047TIP3    H139098   3.048   6.356   5.228
13047TIP3    H239099   3.075   6.225   5.158
13048TIP3   OH239100   1.699   1.367   4.627
13048TIP3    H139101   1.663   1.372   4.538
13048TIP3    H239102   1.780   1.418   4.623
13049TIP3   OH239103   3.555   2.729   3.614
13049TIP3    H139104   3.518   2.801   3.667
13049TIP3    H239105   3.543   2.758   3.524
13050TIP3   OH239106   8.033   7.589   1.427
13050TIP3    H139107   7.962   7.560   1.370
13050TIP3    H239108   8.054   7.512   1.480
13051TIP3   OH239109   1.166   5.808   4.906
13051TIP3    H139110   1.185   5.901   4.911
13051TIP3    H239111   1.093   5.802   4.845
13052TIP3   OH239112   0.301   0.030   5.840
13052TIP3    H139113   0.359   0.020   5.764
13052TIP3    H239114   0.224  -0.024   5.819
13053TIP3   OH239115   2.675   5.373   6.802
13053TIP3    H139116   2.602   5.390   6.742
13053TIP3    H239117   2.726   5.305   6.759
13054TIP3   OH239118   2.037   3.326   6.745
13054TIP3    H139119   1.965   3.321   6.682
13054TIP3    H239120   2.064   3.418   6.743
13055TIP3   OH239121   1.896   3.818   1.988
13055TIP3    H139122   1.809   3.853   1.969
13055TIP3    H239123   1.880   3.733   2.029
13056TIP3   OH239124   2.792   1.045   1.593
13056TIP3    H139125   2.827   0.976   1.536
13056TIP3    H239126   2.805   1.126   1.543
13057TIP3   OH239127   6.189   0.521   1.871
13057TIP3    H139128   6.122   0.454   1.880
13057TIP3    H239129   6.221   0.536   1.960
13058TIP3   OH239130   0.131   4.505   5.134
13058TIP3    H139131   0.180   4.426   5.111
13058TIP3    H239132   0.086   4.529   5.053
13059TIP3   OH239133   6.143   2.411   5.026
13059TIP3    H139134   6.078   2.360   4.978
13059TIP3    H239135   6.192   2.346   5.077
13060TIP3   OH239136   7.175   1.156   6.346
13060TIP3    H139137   7.109   1.196   6.402
13060TIP3    H239138   7.126   1.093   6.292
13061TIP3   OH239139   5.853   0.540   6.560
13061TIP3    H139140   5.847   0.454   6.518
13061TIP3    H239141   5.803   0.599   6.503
13062TIP3   OH239142   2.658   1.965   1.497
13062TIP3    H139143   2.562   1.963   1.487
13062TIP3    H239144   2.676   2.050   1.535
13063TIP3   OH239145   4.016   6.824   2.916
13063TIP3    H139146   4.002   6.740   2.958
13063TIP3    H239147   4.105   6.819   2.881
13064TIP3   OH239148   1.328   2.815   1.161
13064TIP3    H139149   1.401   2.837   1.219
13064TIP3    H239150   1.341   2.722   1.140
13065TIP3   OH239151   2.843   3.063   5.638
13065TIP3    H139152   2.823   2.995   5.702
13065TIP3    H239153   2.911   3.024   5.582
13066TIP3   OH239154   1.296   5.846   4.589
13066TIP3    H139155   1.324   5.755   4.582
13066TIP3    H239156   1.203   5.840   4.614
13067TIP3   OH239157   4.953   3.373   1.943
13067TIP3    H139158   5.023   3.367   1.877
13067TIP3    H239159   4.873   3.356   1.894
13068TIP3   OH239160   2.845   2.085   5.085
13068TIP3    H139161   2.928   2.051   5.119
13068TIP3    H239162   2.826   2.029   5.010
13069TIP3   OH239163   0.923   4.363   2.881
13069TIP3    H139164   0.854   4.307   2.917
13069TIP3    H239165   0.890   4.452   2.893
13070TIP3   OH239166   3.448   3.055   3.482
13070TIP3    H139167   3.430   3.031   3.391
13070TIP3    H239168   3.366   3.038   3.528
13071TIP3   OH239169   5.802   1.991   0.876
13071TIP3    H139170   5.810   2.048   0.953
13071TIP3    H239171   5.890   1.989   0.839
13072TIP3   OH239172   8.306   2.079   0.496
13072TIP3    H139173   8.374   2.013   0.509
13072TIP3    H239174   8.226   2.037   0.527
13073TIP3   OH239175   6.378   7.434   3.187
13073TIP3    H139176   6.283   7.451   3.187
13073TIP3    H239177   6.417   7.520   3.171
13074TIP3   OH239178   7.402   3.135   5.197
13074TIP3    H139179   7.466   3.164   5.131
13074TIP3    H239180   7.406   3.202   5.265
13075TIP3   OH239181   0.665   5.992   4.496
13075TIP3    H139182   0.739   5.937   4.521
13075TIP3    H239183   0.684   6.018   4.406
13076TIP3   OH239184   6.774   5.062   3.274
13076TIP3    H139185   6.785   5.110   3.191
13076TIP3    H239186   6.803   5.123   3.341
13077TIP3   OH239187   5.766   4.294   5.771
13077TIP3    H139188   5.714   4.269   5.695
13077TIP3    H239189   5.856   4.269   5.749
13078TIP3   OH239190   6.162   4.552   5.013
13078TIP3    H139191   6.111   4.515   5.085
13078TIP3    H239192   6.151   4.489   4.942
13079TIP3   OH239193   1.183   0.356   1.689
13079TIP3    H139194   1.102   0.323   1.728
13079TIP3    H239195   1.155   0.408   1.614
13080TIP3   OH239196   2.914   0.113   4.665
13080TIP3    H139197   2.980   0.133   4.599
13080TIP3    H239198   2.836   0.161   4.638
13081TIP3   OH239199   3.713   6.065   3.982
13081TIP3    H139200   3.722   6.120   4.060
13081TIP3    H239201   3.619   6.068   3.962
13082TIP3   OH239202   0.792   3.138   3.602
13082TIP3    H139203   0.886   3.127   3.586
13082TIP3    H239204   0.751   3.108   3.521
13083TIP3   OH239205   3.717   0.685   0.609
13083TIP3    H139206   3.651   0.741   0.651
13083TIP3    H239207   3.758   0.639   0.682
13084TIP3   OH239208   1.938   7.141   3.437
13084TIP3    H139209   1.924   7.234   3.420
13084TIP3    H239210   2.010   7.139   3.500
13085TIP3   OH239211   7.416   1.889   3.875
13085TIP3    H139212   7.371   1.830   3.936
13085TIP3    H239213   7.370   1.878   3.792
13086TIP3   OH239214   0.874   6.811   2.057
13086TIP3    H139215   0.830   6.893   2.032
13086TIP3    H239216   0.810   6.765   2.112
13087TIP3   OH239217   3.350   6.161   4.876
13087TIP3    H139218   3.416   6.121   4.818
13087TIP3    H239219   3.398   6.229   4.923
13088TIP3   OH239220   6.129   4.631   2.392
13088TIP3    H139221   6.194   4.688   2.351
13088TIP3    H239222   6.150   4.544   2.360
13089TIP3   OH239223   7.498   4.622   5.237
13089TIP3    H139224   7.408   4.639   5.265
13089TIP3    H239225   7.495   4.537   5.194
13090TIP3   OH239226   0.497   4.636   3.664
13090TIP3    H139227   0.551   4.585   3.604
13090TIP3    H239228   0.450   4.571   3.716
13091TIP3   OH239229   5.320   0.321   0.623
13091TIP3    H139230   5.351   0.378   0.693
13091TIP3    H239231   5.227   0.341   0.614
13092TIP3   OH239232   1.472   2.615   2.723
13092TIP3    H139233   1.541   2.645   2.782
13092TIP3    H239234   1.424   2.549   2.773
13093TIP3   OH239235   2.076   6.250   2.019
13093TIP3    H139236   2.083   6.340   1.989
13093TIP3    H239237   2.016   6.209   1.956
13094TIP3   OH239238   7.482   1.366   0.717
13094TIP3    H139239   7.398   1.320   0.714
13094TIP3    H239240   7.512   1.367   0.626
13095TIP3   OH239241   4.532   2.400   6.519
13095TIP3    H139242   4.599   2.370   6.458
13095TIP3    H239243   4.582   2.433   6.594
13096TIP3   OH239244   5.427   2.059   1.959
13096TIP3    H139245   5.375   2.090   1.885
13096TIP3    H239246   5.415   2.125   2.027
13097TIP3   OH239247   0.813   4.471   5.760
13097TIP3    H139248   0.907   4.478   5.749
13097TIP3    H239249   0.798   4.478   5.854
13098TIP3   OH239250   5.513   3.905   2.523
13098TIP3    H139251   5.443   3.966   2.502
13098TIP3    H239252   5.579   3.920   2.455
13099TIP3   OH239253   0.374   0.348   3.811
13099TIP3    H139254   0.436   0.413   3.779
13099TIP3    H239255   0.427   0.271   3.828
13100TIP3   OH239256   2.069   6.964   5.978
13100TIP3    H139257   2.147   6.980   5.925
13100TIP3    H239258   2.065   6.868   5.986
13101TIP3   OH239259   8.110   2.530   0.228
13101TIP3    H139260   8.079   2.470   0.295
13101TIP3    H239261   8.110   2.479   0.147
13102TIP3   OH239262   7.172   5.753   3.603
13102TIP3    H139263   7.257   5.787   3.575
13102TIP3    H239264   7.136   5.821   3.660
13103TIP3   OH239265   4.567   2.194   2.972
13103TIP3    H139266   4.537   2.265   3.030
13103TIP3    H239267   4.514   2.203   2.893
13104TIP3   OH239268   4.331   7.407   0.544
13104TIP3    H139269   4.419   7.438   0.568
13104TIP3    H239270   4.313   7.336   0.606
13105TIP3   OH239271   0.163   1.031   2.206
13105TIP3    H139272   0.209   0.966   2.259
13105TIP3    H239273   0.106   0.979   2.149
13106TIP3   OH239274   2.663   1.306   2.932
13106TIP3    H139275   2.685   1.284   3.022
13106TIP3    H239276   2.574   1.340   2.936
13107TIP3   OH239277   2.515   1.401   1.181
13107TIP3    H139278   2.509   1.391   1.086
13107TIP3    H239279   2.469   1.324   1.216
13108TIP3   OH239280   2.206   2.695   1.123
13108TIP3    H139281   2.179   2.773   1.171
13108TIP3    H239282   2.298   2.711   1.099
13109TIP3   OH239283   0.222   4.715   0.166
13109TIP3    H139284   0.228   4.711   0.071
13109TIP3    H239285   0.298   4.767   0.193
13110TIP3   OH239286   3.064   5.508   4.991
13110TIP3    H139287   3.057   5.591   5.038
13110TIP3    H239288   2.985   5.460   5.015
13111TIP3   OH239289   8.190   0.753   6.622
13111TIP3    H139290   8.220   0.842   6.638
13111TIP3    H239291   8.263   0.710   6.579
13112TIP3   OH239292   3.165   4.414   0.692
13112TIP3    H139293   3.116   4.403   0.774
13112TIP3    H239294   3.249   4.371   0.709
13113TIP3   OH239295   7.372   5.449   6.005
13113TIP3    H139296   7.352   5.357   6.021
13113TIP3    H239297   7.288   5.489   5.984
13114TIP3   OH239298   6.965   1.672   2.779
13114TIP3    H139299   6.956   1.765   2.801
13114TIP3    H239300   6.986   1.671   2.686
13115TIP3   OH239301   7.200   6.522   0.779
13115TIP3    H139302   7.288   6.550   0.803
13115TIP3    H239303   7.184   6.563   0.694
13116TIP3   OH239304   3.922   2.459   5.606
13116TIP3    H139305   3.948   2.424   5.521
13116TIP3    H239306   3.996   2.513   5.634
13117TIP3   OH239307   6.824   1.601   3.059
13117TIP3    H139308   6.817   1.518   3.105
13117TIP3    H239309   6.868   1.580   2.977
13118TIP3   OH239310   4.176   5.556   1.536
13118TIP3    H139311   4.263   5.534   1.503
13118TIP3    H239312   4.192   5.611   1.613
13119TIP3   OH239313   0.596   0.511   0.113
13119TIP3    H139314   0.540   0.531   0.188
13119TIP3    H239315   0.605   0.594   0.067
13120TIP3   OH239316   4.089   3.484   1.037
13120TIP3    H139317   4.116   3.425   1.108
13120TIP3    H239318   4.165   3.491   0.980
13121TIP3   OH239319   6.099   3.397   2.663
13121TIP3    H139320   6.123   3.348   2.742
13121TIP3    H239321   6.131   3.345   2.590
13122TIP3   OH239322   1.773   2.924   3.231
13122TIP3    H139323   1.770   2.925   3.327
13122TIP3    H239324   1.866   2.918   3.210
13123TIP3   OH239325   3.843   5.517   1.867
13123TIP3    H139326   3.896   5.493   1.943
13123TIP3    H239327   3.774   5.451   1.865
13124TIP3   OH239328   5.317   1.245   3.606
13124TIP3    H139329   5.295   1.292   3.687
13124TIP3    H239330   5.264   1.165   3.610
13125TIP3   OH239331   5.909   3.424   2.917
13125TIP3    H139332   5.848   3.350   2.909
13125TIP3    H239333   5.954   3.426   2.833
13126TIP3   OH239334   2.524   0.231   4.049
13126TIP3    H139335   2.560   0.248   4.135
13126TIP3    H239336   2.518   0.136   4.043
13127TIP3   OH239337   6.813   3.862   4.095
13127TIP3    H139338   6.747   3.865   4.164
13127TIP3    H239339   6.768   3.825   4.019
13128TIP3   OH239340   0.680   4.556   3.485
13128TIP3    H139341   0.621   4.568   3.411
13128TIP3    H239342   0.706   4.464   3.480
13129TIP3   OH239343   0.915   1.472   2.237
13129TIP3    H139344   1.009   1.472   2.222
13129TIP3    H239345   0.879   1.529   2.169
13130TIP3   OH239346   2.955   5.038   0.007
13130TIP3    H139347   2.996   5.112  -0.038
13130TIP3    H239348   2.945   5.068   0.098
13131TIP3   OH239349   2.843   7.204   0.823
13131TIP3    H139350   2.886   7.131   0.779
13131TIP3    H239351   2.820   7.170   0.909
13132TIP3   OH239352   3.463   6.073   4.586
13132TIP3    H139353   3.391   6.010   4.585
13132TIP3    H239354   3.512   6.056   4.506
13133TIP3   OH239355   7.287   0.857   1.535
13133TIP3    H139356   7.329   0.926   1.587
13133TIP3    H239357   7.359   0.805   1.501
13134TIP3   OH239358   4.389   4.483   1.020
13134TIP3    H139359   4.427   4.396   1.005
13134TIP3    H239360   4.310   4.485   0.965
13135TIP3   OH239361   5.929   2.400   3.719
13135TIP3    H139362   5.849   2.448   3.740
13135TIP3    H239363   5.999   2.450   3.761
13136TIP3   OH239364   0.236   6.993   3.711
13136TIP3    H139365   0.262   6.920   3.768
13136TIP3    H239366   0.269   7.071   3.756
13137TIP3   OH239367   8.258   4.242   0.080
13137TIP3    H139368   8.200   4.280   0.014
13137TIP3    H239369   8.209   4.168   0.116
13138TIP3   OH239370   6.065   2.590   3.126
13138TIP3    H139371   5.978   2.555   3.144
13138TIP3    H239372   6.123   2.543   3.186
13139TIP3   OH239373   6.839   5.981   1.760
13139TIP3    H139374   6.757   5.935   1.773
13139TIP3    H239375   6.883   5.933   1.689
13140TIP3   OH239376   1.468   3.688   2.413
13140TIP3    H139377   1.483   3.738   2.332
13140TIP3    H239378   1.382   3.717   2.443
13141TIP3   OH239379   1.298   2.422   0.781
13141TIP3    H139380   1.230   2.476   0.822
13141TIP3    H239381   1.251   2.344   0.751
13142TIP3   OH239382   6.254   6.201   2.307
13142TIP3    H139383   6.319   6.258   2.267
13142TIP3    H239384   6.301   6.153   2.374
13143TIP3   OH239385   5.364   7.311   6.349
13143TIP3    H139386   5.448   7.354   6.335
13143TIP3    H239387   5.305   7.382   6.375
13144TIP3   OH239388   6.047   3.056   0.777
13144TIP3    H139389   5.966   3.023   0.739
13144TIP3    H239390   6.045   3.150   0.759
13145TIP3   OH239391   4.727   4.178   3.168
13145TIP3    H139392   4.689   4.094   3.144
13145TIP3    H239393   4.659   4.242   3.149
13146TIP3   OH239394   2.179   1.617   3.455
13146TIP3    H139395   2.211   1.533   3.487
13146TIP3    H239396   2.098   1.632   3.503
13147TIP3   OH239397   5.845   4.742   1.072
13147TIP3    H139398   5.811   4.773   1.156
13147TIP3    H239399   5.881   4.655   1.092
13148TIP3   OH239400   7.215   6.544   2.224
13148TIP3    H139401   7.137   6.498   2.254
13148TIP3    H239402   7.182   6.618   2.173
13149TIP3   OH239403   5.526   7.008   5.491
13149TIP3    H139404   5.613   7.042   5.470
13149TIP3    H239405   5.483   7.079   5.539
13150TIP3   OH239406   6.434   7.172   3.249
13150TIP3    H139407   6.344   7.139   3.247
13150TIP3    H239408   6.425   7.267   3.241
13151TIP3   OH239409   2.455   2.586   4.260
13151TIP3    H139410   2.506   2.507   4.275
13151TIP3    H239411   2.450   2.593   4.165
13152TIP3   OH239412   4.923   7.484   4.479
13152TIP3    H139413   5.016   7.467   4.463
13152TIP3    H239414   4.883   7.479   4.392
13153TIP3   OH239415   7.436   7.296   4.540
13153TIP3    H139416   7.474   7.289   4.452
13153TIP3    H239417   7.412   7.388   4.548
13154TIP3   OH239418   1.899   3.129   0.399
13154TIP3    H139419   1.927   3.038   0.390
13154TIP3    H239420   1.890   3.159   0.309
13155TIP3   OH239421   4.094   4.835   1.635
13155TIP3    H139422   4.100   4.915   1.584
13155TIP3    H239423   4.094   4.765   1.570
13156TIP3   OH239424   1.559   3.088   2.750
13156TIP3    H139425   1.650   3.075   2.776
13156TIP3    H239426   1.511   3.093   2.833
13157TIP3   OH239427   1.356   4.980   0.439
13157TIP3    H139428   1.400   5.042   0.496
13157TIP3    H239429   1.284   4.946   0.493
13158TIP3   OH239430   0.787   1.824   0.169
13158TIP3    H139431   0.846   1.789   0.102
13158TIP3    H239432   0.718   1.757   0.177
13159TIP3   OH239433   8.220   6.775   3.630
13159TIP3    H139434   8.211   6.858   3.677
13159TIP3    H239435   8.314   6.771   3.608
13160TIP3   OH239436   3.880   7.716   0.415
13160TIP3    H139437   3.800   7.769   0.425
13160TIP3    H239438   3.885   7.698   0.321
13161TIP3   OH239439   7.152   1.752   2.214
13161TIP3    H139440   7.133   1.753   2.120
13161TIP3    H239441   7.125   1.838   2.245
13162TIP3   OH239442   2.583   1.470   5.670
13162TIP3    H139443   2.623   1.392   5.708
13162TIP3    H239444   2.496   1.474   5.710
13163TIP3   OH239445   5.135   1.933   5.901
13163TIP3    H139446   5.150   1.895   5.815
13163TIP3    H239447   5.041   1.921   5.917
13164TIP3   OH239448   1.309   4.246   1.177
13164TIP3    H139449   1.327   4.276   1.087
13164TIP3    H239450   1.312   4.150   1.171
13165TIP3   OH239451   3.461   2.523   2.941
13165TIP3    H139452   3.381   2.487   2.980
13165TIP3    H239453   3.527   2.455   2.953
13166TIP3   OH239454   5.158   6.284   5.985
13166TIP3    H139455   5.219   6.307   6.055
13166TIP3    H239456   5.154   6.362   5.930
13167TIP3   OH239457   3.408   4.717   1.233
13167TIP3    H139458   3.452   4.707   1.148
13167TIP3    H239459   3.386   4.628   1.259
13168TIP3   OH239460   5.810   2.289   6.642
13168TIP3    H139461   5.738   2.321   6.587
13168TIP3    H239462   5.834   2.363   6.696
13169TIP3   OH239463   1.978   5.697   0.369
13169TIP3    H139464   1.926   5.657   0.439
13169TIP3    H239465   1.928   5.774   0.343
13170TIP3   OH239466   7.985   4.115   6.126
13170TIP3    H139467   7.953   4.195   6.084
13170TIP3    H239468   7.949   4.118   6.214
13171TIP3   OH239469   8.300   6.522   2.258
13171TIP3    H139470   8.206   6.541   2.267
13171TIP3    H239471   8.312   6.502   2.165
13172TIP3   OH239472   1.761   3.126   1.357
13172TIP3    H139473   1.750   3.211   1.313
13172TIP3    H239474   1.754   3.147   1.450
13173TIP3   OH239475   5.763   1.453   2.504
13173TIP3    H139476   5.732   1.533   2.547
13173TIP3    H239477   5.820   1.485   2.434
13174TIP3   OH239478   1.868   2.874   6.143
13174TIP3    H139479   1.781   2.836   6.155
13174TIP3    H239480   1.868   2.952   6.198
13175TIP3   OH239481   1.568   5.244   1.430
13175TIP3    H139482   1.555   5.218   1.339
13175TIP3    H239483   1.660   5.224   1.448
13176TIP3   OH239484   6.929   2.131   0.462
13176TIP3    H139485   6.905   2.176   0.543
13176TIP3    H239486   7.023   2.144   0.454
13177TIP3   OH239487   2.115   1.853   1.284
13177TIP3    H139488   2.027   1.821   1.263
13177TIP3    H239489   2.105   1.948   1.290
13178TIP3   OH239490   0.686   1.136   6.365
13178TIP3    H139491   0.692   1.047   6.330
13178TIP3    H239492   0.712   1.192   6.293
13179TIP3   OH239493   3.535   5.032   3.202
13179TIP3    H139494   3.555   4.939   3.194
13179TIP3    H239495   3.614   5.071   3.240
13180TIP3   OH239496   2.655   4.783   5.964
13180TIP3    H139497   2.583   4.838   5.993
13180TIP3    H239498   2.621   4.694   5.968
13181TIP3   OH239499   2.740   1.602   0.741
13181TIP3    H139500   2.824   1.581   0.783
13181TIP3    H239501   2.737   1.545   0.664
13182TIP3   OH239502   0.101   6.570   3.952
13182TIP3    H139503   0.008   6.594   3.946
13182TIP3    H239504   0.111   6.495   3.893
13183TIP3   OH239505   7.314   1.319   4.133
13183TIP3    H139506   7.334   1.259   4.062
13183TIP3    H239507   7.399   1.332   4.177
13184TIP3   OH239508   1.337   2.009   1.744
13184TIP3    H139509   1.335   1.923   1.702
13184TIP3    H239510   1.430   2.024   1.763
13185TIP3   OH239511   3.700   6.750   3.629
13185TIP3    H139512   3.620   6.744   3.681
13185TIP3    H239513   3.771   6.755   3.694
13186TIP3   OH239514   6.043   4.583   3.178
13186TIP3    H139515   6.061   4.670   3.142
13186TIP3    H239516   6.091   4.523   3.121
13187TIP3   OH239517   2.361   1.066   4.899
13187TIP3    H139518   2.450   1.073   4.866
13187TIP3    H239519   2.360   1.120   4.978
13188TIP3   OH239520   7.843   1.514   6.470
13188TIP3    H139521   7.886   1.431   6.492
13188TIP3    H239522   7.803   1.498   6.385
13189TIP3   OH239523   6.860   3.937   5.977
13189TIP3    H139524   6.867   3.964   5.885
13189TIP3    H239525   6.942   3.968   6.017
13190TIP3   OH239526   0.118   7.287   1.750
13190TIP3    H139527   0.084   7.350   1.687
13190TIP3    H239528   0.174   7.340   1.807
13191TIP3   OH239529   1.807   1.539   0.341
13191TIP3    H139530   1.870   1.592   0.391
13191TIP3    H239531   1.729   1.535   0.397
13192TIP3   OH239532   0.194   5.515   2.798
13192TIP3    H139533   0.210   5.467   2.879
13192TIP3    H239534   0.098   5.525   2.795
13193TIP3   OH239535   4.136   5.137   2.528
13193TIP3    H139536   4.108   5.051   2.499
13193TIP3    H239537   4.228   5.142   2.501
13194TIP3   OH239538   4.678   4.134   0.677
13194TIP3    H139539   4.584   4.120   0.688
13194TIP3    H239540   4.716   4.046   0.684
13195TIP3   OH239541   5.777   1.247   3.036
13195TIP3    H139542   5.809   1.162   3.065
13195TIP3    H239543   5.856   1.297   3.017
13196TIP3   OH239544   2.433   3.892   5.159
13196TIP3    H139545   2.419   3.894   5.064
13196TIP3    H239546   2.366   3.831   5.192
13197TIP3   OH239547   1.205   5.170   1.684
13197TIP3    H139548   1.141   5.103   1.707
13197TIP3    H239549   1.236   5.145   1.597
13198TIP3   OH239550   2.782   7.304   5.163
13198TIP3    H139551   2.704   7.255   5.136
13198TIP3    H239552   2.797   7.278   5.254
13199TIP3   OH239553   8.301   3.661   2.235
13199TIP3    H139554   8.316   3.752   2.209
13199TIP3    H239555   8.206   3.651   2.230
13200TIP3   OH239556   5.353   1.919   6.498
13200TIP3    H139557   5.379   1.965   6.578
13200TIP3    H239558   5.418   1.946   6.432
13201TIP3   OH239559   1.786   5.251   4.066
13201TIP3    H139560   1.875   5.217   4.052
13201TIP3    H239561   1.758   5.213   4.149
13202TIP3   OH239562   4.453   2.014   4.989
13202TIP3    H139563   4.513   1.989   4.920
13202TIP3    H239564   4.395   1.939   4.999
13203TIP3   OH239565   6.735   2.490   1.464
13203TIP3    H139566   6.717   2.562   1.404
13203TIP3    H239567   6.664   2.428   1.450
13204TIP3   OH239568   0.284   0.741   1.542
13204TIP3    H139569   0.283   0.807   1.612
13204TIP3    H239570   0.256   0.660   1.584
13205TIP3   OH239571   1.926   0.657   3.200
13205TIP3    H139572   1.918   0.588   3.266
13205TIP3    H239573   1.843   0.652   3.151
13206TIP3   OH239574   1.315   4.069   3.129
13206TIP3    H139575   1.273   4.046   3.212
13206TIP3    H239576   1.249   4.120   3.082
13207TIP3   OH239577   2.905   5.351   6.332
13207TIP3    H139578   2.830   5.377   6.384
13207TIP3    H239579   2.888   5.387   6.245
13208TIP3   OH239580   8.140   3.065   5.386
13208TIP3    H139581   8.134   3.138   5.448
13208TIP3    H239582   8.063   3.012   5.405
13209TIP3   OH239583   2.092   1.987   3.603
13209TIP3    H139584   2.080   1.924   3.674
13209TIP3    H239585   2.004   2.002   3.568
13210TIP3   OH239586   4.235   1.177   1.905
13210TIP3    H139587   4.311   1.141   1.951
13210TIP3    H239588   4.237   1.136   1.819
13211TIP3   OH239589   4.593   6.798   6.445
13211TIP3    H139590   4.671   6.853   6.447
13211TIP3    H239591   4.627   6.708   6.450
13212TIP3   OH239592   7.804   6.226   1.282
13212TIP3    H139593   7.761   6.259   1.361
13212TIP3    H239594   7.837   6.305   1.239
13213TIP3   OH239595   1.169   5.337   5.499
13213TIP3    H139596   1.234   5.278   5.537
13213TIP3    H239597   1.111   5.359   5.572
13214TIP3   OH239598   6.297   3.688   1.116
13214TIP3    H139599   6.246   3.691   1.035
13214TIP3    H239600   6.295   3.596   1.142
13215TIP3   OH239601   0.789   6.210   6.094
13215TIP3    H139602   0.861   6.153   6.067
13215TIP3    H239603   0.751   6.166   6.171
13216TIP3   OH239604   4.641   7.223   2.649
13216TIP3    H139605   4.689   7.206   2.730
13216TIP3    H239606   4.683   7.300   2.611
13217TIP3   OH239607   2.431   4.932   4.984
13217TIP3    H139608   2.396   4.877   5.054
13217TIP3    H239609   2.479   5.001   5.030
13218TIP3   OH239610   6.593   6.469   2.948
13218TIP3    H139611   6.525   6.522   2.990
13218TIP3    H239612   6.550   6.430   2.872
13219TIP3   OH239613   4.797   7.423   2.534
13219TIP3    H139614   4.778   7.517   2.531
13219TIP3    H239615   4.883   7.417   2.575
13220TIP3   OH239616   5.706   2.014   6.582
13220TIP3    H139617   5.735   2.102   6.606
13220TIP3    H239618   5.677   1.975   6.665
13221TIP3   OH239619   1.118   1.304   2.980
13221TIP3    H139620   1.101   1.222   3.027
13221TIP3    H239621   1.047   1.310   2.916
13222TIP3   OH239622   7.049   2.708   0.543
13222TIP3    H139623   7.023   2.669   0.627
13222TIP3    H239624   7.016   2.647   0.477
13223TIP3   OH239625   4.226   5.264   4.714
13223TIP3    H139626   4.159   5.208   4.753
13223TIP3    H239627   4.179   5.343   4.687
13224TIP3   OH239628   2.041   1.304   2.127
13224TIP3    H139629   2.078   1.286   2.041
13224TIP3    H239630   2.084   1.242   2.185
13225TIP3   OH239631   7.872   1.372   2.993
13225TIP3    H139632   7.830   1.457   2.983
13225TIP3    H239633   7.802   1.309   2.979
13226TIP3   OH239634   7.437   4.673   6.260
13226TIP3    H139635   7.483   4.649   6.340
13226TIP3    H239636   7.376   4.600   6.245
13227TIP3   OH239637   5.294   1.257   5.469
13227TIP3    H139638   5.268   1.242   5.560
13227TIP3    H239639   5.389   1.272   5.474
13228TIP3   OH239640   7.138   4.273   2.267
13228TIP3    H139641   7.229   4.258   2.244
13228TIP3    H239642   7.092   4.278   2.183
13229TIP3   OH239643   2.117   2.122   1.223
13229TIP3    H139644   2.059   2.107   1.149
13229TIP3    H239645   2.203   2.092   1.193
13230TIP3   OH239646   1.232   6.429   3.206
13230TIP3    H139647   1.265   6.341   3.225
13230TIP3    H239648   1.188   6.421   3.122
13231TIP3   OH239649   7.312   5.036   4.334
13231TIP3    H139650   7.343   4.949   4.362
13231TIP3    H239651   7.378   5.096   4.368
13232TIP3   OH239652   0.432   5.667   3.502
13232TIP3    H139653   0.439   5.573   3.485
13232TIP3    H239654   0.367   5.698   3.439
13233TIP3   OH239655   6.811   6.064   0.772
13233TIP3    H139656   6.781   5.981   0.735
13233TIP3    H239657   6.901   6.072   0.742
13234TIP3   OH239658   5.480   4.915   4.618
13234TIP3    H139659   5.445   4.958   4.697
13234TIP3    H239660   5.515   4.831   4.650
13235TIP3   OH239661   6.303   1.697   4.431
13235TIP3    H139662   6.271   1.716   4.343
13235TIP3    H239663   6.352   1.616   4.421
13236TIP3   OH239664   1.805   4.770   5.034
13236TIP3    H139665   1.847   4.687   5.013
13236TIP3    H239666   1.858   4.835   4.988
13237TIP3   OH239667   0.949   2.256   1.321
13237TIP3    H139668   0.998   2.215   1.392
13237TIP3    H239669   0.878   2.304   1.364
13238TIP3   OH239670   3.170   2.360   4.298
13238TIP3    H139671   3.214   2.276   4.285
13238TIP3    H239672   3.152   2.363   4.392
13239TIP3   OH239673   0.871   1.608   5.199
13239TIP3    H139674   0.936   1.664   5.242
13239TIP3    H239675   0.829   1.665   5.134
13240TIP3   OH239676   1.200   1.167   3.438
13240TIP3    H139677   1.156   1.105   3.381
13240TIP3    H239678   1.134   1.233   3.458
13241TIP3   OH239679   5.962   6.455   5.243
13241TIP3    H139680   5.916   6.375   5.216
13241TIP3    H239681   5.943   6.463   5.336
13242TIP3   OH239682   5.826   4.343   4.881
13242TIP3    H139683   5.910   4.309   4.851
13242TIP3    H239684   5.830   4.437   4.866
13243TIP3   OH239685   3.854   6.110   5.911
13243TIP3    H139686   3.793   6.086   5.841
13243TIP3    H239687   3.881   6.027   5.949
13244TIP3   OH239688   2.262   3.279   4.806
13244TIP3    H139689   2.228   3.190   4.804
13244TIP3    H239690   2.351   3.272   4.771
13245TIP3   OH239691   7.378   4.460   3.946
13245TIP3    H139692   7.368   4.463   3.850
13245TIP3    H239693   7.319   4.390   3.974
13246TIP3   OH239694   3.512   6.345   4.626
13246TIP3    H139695   3.503   6.250   4.630
13246TIP3    H239696   3.477   6.370   4.540
13247TIP3   OH239697   6.635   7.105   1.627
13247TIP3    H139698   6.562   7.152   1.665
13247TIP3    H239699   6.632   7.018   1.668
13248TIP3   OH239700   7.854   6.676   1.486
13248TIP3    H139701   7.818   6.764   1.475
13248TIP3    H239702   7.809   6.641   1.563
13249TIP3   OH239703   3.498   6.360   5.022
13249TIP3    H139704   3.588   6.391   5.028
13249TIP3    H239705   3.449   6.410   5.087
13250TIP3   OH239706   1.998   7.315   0.213
13250TIP3    H139707   2.029   7.405   0.208
13250TIP3    H239708   1.983   7.299   0.306
13251TIP3   OH239709   5.709   2.423   3.895
13251TIP3    H139710   5.627   2.392   3.855
13251TIP3    H239711   5.701   2.398   3.987
13252TIP3   OH239712   1.027   3.606   3.871
13252TIP3    H139713   1.098   3.641   3.818
13252TIP3    H239714   1.044   3.512   3.875
13253TIP3   OH239715   1.949   1.679   3.220
13253TIP3    H139716   1.857   1.689   3.197
13253TIP3    H239717   1.947   1.649   3.311
13254TIP3   OH239718   7.243   2.999   1.017
13254TIP3    H139719   7.153   2.967   1.007
13254TIP3    H239720   7.247   3.028   1.109
13255TIP3   OH239721   7.081   2.950   1.849
13255TIP3    H139722   7.103   2.857   1.840
13255TIP3    H239723   7.042   2.973   1.765
13256TIP3   OH239724   5.463   0.212   4.179
13256TIP3    H139725   5.393   0.277   4.189
13256TIP3    H239726   5.444   0.169   4.096
13257TIP3   OH239727   7.979   7.530   2.606
13257TIP3    H139728   8.000   7.621   2.583
13257TIP3    H239729   7.904   7.508   2.551
13258TIP3   OH239730   5.550   0.053   2.677
13258TIP3    H139731   5.517   0.103   2.603
13258TIP3    H239732   5.472   0.027   2.725
13259TIP3   OH239733   2.771   3.713   4.322
13259TIP3    H139734   2.721   3.710   4.240
13259TIP3    H239735   2.716   3.765   4.382
13260TIP3   OH239736   4.884   6.115   1.365
13260TIP3    H139737   4.949   6.184   1.374
13260TIP3    H239738   4.932   6.034   1.382
13261TIP3   OH239739   4.000   7.058   4.367
13261TIP3    H139740   4.019   7.010   4.286
13261TIP3    H239741   3.990   7.149   4.338
13262TIP3   OH239742   0.774   6.303   5.124
13262TIP3    H139743   0.823   6.378   5.157
13262TIP3    H239744   0.684   6.335   5.115
13263TIP3   OH239745   5.723   2.687   3.090
13263TIP3    H139746   5.739   2.625   3.161
13263TIP3    H239747   5.760   2.769   3.121
13264TIP3   OH239748   0.233   2.969   2.879
13264TIP3    H139749   0.272   2.898   2.827
13264TIP3    H239750   0.289   3.045   2.861
13265TIP3   OH239751   1.651   3.777   0.233
13265TIP3    H139752   1.591   3.703   0.225
13265TIP3    H239753   1.594   3.854   0.229
13266TIP3   OH239754   5.424   5.545   2.209
13266TIP3    H139755   5.503   5.594   2.186
13266TIP3    H239756   5.415   5.558   2.304
13267TIP3   OH239757   5.689   1.521   6.288
13267TIP3    H139758   5.628   1.478   6.347
13267TIP3    H239759   5.760   1.458   6.276
13268TIP3   OH239760   2.052   4.321   6.481
13268TIP3    H139761   2.033   4.227   6.482
13268TIP3    H239762   1.971   4.361   6.514
13269TIP3   OH239763   0.137   7.503   3.372
13269TIP3    H139764   0.108   7.421   3.412
13269TIP3    H239765   0.125   7.490   3.278
13270TIP3   OH239766   6.914   1.770   5.686
13270TIP3    H139767   6.980   1.710   5.718
13270TIP3    H239768   6.838   1.715   5.666
13271TIP3   OH239769   5.865   3.183   3.719
13271TIP3    H139770   5.934   3.211   3.779
13271TIP3    H239771   5.806   3.130   3.773
13272TIP3   OH239772   7.674   3.539   1.301
13272TIP3    H139773   7.593   3.541   1.352
13272TIP3    H239774   7.663   3.609   1.236
13273TIP3   OH239775   6.187   4.051   3.597
13273TIP3    H139776   6.239   3.974   3.620
13273TIP3    H239777   6.242   4.125   3.621
13274TIP3   OH239778   3.570   1.067   3.730
13274TIP3    H139779   3.480   1.087   3.757
13274TIP3    H239780   3.597   0.996   3.787
13275TIP3   OH239781   5.208   0.073   4.312
13275TIP3    H139782   5.118   0.048   4.289
13275TIP3    H239783   5.250  -0.009   4.338
13276TIP3   OH239784   6.423   7.575   6.068
13276TIP3    H139785   6.407   7.507   6.134
13276TIP3    H239786   6.443   7.653   6.119
13277TIP3   OH239787   6.506   4.617   0.454
13277TIP3    H139788   6.596   4.638   0.482
13277TIP3    H239789   6.476   4.697   0.411
13278TIP3   OH239790   7.109   2.535   5.446
13278TIP3    H139791   7.027   2.486   5.459
13278TIP3    H239792   7.102   2.609   5.505
13279TIP3   OH239793   8.020   5.842   0.159
13279TIP3    H139794   7.936   5.800   0.173
13279TIP3    H239795   8.082   5.789   0.208
13280TIP3   OH239796   4.831   0.487   5.332
13280TIP3    H139797   4.798   0.569   5.367
13280TIP3    H239798   4.753   0.432   5.320
13281TIP3   OH239799   0.210   2.247   4.230
13281TIP3    H139800   0.191   2.161   4.193
13281TIP3    H239801   0.203   2.235   4.325
13282TIP3   OH239802   1.822   2.995   1.968
13282TIP3    H139803   1.803   3.082   2.003
13282TIP3    H239804   1.907   2.972   2.006
13283TIP3   OH239805   6.503   5.473   0.700
13283TIP3    H139806   6.476   5.440   0.614
13283TIP3    H239807   6.588   5.515   0.684
13284TIP3   OH239808   1.127   5.621   4.347
13284TIP3    H139809   1.131   5.528   4.327
13284TIP3    H239810   1.218   5.647   4.359
13285TIP3   OH239811   1.869   7.659   3.010
13285TIP3    H139812   1.836   7.572   2.986
13285TIP3    H239813   1.826   7.719   2.950
13286TIP3   OH239814   5.627   7.553   1.163
13286TIP3    H139815   5.533   7.534   1.160
13286TIP3    H239816   5.648   7.558   1.256
13287TIP3   OH239817   4.070   2.742   2.879
13287TIP3    H139818   4.073   2.647   2.884
13287TIP3    H239819   4.153   2.767   2.839
13288TIP3   OH239820   5.572   6.450   5.260
13288TIP3    H139821   5.599   6.437   5.169
13288TIP3    H239822   5.609   6.534   5.285
13289TIP3   OH239823   5.440   5.188   2.937
13289TIP3    H139824   5.424   5.104   2.980
13289TIP3    H239825   5.380   5.189   2.862
13290TIP3   OH239826   3.049   3.531   3.752
13290TIP3    H139827   3.123   3.470   3.763
13290TIP3    H239828   3.013   3.509   3.666
13291TIP3   OH239829   5.940   1.766   4.421
13291TIP3    H139830   5.891   1.778   4.501
13291TIP3    H239831   6.030   1.750   4.450
13292TIP3   OH239832   5.472   1.489   3.819
13292TIP3    H139833   5.525   1.527   3.749
13292TIP3    H239834   5.387   1.533   3.811
13293TIP3   OH239835   6.372   2.274   6.688
13293TIP3    H139836   6.293   2.277   6.743
13293TIP3    H239837   6.442   2.301   6.746
13294TIP3   OH239838   6.612   4.011   5.064
13294TIP3    H139839   6.554   3.942   5.033
13294TIP3    H239840   6.555   4.087   5.075
13295TIP3   OH239841   4.530   2.639   2.943
13295TIP3    H139842   4.623   2.616   2.953
13295TIP3    H239843   4.491   2.614   3.027
13296TIP3   OH239844   4.407   2.635   4.224
13296TIP3    H139845   4.344   2.622   4.153
13296TIP3    H239846   4.464   2.558   4.219
13297TIP3   OH239847   4.229   3.370   6.167
13297TIP3    H139848   4.185   3.343   6.086
13297TIP3    H239849   4.294   3.302   6.183
13298TIP3   OH239850   7.085   1.567   4.776
13298TIP3    H139851   7.127   1.607   4.700
13298TIP3    H239852   7.124   1.480   4.783
13299TIP3   OH239853   2.477   6.797   6.473
13299TIP3    H139854   2.550   6.859   6.472
13299TIP3    H239855   2.409   6.841   6.524
13300TIP3   OH239856   0.378   4.746   4.369
13300TIP3    H139857   0.322   4.815   4.335
13300TIP3    H239858   0.333   4.665   4.348
13301TIP3   OH239859   1.147   6.443   2.408
13301TIP3    H139860   1.196   6.524   2.420
13301TIP3    H239861   1.173   6.388   2.483
13302TIP3   OH239862   4.449   6.585   3.624
13302TIP3    H139863   4.466   6.545   3.709
13302TIP3    H239864   4.484   6.522   3.561
13303TIP3   OH239865   7.116   2.979   0.474
13303TIP3    H139866   7.085   2.892   0.500
13303TIP3    H239867   7.199   2.990   0.520
13304TIP3   OH239868   1.854   6.465   2.192
13304TIP3    H139869   1.933   6.518   2.202
13304TIP3    H239870   1.886   6.383   2.153
13305TIP3   OH239871   1.662   5.153   0.376
13305TIP3    H139872   1.587   5.184   0.427
13305TIP3    H239873   1.712   5.100   0.438
13306TIP3   OH239874   3.809   3.539   3.987
13306TIP3    H139875   3.770   3.625   4.005
13306TIP3    H239876   3.792   3.488   4.066
13307TIP3   OH239877   7.299   1.769   0.090
13307TIP3    H139878   7.321   1.820   0.012
13307TIP3    H239879   7.266   1.834   0.152
13308TIP3   OH239880   4.826   2.760   0.334
13308TIP3    H139881   4.765   2.832   0.346
13308TIP3    H239882   4.780   2.699   0.276
13309TIP3   OH239883   3.521   1.831   4.292
13309TIP3    H139884   3.462   1.886   4.344
13309TIP3    H239885   3.544   1.759   4.350
13310TIP3   OH239886   6.560   4.714   4.179
13310TIP3    H139887   6.571   4.700   4.273
13310TIP3    H239888   6.470   4.744   4.170
13311TIP3   OH239889   4.617   1.051   2.226
13311TIP3    H139890   4.591   0.964   2.259
13311TIP3    H239891   4.585   1.112   2.292
13312TIP3   OH239892   6.790   6.265   4.180
13312TIP3    H139893   6.795   6.348   4.133
13312TIP3    H239894   6.788   6.290   4.272
13313TIP3   OH239895   5.080   3.651   0.639
13313TIP3    H139896   5.158   3.685   0.681
13313TIP3    H239897   5.039   3.729   0.599
13314TIP3   OH239898   3.759   2.839   4.458
13314TIP3    H139899   3.723   2.753   4.434
13314TIP3    H239900   3.847   2.840   4.421
13315TIP3   OH239901   1.820   4.843   4.467
13315TIP3    H139902   1.856   4.782   4.531
13315TIP3    H239903   1.731   4.811   4.451
13316TIP3   OH239904   1.937   4.085   4.133
13316TIP3    H139905   1.938   4.164   4.187
13316TIP3    H239906   1.844   4.064   4.123
13317TIP3   OH239907   4.179   7.544   0.015
13317TIP3    H139908   4.100   7.490   0.011
13317TIP3    H239909   4.150   7.625   0.057
13318TIP3   OH239910   4.117   4.752   4.987
13318TIP3    H139911   4.180   4.680   4.980
13318TIP3    H239912   4.097   4.757   5.080
13319TIP3   OH239913   0.090   2.720   6.548
13319TIP3    H139914  -0.001   2.709   6.575
13319TIP3    H239915   0.089   2.699   6.455
13320TIP3   OH239916   7.320   7.757   1.546
13320TIP3    H139917   7.374   7.709   1.483
13320TIP3    H239918   7.357   7.735   1.632
13321TIP3   OH239919   8.031   2.086   6.408
13321TIP3    H139920   8.111   2.109   6.360
13321TIP3    H239921   7.968   2.155   6.385
13322TIP3   OH239922   5.970   2.620   4.709
13322TIP3    H139923   6.014   2.655   4.631
13322TIP3    H239924   5.878   2.609   4.682
13323TIP3   OH239925   4.002   6.053   6.405
13323TIP3    H139926   3.984   5.971   6.361
13323TIP3    H239927   4.028   6.028   6.493
13324TIP3   OH239928   0.914   6.714   0.246
13324TIP3    H139929   0.986   6.665   0.287
13324TIP3    H239930   0.946   6.735   0.158
13325TIP3   OH239931   7.214   4.145   5.095
13325TIP3    H139932   7.141   4.120   5.039
13325TIP3    H239933   7.289   4.098   5.058
13326TIP3   OH239934   4.122   3.220   0.378
13326TIP3    H139935   4.213   3.201   0.355
13326TIP3    H239936   4.071   3.161   0.323
13327TIP3   OH239937   3.891   4.815   3.845
13327TIP3    H139938   3.878   4.767   3.763
13327TIP3    H239939   3.910   4.905   3.817
13328TIP3   OH239940   1.823   6.144   4.039
13328TIP3    H139941   1.738   6.174   4.005
13328TIP3    H239942   1.887   6.199   3.994
13329TIP3   OH239943   8.158   7.683   1.703
13329TIP3    H139944   8.173   7.777   1.705
13329TIP3    H239945   8.106   7.665   1.781
13330TIP3   OH239946   3.030   0.203   6.121
13330TIP3    H139947   3.070   0.142   6.184
13330TIP3    H239948   2.954   0.155   6.087
13331TIP3   OH239949   2.752   3.934   2.685
13331TIP3    H139950   2.766   3.987   2.763
13331TIP3    H239951   2.745   3.997   2.614
13332TIP3   OH239952   2.631   4.881   1.743
13332TIP3    H139953   2.573   4.911   1.673
13332TIP3    H239954   2.716   4.870   1.701
13333TIP3   OH239955   0.621   4.579   4.732
13333TIP3    H139956   0.614   4.549   4.822
13333TIP3    H239957   0.565   4.657   4.728
13334TIP3   OH239958   1.329   4.714   0.699
13334TIP3    H139959   1.308   4.799   0.662
13334TIP3    H239960   1.328   4.727   0.794
13335TIP3   OH239961   5.628   6.776   5.264
13335TIP3    H139962   5.643   6.774   5.170
13335TIP3    H239963   5.713   6.799   5.301
13336TIP3   OH239964   4.417   4.323   2.141
13336TIP3    H139965   4.456   4.409   2.152
13336TIP3    H239966   4.473   4.264   2.191
13337TIP3   OH239967   4.799   1.088   6.238
13337TIP3    H139968   4.729   1.064   6.298
13337TIP3    H239969   4.863   1.017   6.247
13338TIP3   OH239970   8.194   7.837   1.353
13338TIP3    H139971   8.147   7.764   1.394
13338TIP3    H239972   8.250   7.796   1.287
13339TIP3   OH239973   6.105   6.216   1.115
13339TIP3    H139974   6.159   6.202   1.037
13339TIP3    H239975   6.106   6.132   1.161
13340TIP3   OH239976   0.936   5.754   4.206
13340TIP3    H139977   0.988   5.691   4.256
13340TIP3    H239978   0.947   5.728   4.115
13341TIP3   OH239979   6.406   5.450   5.358
13341TIP3    H139980   6.481   5.430   5.414
13341TIP3    H239981   6.404   5.546   5.353
13342TIP3   OH239982   3.058   6.817   1.112
13342TIP3    H139983   3.099   6.759   1.048
13342TIP3    H239984   3.102   6.797   1.195
13343TIP3   OH239985   6.742   7.131   3.521
13343TIP3    H139986   6.779   7.100   3.604
13343TIP3    H239987   6.702   7.216   3.543
13344TIP3   OH239988   6.843   2.881   6.333
13344TIP3    H139989   6.843   2.833   6.415
13344TIP3    H239990   6.826   2.815   6.266
13345TIP3   OH239991   2.089   0.229   4.994
13345TIP3    H139992   2.000   0.259   5.011
13345TIP3    H239993   2.115   0.183   5.074
13346TIP3   OH239994   5.468   4.849   4.894
13346TIP3    H139995   5.511   4.882   4.973
13346TIP3    H239996   5.441   4.760   4.917
13347TIP3   OH239997   4.383   0.988   3.399
13347TIP3    H139998   4.467   1.030   3.382
13347TIP3    H239999   4.322   1.033   3.342
13348TIP3   OH240000   1.693   5.955   5.420
13348TIP3    H140001   1.685   5.986   5.510
13348TIP3    H240002   1.787   5.944   5.406
13349TIP3   OH240003   3.777   1.927   3.166
13349TIP3    H140004   3.724   1.985   3.111
13349TIP3    H240005   3.776   1.843   3.120
13350TIP3   OH240006   1.800   1.382   2.855
13350TIP3    H140007   1.862   1.349   2.920
13350TIP3    H240008   1.714   1.370   2.895
13351TIP3   OH240009   1.717   1.734   2.035
13351TIP3    H140010   1.737   1.640   2.032
13351TIP3    H240011   1.793   1.773   2.078
13352TIP3   OH240012   7.779   1.145   1.850
13352TIP3    H140013   7.748   1.067   1.803
13352TIP3    H240014   7.868   1.124   1.875
13353TIP3   OH240015   3.524   5.813   0.377
13353TIP3    H140016   3.496   5.746   0.439
13353TIP3    H240017   3.555   5.885   0.432
13354TIP3   OH240018   4.932   4.544   2.333
13354TIP3    H140019   4.836   4.550   2.339
13354TIP3    H240020   4.960   4.536   2.424
13355TIP3   OH240021   1.195   2.216   0.646
13355TIP3    H140022   1.105   2.192   0.626
13355TIP3    H240023   1.248   2.155   0.595
13356TIP3   OH240024   1.823   0.914   5.982
13356TIP3    H140025   1.817   0.832   5.933
13356TIP3    H240026   1.768   0.899   6.059
13357TIP3   OH240027   3.535   2.629   5.353
13357TIP3    H140028   3.490   2.558   5.399
13357TIP3    H240029   3.619   2.592   5.329
13358TIP3   OH240030   2.470   6.856   1.991
13358TIP3    H140031   2.412   6.808   1.933
13358TIP3    H240032   2.527   6.906   1.933
13359TIP3   OH240033   5.769   5.138   4.514
13359TIP3    H140034   5.810   5.053   4.495
13359TIP3    H240035   5.759   5.138   4.609
13360TIP3   OH240036   6.750   2.781   0.551
13360TIP3    H140037   6.708   2.772   0.466
13360TIP3    H240038   6.690   2.738   0.612
13361TIP3   OH240039   6.278   0.772   6.356
13361TIP3    H140040   6.326   0.743   6.434
13361TIP3    H240041   6.281   0.868   6.362
13362TIP3   OH240042   2.794   1.949   6.206
13362TIP3    H140043   2.868   1.926   6.149
13362TIP3    H240044   2.826   2.023   6.258
13363TIP3   OH240045   5.594   0.498   5.684
13363TIP3    H140046   5.666   0.445   5.719
13363TIP3    H240047   5.556   0.443   5.615
13364TIP3   OH240048   6.209   5.791   6.729
13364TIP3    H140049   6.185   5.709   6.686
13364TIP3    H240050   6.265   5.836   6.666
13365TIP3   OH240051   5.611   6.277   5.470
13365TIP3    H140052   5.594   6.336   5.543
13365TIP3    H240053   5.599   6.331   5.392
13366TIP3   OH240054   7.532   2.998   3.034
13366TIP3    H140055   7.615   2.981   3.078
13366TIP3    H240056   7.499   3.078   3.073
13367TIP3   OH240057   1.531   4.050   5.460
13367TIP3    H140058   1.558   4.050   5.551
13367TIP3    H240059   1.551   3.962   5.429
13368TIP3   OH240060   4.970   2.739   2.443
13368TIP3    H140061   4.877   2.760   2.435
13368TIP3    H240062   4.973   2.673   2.512
13369TIP3   OH240063   0.228   5.389   4.479
13369TIP3    H140064   0.155   5.434   4.438
13369TIP3    H240065   0.297   5.455   4.484
13370TIP3   OH240066   6.727   2.739   1.654
13370TIP3    H140067   6.666   2.717   1.584
13370TIP3    H240068   6.811   2.753   1.610
13371TIP3   OH240069   7.266   2.631   1.946
13371TIP3    H140070   7.354   2.637   1.984
13371TIP3    H240071   7.275   2.667   1.858
13372TIP3   OH240072   4.071   6.962   5.986
13372TIP3    H140073   4.103   7.001   6.068
13372TIP3    H240074   4.102   6.872   5.988
13373TIP3   OH240075   5.296   4.803   1.551
13373TIP3    H140076   5.222   4.744   1.540
13373TIP3    H240077   5.342   4.771   1.629
13374TIP3   OH240078   0.735   7.746   1.469
13374TIP3    H140079   0.809   7.708   1.424
13374TIP3    H240080   0.705   7.678   1.529
13375TIP3   OH240081   7.832   2.500   3.465
13375TIP3    H140082   7.924   2.497   3.438
13375TIP3    H240083   7.801   2.586   3.435
13376TIP3   OH240084   0.086   1.305   5.047
13376TIP3    H140085   0.032   1.227   5.034
13376TIP3    H240086   0.171   1.271   5.077
13377TIP3   OH240087   3.237   2.595   1.773
13377TIP3    H140088   3.304   2.591   1.842
13377TIP3    H240089   3.287   2.608   1.692
13378TIP3   OH240090   4.168   2.279   6.069
13378TIP3    H140091   4.205   2.355   6.024
13378TIP3    H240092   4.241   2.243   6.119
13379TIP3   OH240093   7.360   1.003   3.085
13379TIP3    H140094   7.357   1.057   3.164
13379TIP3    H240095   7.353   1.065   3.012
13380TIP3   OH240096   0.230   0.845   6.073
13380TIP3    H140097   0.189   0.931   6.084
13380TIP3    H240098   0.264   0.824   6.160
13381TIP3   OH240099   1.203   6.513   3.461
13381TIP3    H140100   1.204   6.437   3.519
13381TIP3    H240101   1.189   6.477   3.373
13382TIP3   OH240102   4.025   5.749   4.616
13382TIP3    H140103   4.059   5.825   4.662
13382TIP3    H240104   3.983   5.785   4.538
13383TIP3   OH240105   2.358   1.061   4.091
13383TIP3    H140106   2.444   1.023   4.072
13383TIP3    H240107   2.295   0.995   4.062
13384TIP3   OH240108   3.767   4.187   1.639
13384TIP3    H140109   3.748   4.136   1.718
13384TIP3    H240110   3.794   4.273   1.672
13385TIP3   OH240111   4.651   2.084   6.157
13385TIP3    H140112   4.642   1.995   6.193
13385TIP3    H240113   4.569   2.127   6.179
13386TIP3   OH240114   2.713   6.273   6.157
13386TIP3    H140115   2.787   6.310   6.108
13386TIP3    H240116   2.639   6.280   6.098
13387TIP3   OH240117   5.943   3.685   5.927
13387TIP3    H140118   5.882   3.657   5.996
13387TIP3    H240119   5.906   3.649   5.847
13388TIP3   OH240120   7.407   0.481   4.091
13388TIP3    H140121   7.349   0.522   4.156
13388TIP3    H240122   7.484   0.537   4.088
13389TIP3   OH240123   1.042   0.154   5.489
13389TIP3    H140124   1.027   0.193   5.402
13389TIP3    H240125   1.079   0.068   5.470
13390TIP3   OH240126   6.577   2.631   6.294
13390TIP3    H140127   6.668   2.628   6.322
13390TIP3    H240128   6.528   2.647   6.375
13391TIP3   OH240129   1.488   0.097   2.798
13391TIP3    H140130   1.482   0.175   2.742
13391TIP3    H240131   1.417   0.040   2.767
13392TIP3   OH240132   7.880   3.535   3.295
13392TIP3    H140133   7.838   3.532   3.209
13392TIP3    H240134   7.954   3.475   3.288
13393TIP3   OH240135   0.428   0.295   6.321
13393TIP3    H140136   0.402   0.295   6.229
13393TIP3    H240137   0.428   0.203   6.346
13394TIP3   OH240138   2.888   7.600   2.084
13394TIP3    H140139   2.959   7.536   2.082
13394TIP3    H240140   2.894   7.646   2.000
13395TIP3   OH240141   7.279   4.061   6.619
13395TIP3    H140142   7.190   4.024   6.621
13395TIP3    H240143   7.266   4.155   6.618
13396TIP3   OH240144   0.923   7.345   1.797
13396TIP3    H140145   0.932   7.319   1.888
13396TIP3    H240146   0.852   7.291   1.763
13397TIP3   OH240147   3.150   6.591   5.856
13397TIP3    H140148   3.237   6.607   5.819
13397TIP3    H240149   3.166   6.535   5.932
13398TIP3   OH240150   5.236   4.965   2.190
13398TIP3    H140151   5.192   5.032   2.137
13398TIP3    H240152   5.329   4.974   2.169
13399TIP3   OH240153   0.834   2.613   1.855
13399TIP3    H140154   0.917   2.659   1.871
13399TIP3    H240155   0.847   2.570   1.770
13400TIP3   OH240156   4.489   3.387   1.254
13400TIP3    H140157   4.551   3.335   1.202
13400TIP3    H240158   4.529   3.474   1.259
13401TIP3   OH240159   6.191   3.591   0.320
13401TIP3    H140160   6.266   3.536   0.342
13401TIP3    H240161   6.229   3.678   0.305
13402TIP3   OH240162   4.133   1.849   2.968
13402TIP3    H140163   4.195   1.920   2.953
13402TIP3    H240164   4.186   1.769   2.963
13403TIP3   OH240165   4.918   3.739   4.909
13403TIP3    H140166   4.979   3.703   4.974
13403TIP3    H240167   4.859   3.666   4.890
13404TIP3   OH240168   2.190   0.175   3.642
13404TIP3    H140169   2.203   0.228   3.720
13404TIP3    H240170   2.191   0.238   3.570
13405TIP3   OH240171   7.121   1.581   6.037
13405TIP3    H140172   7.180   1.534   6.097
13405TIP3    H240173   7.058   1.624   6.094
13406TIP3   OH240174   2.134   5.200   5.894
13406TIP3    H140175   2.072   5.128   5.908
13406TIP3    H240176   2.210   5.159   5.854
13407TIP3   OH240177   6.658   2.093   5.383
13407TIP3    H140178   6.626   2.124   5.298
13407TIP3    H240179   6.696   2.007   5.364
13408TIP3   OH240180   2.130   6.417   1.457
13408TIP3    H140181   2.097   6.433   1.368
13408TIP3    H240182   2.087   6.337   1.485
13409TIP3   OH240183   3.476   2.867   6.425
13409TIP3    H140184   3.436   2.864   6.512
13409TIP3    H240185   3.443   2.948   6.387
13410TIP3   OH240186   0.767   2.596   4.274
13410TIP3    H140187   0.826   2.616   4.201
13410TIP3    H240188   0.743   2.681   4.309
13411TIP3   OH240189   3.959   0.004   4.275
13411TIP3    H140190   3.923   0.021   4.362
13411TIP3    H240191   3.941   0.083   4.225
13412TIP3   OH240192   3.057   1.194   5.330
13412TIP3    H140193   3.147   1.225   5.324
13412TIP3    H240194   3.063   1.099   5.326
13413TIP3   OH240195   3.312   0.098   1.404
13413TIP3    H140196   3.377   0.041   1.446
13413TIP3    H240197   3.228   0.064   1.433
13414TIP3   OH240198   0.895   4.255   0.473
13414TIP3    H140199   0.858   4.170   0.496
13414TIP3    H240200   0.844   4.318   0.523
13415TIP3   OH240201   1.659   6.088   0.060
13415TIP3    H140202   1.728   6.060   0.001
13415TIP3    H240203   1.612   6.008   0.082
13416TIP3   OH240204   7.351   7.415   6.294
13416TIP3    H140205   7.321   7.473   6.364
13416TIP3    H240206   7.304   7.333   6.308
13417TIP3   OH240207   5.376   3.317   1.424
13417TIP3    H140208   5.457   3.300   1.472
13417TIP3    H240209   5.388   3.406   1.390
13418TIP3   OH240210   2.657   4.531   2.017
13418TIP3    H140211   2.599   4.591   1.970
13418TIP3    H240212   2.609   4.510   2.097
13419TIP3   OH240213   3.810   3.660   5.478
13419TIP3    H140214   3.839   3.700   5.560
13419TIP3    H240215   3.792   3.569   5.500
13420TIP3   OH240216   7.946   1.473   4.843
13420TIP3    H140217   7.927   1.558   4.804
13420TIP3    H240218   7.861   1.441   4.874
13421TIP3   OH240219   4.234   1.068   1.319
13421TIP3    H140220   4.174   1.013   1.369
13421TIP3    H240221   4.220   1.156   1.352
13422TIP3   OH240222   4.714   5.242   0.468
13422TIP3    H140223   4.683   5.152   0.476
13422TIP3    H240224   4.649   5.294   0.517
13423TIP3   OH240225   8.005   5.579   5.447
13423TIP3    H140226   8.094   5.587   5.413
13423TIP3    H240227   7.950   5.621   5.381
13424TIP3   OH240228   2.894   5.376   2.829
13424TIP3    H140229   2.876   5.470   2.838
13424TIP3    H240230   2.898   5.361   2.735
13425TIP3   OH240231   2.055   6.036   0.057
13425TIP3    H140232   2.134   6.028   0.110
13425TIP3    H240233   2.070   6.112   0.002
13426TIP3   OH240234   6.570   1.098   0.203
13426TIP3    H140235   6.528   1.012   0.200
13426TIP3    H240236   6.595   1.115   0.112
13427TIP3   OH240237   0.865   7.705   4.490
13427TIP3    H140238   0.844   7.798   4.494
13427TIP3    H240239   0.881   7.687   4.397
13428TIP3   OH240240   4.642   1.948   5.288
13428TIP3    H140241   4.648   2.028   5.339
13428TIP3    H240242   4.553   1.916   5.304
13429TIP3   OH240243   5.704   2.699   4.586
13429TIP3    H140244   5.701   2.788   4.550
13429TIP3    H240245   5.612   2.675   4.597
13430TIP3   OH240246   1.361   6.706   1.095
13430TIP3    H140247   1.293   6.661   1.146
13430TIP3    H240248   1.395   6.773   1.155
13431TIP3   OH240249   7.847   4.246   1.346
13431TIP3    H140250   7.764   4.268   1.388
13431TIP3    H240251   7.872   4.326   1.301
13432TIP3   OH240252   7.519   4.358   1.376
13432TIP3    H140253   7.538   4.415   1.450
13432TIP3    H240254   7.445   4.304   1.405
13433TIP3   OH240255   1.494   1.912   2.071
13433TIP3    H140256   1.417   1.961   2.101
13433TIP3    H240257   1.567   1.950   2.119
13434TIP3   OH240258   2.993   1.731   3.787
13434TIP3    H140259   3.053   1.776   3.728
13434TIP3    H240260   3.049   1.697   3.857
13435TIP3   OH240261   1.017   3.337   3.807
13435TIP3    H140262   1.034   3.288   3.727
13435TIP3    H240263   1.013   3.271   3.876
13436TIP3   OH240264   5.246   7.120   6.138
13436TIP3    H140265   5.153   7.142   6.136
13436TIP3    H240266   5.270   7.125   6.230
13437TIP3   OH240267   1.059   1.890   5.109
13437TIP3    H140268   1.050   1.830   5.183
13437TIP3    H240269   0.978   1.940   5.108
13438TIP3   OH240270   0.771   1.240   6.124
13438TIP3    H140271   0.741   1.323   6.086
13438TIP3    H240272   0.707   1.175   6.094
13439TIP3   OH240273   4.284   4.002   4.231
13439TIP3    H140274   4.241   4.049   4.159
13439TIP3    H240275   4.258   3.911   4.219
13440TIP3   OH240276   7.503   2.071   2.756
13440TIP3    H140277   7.565   2.075   2.683
13440TIP3    H240278   7.520   2.151   2.806
13441TIP3   OH240279   7.225   1.310   1.119
13441TIP3    H140280   7.222   1.380   1.053
13441TIP3    H240281   7.180   1.237   1.078
13442TIP3   OH240282   7.700   3.525   3.526
13442TIP3    H140283   7.766   3.510   3.458
13442TIP3    H240284   7.647   3.597   3.493
13443TIP3   OH240285   3.336   1.752   4.996
13443TIP3    H140286   3.270   1.793   4.940
13443TIP3    H240287   3.315   1.782   5.084
13444TIP3   OH240288   5.034   5.962   1.528
13444TIP3    H140289   5.095   5.891   1.551
13444TIP3    H240290   4.965   5.956   1.594
13445TIP3   OH240291   0.927   3.209   1.633
13445TIP3    H140292   0.862   3.141   1.649
13445TIP3    H240293   0.927   3.261   1.713
13446TIP3   OH240294   6.009   0.862   6.561
13446TIP3    H140295   6.045   0.819   6.484
13446TIP3    H240296   6.067   0.836   6.633
13447TIP3   OH240297   1.999   7.792   0.644
13447TIP3    H140298   1.942   7.765   0.716
13447TIP3    H240299   2.085   7.804   0.684
13448TIP3   OH240300   4.842   2.594   4.670
13448TIP3    H140301   4.914   2.613   4.610
13448TIP3    H240302   4.882   2.589   4.757
13449TIP3   OH240303   0.751   5.500   0.221
13449TIP3    H140304   0.759   5.595   0.212
13449TIP3    H240305   0.738   5.469   0.131
13450TIP3   OH240306   4.689   7.185   2.976
13450TIP3    H140307   4.659   7.150   3.060
13450TIP3    H240308   4.663   7.277   2.977
13451TIP3   OH240309   1.906   4.250   1.868
13451TIP3    H140310   1.983   4.295   1.904
13451TIP3    H240311   1.851   4.320   1.833
13452TIP3   OH240312   2.211   3.318   0.792
13452TIP3    H140313   2.269   3.314   0.716
13452TIP3    H240314   2.151   3.244   0.780
13453TIP3   OH240315   7.574   2.680   6.446
13453TIP3    H140316   7.599   2.754   6.390
13453TIP3    H240317   7.553   2.721   6.530
13454TIP3   OH240318   6.608   0.217   5.926
13454TIP3    H140319   6.602   0.299   5.875
13454TIP3    H240320   6.517   0.188   5.934
13455TIP3   OH240321   2.873   4.355   0.473
13455TIP3    H140322   2.848   4.408   0.397
13455TIP3    H240323   2.968   4.366   0.480
13456TIP3   OH240324   3.991   5.804   0.729
13456TIP3    H140325   3.951   5.891   0.729
13456TIP3    H240326   4.031   5.796   0.643
13457TIP3   OH240327   3.056   5.234   4.643
13457TIP3    H140328   2.989   5.180   4.601
13457TIP3    H240329   3.126   5.240   4.578
13458TIP3   OH240330   4.161   2.858   3.547
13458TIP3    H140331   4.112   2.931   3.510
13458TIP3    H240332   4.096   2.790   3.562
13459TIP3   OH240333   3.946   0.223   6.343
13459TIP3    H140334   4.028   0.251   6.383
13459TIP3    H240335   3.905   0.167   6.408
13460TIP3   OH240336   2.256   7.426   0.159
13460TIP3    H140337   2.247   7.360   0.228
13460TIP3    H240338   2.304   7.382   0.089
13461TIP3   OH240339   1.845   6.812   4.326
13461TIP3    H140340   1.826   6.838   4.236
13461TIP3    H240341   1.763   6.826   4.373
13462TIP3   OH240342   7.506   5.876   5.305
13462TIP3    H140343   7.555   5.818   5.247
13462TIP3    H240344   7.521   5.840   5.393
13463TIP3   OH240345   0.320   5.420   5.262
13463TIP3    H140346   0.250   5.473   5.225
13463TIP3    H240347   0.283   5.332   5.269
13464TIP3   OH240348   7.390   1.644   3.025
13464TIP3    H140349   7.368   1.737   3.023
13464TIP3    H240350   7.375   1.618   3.116
13465TIP3   OH240351   1.692   6.527   3.015
13465TIP3    H140352   1.745   6.464   2.967
13465TIP3    H240353   1.657   6.477   3.090
13466TIP3   OH240354   0.021   0.206  -0.002
13466TIP3    H140355   0.043   0.245   0.083
13466TIP3    H240356  -0.041   0.137   0.019
13467TIP3   OH240357   2.812   5.286   1.859
13467TIP3    H140358   2.745   5.332   1.909
13467TIP3    H240359   2.794   5.193   1.873
13468TIP3   OH240360   3.468   7.627   1.643
13468TIP3    H140361   3.523   7.607   1.719
13468TIP3    H240362   3.412   7.550   1.634
13469TIP3   OH240363   6.574   0.056   2.222
13469TIP3    H140364   6.513  -0.017   2.218
13469TIP3    H240365   6.661   0.015   2.220
13470TIP3   OH240366   6.181   0.250   3.411
13470TIP3    H140367   6.152   0.224   3.498
13470TIP3    H240368   6.106   0.231   3.354
13471TIP3   OH240369   6.692   5.519   5.152
13471TIP3    H140370   6.610   5.476   5.178
13471TIP3    H240371   6.740   5.452   5.104
13472TIP3   OH240372   6.937   5.458   5.365
13472TIP3    H140373   6.906   5.542   5.333
13472TIP3    H240374   6.955   5.473   5.458
13473TIP3   OH240375   0.998   1.531   6.123
13473TIP3    H140376   0.975   1.609   6.073
13473TIP3    H240377   0.934   1.529   6.194
13474TIP3   OH240378   5.710   1.164   3.392
13474TIP3    H140379   5.625   1.173   3.348
13474TIP3    H240380   5.724   1.070   3.399
13475TIP3   OH240381   3.048   2.219   2.473
13475TIP3    H140382   3.131   2.190   2.434
13475TIP3    H240383   3.051   2.186   2.562
13476TIP3   OH240384   1.585   3.244   0.751
13476TIP3    H140385   1.535   3.233   0.670
13476TIP3    H240386   1.520   3.237   0.821
13477TIP3   OH240387   6.760   7.000   6.333
13477TIP3    H140388   6.846   6.957   6.336
13477TIP3    H240389   6.727   6.991   6.422
13478TIP3   OH240390   8.083   1.360   1.335
13478TIP3    H140391   8.076   1.292   1.402
13478TIP3    H240392   8.129   1.432   1.378
13479TIP3   OH240393   3.071   4.056   4.324
13479TIP3    H140394   3.024   3.975   4.345
13479TIP3    H240395   3.004   4.124   4.326
13480TIP3   OH240396   5.629   6.787   0.537
13480TIP3    H140397   5.663   6.855   0.595
13480TIP3    H240398   5.701   6.770   0.475
13481TIP3   OH240399   5.177   5.373   2.461
13481TIP3    H140400   5.106   5.309   2.468
13481TIP3    H240401   5.226   5.346   2.383
13482TIP3   OH240402   2.271   5.263   2.737
13482TIP3    H140403   2.202   5.299   2.682
13482TIP3    H240404   2.324   5.339   2.763
13483TIP3   OH240405   7.997   2.716   6.262
13483TIP3    H140406   7.949   2.781   6.313
13483TIP3    H240407   8.033   2.764   6.188
13484TIP3   OH240408   2.868   6.121   1.857
13484TIP3    H140409   2.781   6.144   1.891
13484TIP3    H240410   2.928   6.179   1.905
13485TIP3   OH240411   5.587   4.705   1.869
13485TIP3    H140412   5.502   4.749   1.868
13485TIP3    H240413   5.576   4.629   1.812
13486TIP3   OH240414   4.634   6.040   5.942
13486TIP3    H140415   4.546   6.078   5.934
13486TIP3    H240416   4.665   6.033   5.852
13487TIP3   OH240417   8.243   7.013   3.783
13487TIP3    H140418   8.207   7.076   3.721
13487TIP3    H240419   8.333   7.043   3.799
13488TIP3   OH240420   5.766   4.656   4.228
13488TIP3    H140421   5.853   4.640   4.264
13488TIP3    H240422   5.722   4.572   4.232
13489TIP3   OH240423   3.632   0.225   5.475
13489TIP3    H140424   3.726   0.215   5.488
13489TIP3    H240425   3.608   0.154   5.415
13490TIP3   OH240426   1.443   7.099   5.259
13490TIP3    H140427   1.410   7.089   5.349
13490TIP3    H240428   1.376   7.057   5.205
13491TIP3   OH240429   1.327   1.941   5.038
13491TIP3    H140430   1.240   1.933   5.075
13491TIP3    H240431   1.338   2.035   5.022
13492TIP3   OH240432   6.260   6.749   0.450
13492TIP3    H140433   6.176   6.736   0.493
13492TIP3    H240434   6.324   6.706   0.507
13493TIP3   OH240435   2.017   1.245   4.241
13493TIP3    H140436   1.959   1.311   4.202
13493TIP3    H240437   1.973   1.220   4.322
13494TIP3   OH240438   3.854   0.856   0.434
13494TIP3    H140439   3.793   0.920   0.399
13494TIP3    H240440   3.801   0.803   0.495
13495TIP3   OH240441   2.131   3.395   5.077
13495TIP3    H140442   2.129   3.387   4.981
13495TIP3    H240443   2.150   3.306   5.108
13496TIP3   OH240444   4.776   4.717   3.919
13496TIP3    H140445   4.836   4.772   3.969
13496TIP3    H240446   4.782   4.751   3.829
13497TIP3   OH240447   1.146   2.468   3.099
13497TIP3    H140448   1.205   2.496   3.029
13497TIP3    H240449   1.136   2.374   3.087
13498TIP3   OH240450   5.366   6.636   6.296
13498TIP3    H140451   5.313   6.598   6.226
13498TIP3    H240452   5.439   6.575   6.307
13499TIP3   OH240453   5.901   3.818   4.939
13499TIP3    H140454   5.814   3.856   4.953
13499TIP3    H240455   5.887   3.752   4.871
13500TIP3   OH240456   6.918   4.028   5.696
13500TIP3    H140457   6.832   4.011   5.658
13500TIP3    H240458   6.979   4.019   5.623
13501TIP3   OH240459   4.210   6.049   3.821
13501TIP3    H140460   4.138   6.112   3.823
13501TIP3    H240461   4.172   5.970   3.781
13502TIP3   OH240462   2.632   2.985   3.005
13502TIP3    H140463   2.614   3.050   2.938
13502TIP3    H240464   2.560   2.993   3.067
13503TIP3   OH240465   5.925   3.994   5.151
13503TIP3    H140466   5.937   3.911   5.105
13503TIP3    H240467   5.988   4.053   5.111
13504TIP3   OH240468   0.385   1.058   6.497
13504TIP3    H140469   0.428   1.071   6.412
13504TIP3    H240470   0.326   1.133   6.506
13505TIP3   OH240471   4.214   5.408   6.148
13505TIP3    H140472   4.181   5.338   6.205
13505TIP3    H240473   4.153   5.409   6.074
13506TIP3   OH240474   2.055   5.371   2.616
13506TIP3    H140475   2.004   5.360   2.536
13506TIP3    H240476   1.994   5.347   2.686
13507TIP3   OH240477   5.066   2.795   3.009
13507TIP3    H140478   5.038   2.886   3.006
13507TIP3    H240479   5.013   2.755   3.078
13508TIP3   OH240480   1.877   4.187   1.215
13508TIP3    H140481   1.895   4.260   1.274
13508TIP3    H240482   1.816   4.222   1.150
13509TIP3   OH240483   2.159   4.734   6.088
13509TIP3    H140484   2.168   4.673   6.162
13509TIP3    H240485   2.221   4.702   6.023
13510TIP3   OH240486   3.457   6.539   4.807
13510TIP3    H140487   3.542   6.559   4.846
13510TIP3    H240488   3.474   6.464   4.751
13511TIP3   OH240489   8.012   4.002   4.852
13511TIP3    H140490   8.070   4.003   4.776
13511TIP3    H240491   8.067   4.029   4.925
13512TIP3   OH240492   1.201   7.198   2.348
13512TIP3    H140493   1.165   7.116   2.314
13512TIP3    H240494   1.234   7.243   2.270
13513TIP3   OH240495   3.874   6.837   3.835
13513TIP3    H140496   3.849   6.920   3.794
13513TIP3    H240497   3.969   6.841   3.840
13514TIP3   OH240498   0.814   5.337   6.752
13514TIP3    H140499   0.828   5.390   6.831
13514TIP3    H240500   0.773   5.397   6.690
13515TIP3   OH240501   3.744   3.836   3.975
13515TIP3    H140502   3.720   3.901   3.909
13515TIP3    H240503   3.660   3.794   3.998
13516TIP3   OH240504   2.379   7.868   5.409
13516TIP3    H140505   2.444   7.810   5.368
13516TIP3    H240506   2.414   7.885   5.497
13517TIP3   OH240507   3.397   1.089   0.726
13517TIP3    H140508   3.404   1.043   0.810
13517TIP3    H240509   3.336   1.161   0.743
13518TIP3   OH240510   4.619   3.799   6.543
13518TIP3    H140511   4.653   3.712   6.561
13518TIP3    H240512   4.692   3.858   6.561
13519TIP3   OH240513   2.949   4.752   3.611
13519TIP3    H140514   2.908   4.838   3.605
13519TIP3    H240515   3.022   4.764   3.672
13520TIP3   OH240516   3.972   7.026   0.619
13520TIP3    H140517   4.007   7.022   0.708
13520TIP3    H240518   3.890   6.977   0.624
13521TIP3   OH240519   2.620   4.973   4.723
13521TIP3    H140520   2.573   5.049   4.757
13521TIP3    H240521   2.569   4.944   4.647
13522TIP3   OH240522   0.904   1.328   1.079
13522TIP3    H140523   0.868   1.253   1.032
13522TIP3    H240524   0.864   1.404   1.037
13523TIP3   OH240525   1.471   4.326   5.112
13523TIP3    H140526   1.563   4.312   5.093
13523TIP3    H240527   1.467   4.414   5.149
13524TIP3   OH240528   2.468   6.249   4.040
13524TIP3    H140529   2.468   6.317   4.108
13524TIP3    H240530   2.466   6.167   4.089
13525TIP3   OH240531   6.733   3.393   3.125
13525TIP3    H140532   6.763   3.480   3.098
13525TIP3    H240533   6.746   3.338   3.048
13526TIP3   OH240534   8.030   5.488   3.016
13526TIP3    H140535   8.094   5.544   3.061
13526TIP3    H240536   8.072   5.468   2.932
13527TIP3   OH240537   3.068   6.560   4.351
13527TIP3    H140538   2.979   6.575   4.321
13527TIP3    H240539   3.096   6.480   4.306
13528TIP3   OH240540   5.480   1.874   1.498
13528TIP3    H140541   5.546   1.878   1.428
13528TIP3    H240542   5.510   1.937   1.563
13529TIP3   OH240543   0.290   0.465   1.296
13529TIP3    H140544   0.299   0.431   1.385
13529TIP3    H240545   0.197   0.453   1.275
13530TIP3   OH240546   3.294   3.893   4.520
13530TIP3    H140547   3.267   3.976   4.482
13530TIP3    H240548   3.235   3.879   4.593
13531TIP3   OH240549   2.719   5.556   0.835
13531TIP3    H140550   2.721   5.620   0.906
13531TIP3    H240551   2.708   5.609   0.756
13532TIP3   OH240552   1.742   1.876   5.372
13532TIP3    H140553   1.670   1.835   5.419
13532TIP3    H240554   1.807   1.806   5.362
13533TIP3   OH240555   5.042   7.084   3.177
13533TIP3    H140556   5.025   7.130   3.259
13533TIP3    H240557   5.138   7.082   3.170
13534TIP3   OH240558   5.142   3.196   5.470
13534TIP3    H140559   5.193   3.277   5.467
13534TIP3    H240560   5.195   3.136   5.522
13535TIP3   OH240561   1.562   0.583   5.596
13535TIP3    H140562   1.641   0.629   5.626
13535TIP3    H240563   1.564   0.593   5.501
13536TIP3   OH240564   7.232   0.659   2.031
13536TIP3    H140565   7.195   0.610   1.958
13536TIP3    H240566   7.315   0.694   1.997
13537TIP3   OH240567   1.485   7.709   1.086
13537TIP3    H140568   1.444   7.683   1.003
13537TIP3    H240569   1.565   7.657   1.090
13538TIP3   OH240570   5.716   2.181   3.227
13538TIP3    H140571   5.751   2.132   3.153
13538TIP3    H240572   5.665   2.252   3.187
13539TIP3   OH240573   5.865   2.677   5.855
13539TIP3    H140574   5.877   2.604   5.916
13539TIP3    H240575   5.820   2.639   5.780
13540TIP3   OH240576   8.166   7.226   3.615
13540TIP3    H140577   8.117   7.254   3.537
13540TIP3    H240578   8.118   7.263   3.688
13541TIP3   OH240579   6.270   6.391   1.983
13541TIP3    H140580   6.234   6.305   2.005
13541TIP3    H240581   6.198   6.436   1.938
13542TIP3   OH240582   2.685   7.601   2.811
13542TIP3    H140583   2.722   7.536   2.871
13542TIP3    H240584   2.658   7.673   2.867
13543TIP3   OH240585   6.932   2.698   5.122
13543TIP3    H140586   6.931   2.747   5.203
13543TIP3    H240587   6.864   2.631   5.133
13544TIP3   OH240588   5.593   3.788   4.612
13544TIP3    H140589   5.540   3.805   4.534
13544TIP3    H240590   5.661   3.855   4.611
13545TIP3   OH240591   6.098   7.345   0.277
13545TIP3    H140592   6.103   7.386   0.363
13545TIP3    H240593   6.068   7.256   0.295
13546TIP3   OH240594   5.702   0.228   1.641
13546TIP3    H140595   5.697   0.242   1.547
13546TIP3    H240596   5.794   0.238   1.663
13547TIP3   OH240597   2.983   7.296   1.692
13547TIP3    H140598   2.892   7.307   1.717
13547TIP3    H240599   2.995   7.354   1.617
13548TIP3   OH240600   4.422   5.537   6.330
13548TIP3    H140601   4.357   5.492   6.275
13548TIP3    H240602   4.459   5.604   6.273
13549TIP3   OH240603   0.895   3.887   4.349
13549TIP3    H140604   0.824   3.830   4.319
13549TIP3    H240605   0.850   3.963   4.386
13550TIP3   OH240606   7.609   0.102   2.602
13550TIP3    H140607   7.572   0.185   2.632
13550TIP3    H240608   7.684   0.127   2.548
13551TIP3   OH240609   5.627   5.576   2.879
13551TIP3    H140610   5.637   5.643   2.947
13551TIP3    H240611   5.630   5.625   2.797
13552TIP3   OH240612   5.631   3.904   1.738
13552TIP3    H140613   5.538   3.879   1.741
13552TIP3    H240614   5.659   3.904   1.829
13553TIP3   OH240615   8.295   1.507   5.880
13553TIP3    H140616   8.207   1.471   5.891
13553TIP3    H240617   8.297   1.584   5.937
13554TIP3   OH240618   5.575   3.570   1.672
13554TIP3    H140619   5.639   3.557   1.742
13554TIP3    H240620   5.574   3.665   1.658
13555TIP3   OH240621   1.134   0.868   6.483
13555TIP3    H140622   1.097   0.844   6.399
13555TIP3    H240623   1.089   0.949   6.508
13556TIP3   OH240624   1.739   2.818   3.538
13556TIP3    H140625   1.803   2.786   3.602
13556TIP3    H240626   1.656   2.819   3.587
13557TIP3   OH240627   7.273   5.881   2.852
13557TIP3    H140628   7.332   5.842   2.787
13557TIP3    H240629   7.204   5.921   2.800
13558TIP3   OH240630   5.688   7.299   2.903
13558TIP3    H140631   5.676   7.291   2.808
13558TIP3    H240632   5.631   7.371   2.928
13559TIP3   OH240633   5.200   1.557   3.686
13559TIP3    H140634   5.139   1.544   3.614
13559TIP3    H240635   5.180   1.486   3.748
13560TIP3   OH240636   0.365   6.856   5.261
13560TIP3    H140637   0.289   6.822   5.215
13560TIP3    H240638   0.329   6.914   5.327
13561TIP3   OH240639   4.916   0.334   3.138
13561TIP3    H140640   4.913   0.428   3.156
13561TIP3    H240641   4.895   0.293   3.222
13562TIP3   OH240642   2.004   7.324   3.139
13562TIP3    H140643   1.926   7.367   3.174
13562TIP3    H240644   2.018   7.365   3.054
13563TIP3   OH240645   4.947   1.167   3.242
13563TIP3    H140646   4.892   1.101   3.283
13563TIP3    H240647   4.946   1.145   3.148
13564TIP3   OH240648   7.307   1.079   6.016
13564TIP3    H140649   7.400   1.105   6.014
13564TIP3    H240650   7.275   1.099   5.928
13565TIP3   OH240651   1.320   1.642   3.008
13565TIP3    H140652   1.394   1.690   2.971
13565TIP3    H240653   1.263   1.624   2.932
13566TIP3   OH240654   3.043   2.963   5.475
13566TIP3    H140655   3.119   2.997   5.428
13566TIP3    H240656   3.057   2.869   5.479
13567TIP3   OH240657   5.981   0.577   2.488
13567TIP3    H140658   5.892   0.541   2.495
13567TIP3    H240659   5.993   0.624   2.571
13568TIP3   OH240660   6.541   4.282   5.831
13568TIP3    H140661   6.563   4.336   5.906
13568TIP3    H240662   6.618   4.287   5.774
13569TIP3   OH240663   3.454   0.792   0.708
13569TIP3    H140664   3.396   0.730   0.662
13569TIP3    H240665   3.418   0.797   0.796
13570TIP3   OH240666   0.191   1.791   3.410
13570TIP3    H140667   0.261   1.826   3.466
13570TIP3    H240668   0.234   1.725   3.357
13571TIP3   OH240669   6.288   1.758   1.269
13571TIP3    H140670   6.341   1.725   1.196
13571TIP3    H240671   6.256   1.679   1.313
13572TIP3   OH240672   5.229   4.218   0.712
13572TIP3    H140673   5.180   4.156   0.766
13572TIP3    H240674   5.271   4.276   0.775
13573TIP3   OH240675   7.204   7.829   3.892
13573TIP3    H140676   7.281   7.876   3.861
13573TIP3    H240677   7.183   7.768   3.822
13574TIP3   OH240678   1.161   7.496   5.250
13574TIP3    H140679   1.144   7.402   5.258
13574TIP3    H240680   1.158   7.529   5.340
13575TIP3   OH240681   2.897   1.722   4.809
13575TIP3    H140682   2.835   1.754   4.743
13575TIP3    H240683   2.851   1.651   4.853
13576TIP3   OH240684   4.530   7.278   0.317
13576TIP3    H140685   4.448   7.229   0.320
13576TIP3    H240686   4.508   7.359   0.271
13577TIP3   OH240687   0.079   2.114   4.908
13577TIP3    H140688   0.027   2.114   4.828
13577TIP3    H240689   0.015   2.128   4.978
13578TIP3   OH240690   2.747   7.186   5.701
13578TIP3    H140691   2.747   7.146   5.788
13578TIP3    H240692   2.817   7.251   5.705
13579TIP3   OH240693   7.071   0.379   6.591
13579TIP3    H140694   7.136   0.365   6.661
13579TIP3    H240695   7.085   0.306   6.531
13580TIP3   OH240696   1.040   7.688   6.404
13580TIP3    H140697   0.979   7.642   6.461
13580TIP3    H240698   1.125   7.645   6.419
13581TIP3   OH240699   3.735   3.068   6.166
13581TIP3    H140700   3.820   3.113   6.162
13581TIP3    H240701   3.672   3.138   6.179
13582TIP3   OH240702   6.565   2.701   0.736
13582TIP3    H140703   6.478   2.740   0.732
13582TIP3    H240704   6.550   2.613   0.773
13583TIP3   OH240705   5.533   3.265   0.335
13583TIP3    H140706   5.469   3.333   0.353
13583TIP3    H240707   5.524   3.248   0.241
13584TIP3   OH240708   4.738   0.713   0.067
13584TIP3    H140709   4.662   0.762   0.101
13584TIP3    H240710   4.780   0.678   0.145
13585TIP3   OH240711   7.420   5.204   1.626
13585TIP3    H140712   7.387   5.242   1.544
13585TIP3    H240713   7.457   5.278   1.673
13586TIP3   OH240714   2.010   3.693   6.303
13586TIP3    H140715   2.038   3.606   6.333
13586TIP3    H240716   1.930   3.711   6.354
13587TIP3   OH240717   0.347   4.431   3.776
13587TIP3    H140718   0.339   4.395   3.865
13587TIP3    H240719   0.261   4.472   3.759
13588TIP3   OH240720   1.028   2.855   1.192
13588TIP3    H140721   1.115   2.876   1.157
13588TIP3    H240722   1.007   2.930   1.248
13589TIP3   OH240723   5.952   7.139   1.051
13589TIP3    H140724   5.951   7.157   0.957
13589TIP3    H240725   5.886   7.071   1.063
13590TIP3   OH240726   3.828   7.315   1.775
13590TIP3    H140727   3.817   7.352   1.687
13590TIP3    H240728   3.870   7.385   1.825
13591TIP3   OH240729   0.688   3.597   1.070
13591TIP3    H140730   0.713   3.678   1.113
13591TIP3    H240731   0.602   3.576   1.106
13592TIP3   OH240732   1.180   5.681   2.483
13592TIP3    H140733   1.193   5.748   2.416
13592TIP3    H240734   1.102   5.634   2.456
13593TIP3   OH240735   0.679   6.627   0.933
13593TIP3    H140736   0.704   6.704   0.881
13593TIP3    H240737   0.640   6.663   1.012
13594TIP3   OH240738   2.603   4.043   0.921
13594TIP3    H140739   2.575   3.951   0.925
13594TIP3    H240740   2.696   4.038   0.899
13595TIP3   OH240741   4.350   5.797   4.672
13595TIP3    H140742   4.410   5.842   4.732
13595TIP3    H240743   4.263   5.826   4.700
13596TIP3   OH240744   5.325   0.357   1.860
13596TIP3    H140745   5.324   0.277   1.808
13596TIP3    H240746   5.269   0.418   1.812
13597TIP3   OH240747   7.335   4.944   0.303
13597TIP3    H140748   7.318   4.865   0.254
13597TIP3    H240749   7.425   4.934   0.335
13598TIP3   OH240750   1.064   7.561   1.668
13598TIP3    H140751   1.023   7.484   1.708
13598TIP3    H240752   1.013   7.635   1.701
13599TIP3   OH240753   1.610   0.327   3.446
13599TIP3    H140754   1.594   0.369   3.530
13599TIP3    H240755   1.627   0.235   3.468
13600TIP3   OH240756   7.841   5.956   1.895
13600TIP3    H140757   7.800   6.042   1.899
13600TIP3    H240758   7.795   5.910   1.825
13601TIP3   OH240759   3.045   4.422   5.966
13601TIP3    H140760   3.061   4.438   5.873
13601TIP3    H240761   2.950   4.412   5.973
13602TIP3   OH240762   7.481   0.565   3.525
13602TIP3    H140763   7.440   0.644   3.490
13602TIP3    H240764   7.573   0.588   3.536
13603TIP3   OH240765   6.022   3.200   1.490
13603TIP3    H140766   6.005   3.294   1.485
13603TIP3    H240767   6.063   3.188   1.576
13604TIP3   OH240768   0.798   1.519   6.326
13604TIP3    H140769   0.749   1.455   6.273
13604TIP3    H240770   0.753   1.602   6.310
13605TIP3   OH240771   3.702   7.466   2.464
13605TIP3    H140772   3.690   7.432   2.553
13605TIP3    H240773   3.781   7.519   2.469
13606TIP3   OH240774   7.581   3.733   3.376
13606TIP3    H140775   7.628   3.771   3.301
13606TIP3    H240776   7.516   3.675   3.336
13607TIP3   OH240777   7.533   6.030   1.434
13607TIP3    H140778   7.565   6.072   1.354
13607TIP3    H240779   7.475   5.961   1.403
13608TIP3   OH240780   5.763   0.752   0.240
13608TIP3    H140781   5.735   0.790   0.323
13608TIP3    H240782   5.853   0.781   0.229
13609TIP3   OH240783   7.644   2.237   5.893
13609TIP3    H140784   7.705   2.309   5.911
13609TIP3    H240785   7.641   2.231   5.797
13610TIP3   OH240786   3.240   5.912   3.332
13610TIP3    H140787   3.235   5.998   3.289
13610TIP3    H240788   3.217   5.929   3.423
13611TIP3   OH240789   3.298   6.598   0.036
13611TIP3    H140790   3.314   6.513   0.076
13611TIP3    H240791   3.259   6.577  -0.050
13612TIP3   OH240792   2.273   4.557   6.322
13612TIP3    H140793   2.361   4.557   6.361
13612TIP3    H240794   2.257   4.466   6.297
13613TIP3   OH240795   4.053   3.173   4.150
13613TIP3    H140796   4.033   3.258   4.188
13613TIP3    H240797   3.997   3.168   4.072
13614TIP3   OH240798   7.830   2.850   0.678
13614TIP3    H140799   7.875   2.917   0.627
13614TIP3    H240800   7.765   2.899   0.729
13615TIP3   OH240801   0.820   4.796   3.515
13615TIP3    H140802   0.873   4.748   3.452
13615TIP3    H240803   0.738   4.747   3.519
13616TIP3   OH240804   2.056   0.031   3.277
13616TIP3    H140805   2.029   0.027   3.369
13616TIP3    H240806   1.997  -0.030   3.233
13617TIP3   OH240807   2.975   1.628   5.177
13617TIP3    H140808   2.890   1.637   5.133
13617TIP3    H240809   3.019   1.711   5.160
13618TIP3   OH240810   5.227   2.255   5.091
13618TIP3    H140811   5.301   2.273   5.033
13618TIP3    H240812   5.150   2.266   5.036
13619TIP3   OH240813   4.802   5.822   3.306
13619TIP3    H140814   4.875   5.764   3.283
13619TIP3    H240815   4.808   5.894   3.243
13620TIP3   OH240816   7.240   5.206   4.898
13620TIP3    H140817   7.185   5.141   4.855
13620TIP3    H240818   7.284   5.252   4.827
13621TIP3   OH240819   0.089   2.785   0.566
13621TIP3    H140820   0.082   2.868   0.613
13621TIP3    H240821   0.000   2.749   0.565
13622TIP3   OH240822   5.081   0.964   3.941
13622TIP3    H140823   5.080   0.872   3.968
13622TIP3    H240824   5.012   1.004   3.993
13623TIP3   OH240825   0.488   6.400   2.589
13623TIP3    H140826   0.487   6.310   2.622
13623TIP3    H240827   0.469   6.392   2.495
13624TIP3   OH240828   1.642   1.664   2.634
13624TIP3    H140829   1.639   1.569   2.646
13624TIP3    H240830   1.707   1.678   2.566
13625TIP3   OH240831   3.007   5.762   5.079
13625TIP3    H140832   2.950   5.722   5.145
13625TIP3    H240833   2.947   5.813   5.024
13626TIP3   OH240834   1.460   2.761   3.882
13626TIP3    H140835   1.507   2.691   3.837
13626TIP3    H240836   1.495   2.761   3.971
13627TIP3   OH240837   4.615   5.123   0.061
13627TIP3    H140838   4.699   5.122   0.016
13627TIP3    H240839   4.597   5.216   0.077
13628TIP3   OH240840   3.431   0.368   2.144
13628TIP3    H140841   3.454   0.445   2.196
13628TIP3    H240842   3.371   0.402   2.078
13629TIP3   OH240843   7.165   3.080   5.878
13629TIP3    H140844   7.122   3.127   5.950
13629TIP3    H240845   7.196   3.150   5.820
13630TIP3   OH240846   6.183   5.639   5.040
13630TIP3    H140847   6.129   5.626   5.118
13630TIP3    H240848   6.120   5.662   4.971
13631TIP3   OH240849   6.223   2.089   6.263
13631TIP3    H140850   6.136   2.059   6.290
13631TIP3    H240851   6.238   2.047   6.179
13632TIP3   OH240852   6.328   7.258   4.923
13632TIP3    H140853   6.332   7.162   4.915
13632TIP3    H240854   6.257   7.283   4.864
13633TIP3   OH240855   4.876   1.657   3.248
13633TIP3    H140856   4.901   1.663   3.155
13633TIP3    H240857   4.812   1.727   3.260
13634TIP3   OH240858   2.928   6.011   4.487
13634TIP3    H140859   2.979   6.060   4.422
13634TIP3    H240860   2.991   5.991   4.556
13635TIP3   OH240861   1.472   5.857   4.391
13635TIP3    H140862   1.418   5.859   4.469
13635TIP3    H240863   1.431   5.920   4.332
13636TIP3   OH240864   4.585   5.778   5.509
13636TIP3    H140865   4.494   5.793   5.533
13636TIP3    H240866   4.588   5.685   5.484
13637TIP3   OH240867   1.949   0.546   3.509
13637TIP3    H140868   1.924   0.624   3.558
13637TIP3    H240869   1.924   0.473   3.565
13638TIP3   OH240870   2.609   2.701   3.230
13638TIP3    H140871   2.589   2.617   3.271
13638TIP3    H240872   2.541   2.712   3.163
13639TIP3   OH240873   3.540   0.285   1.845
13639TIP3    H140874   3.590   0.208   1.872
13639TIP3    H240875   3.453   0.252   1.825
13640TIP3   OH240876   0.280   0.857   3.060
13640TIP3    H140877   0.330   0.903   2.992
13640TIP3    H240878   0.342   0.796   3.099
13641TIP3   OH240879   1.785   7.604   2.509
13641TIP3    H140880   1.750   7.692   2.519
13641TIP3    H240881   1.858   7.600   2.571
13642TIP3   OH240882   5.000   7.437   2.696
13642TIP3    H140883   4.979   7.527   2.718
13642TIP3    H240884   4.988   7.388   2.777
13643TIP3   OH240885   2.052   0.382   4.761
13643TIP3    H140886   2.020   0.332   4.685
13643TIP3    H240887   2.083   0.315   4.822
13644TIP3   OH240888   1.802   3.832   2.571
13644TIP3    H140889   1.866   3.763   2.582
13644TIP3    H240890   1.815   3.863   2.482
13645TIP3   OH240891   0.370   2.280   5.403
13645TIP3    H140892   0.408   2.218   5.466
13645TIP3    H240893   0.433   2.283   5.331
13646TIP3   OH240894   5.690   6.758   0.055
13646TIP3    H140895   5.677   6.682   0.112
13646TIP3    H240896   5.633   6.742  -0.021
13647TIP3   OH240897   5.369   3.113   1.691
13647TIP3    H140898   5.407   3.195   1.722
13647TIP3    H240899   5.443   3.051   1.693
13648TIP3   OH240900   5.345   0.957   6.054
13648TIP3    H140901   5.403   1.022   6.094
13648TIP3    H240902   5.386   0.873   6.074
13649TIP3   OH240903   3.432   4.362   0.428
13649TIP3    H140904   3.368   4.309   0.381
13649TIP3    H240905   3.496   4.388   0.362
13650TIP3   OH240906   0.546   4.086   0.756
13650TIP3    H140907   0.522   4.026   0.686
13650TIP3    H240908   0.524   4.039   0.836
13651TIP3   OH240909   1.122   4.326   2.065
13651TIP3    H140910   1.098   4.234   2.054
13651TIP3    H240911   1.050   4.364   2.116
13652TIP3   OH240912   2.659   0.429   6.469
13652TIP3    H140913   2.576   0.392   6.498
13652TIP3    H240914   2.678   0.384   6.386
13653TIP3   OH240915   1.617   2.041   2.543
13653TIP3    H140916   1.549   2.013   2.604
13653TIP3    H240917   1.635   1.964   2.489
13654TIP3   OH240918   2.281   0.343   6.686
13654TIP3    H140919   2.323   0.346   6.772
13654TIP3    H240920   2.245   0.254   6.681
13655TIP3   OH240921   3.684   1.924   4.092
13655TIP3    H140922   3.747   1.981   4.136
13655TIP3    H240923   3.625   1.895   4.161
13656TIP3   OH240924   0.999   2.221   3.052
13656TIP3    H140925   1.003   2.164   2.974
13656TIP3    H240926   1.006   2.160   3.126
13657TIP3   OH240927   3.910   3.608   1.714
13657TIP3    H140928   3.984   3.640   1.662
13657TIP3    H240929   3.874   3.686   1.757
13658TIP3   OH240930   5.114   5.600   2.647
13658TIP3    H140931   5.184   5.604   2.712
13658TIP3    H240932   5.132   5.521   2.596
13659TIP3   OH240933   6.160   7.109   6.149
13659TIP3    H140934   6.139   7.181   6.090
13659TIP3    H240935   6.232   7.063   6.106
13660TIP3   OH240936   2.858   1.495   0.478
13660TIP3    H140937   2.870   1.515   0.385
13660TIP3    H240938   2.891   1.406   0.487
13661TIP3   OH240939   0.549   3.305   5.970
13661TIP3    H140940   0.595   3.262   5.898
13661TIP3    H240941   0.467   3.257   5.978
13662TIP3   OH240942   8.204   6.318   4.391
13662TIP3    H140943   8.161   6.244   4.433
13662TIP3    H240944   8.250   6.280   4.316
13663TIP3   OH240945   1.630   3.496   2.520
13663TIP3    H140946   1.593   3.413   2.492
13663TIP3    H240947   1.582   3.562   2.469
13664TIP3   OH240948   2.332   5.112   5.374
13664TIP3    H140949   2.372   5.059   5.443
13664TIP3    H240950   2.406   5.151   5.327
13665TIP3   OH240951   0.093   2.408   1.133
13665TIP3    H140952   0.083   2.313   1.134
13665TIP3    H240953   0.187   2.422   1.146
13666TIP3   OH240954   2.735   6.173   2.910
13666TIP3    H140955   2.773   6.092   2.877
13666TIP3    H240956   2.675   6.146   2.979
13667TIP3   OH240957   0.962   0.397   2.793
13667TIP3    H140958   1.017   0.365   2.722
13667TIP3    H240959   0.873   0.368   2.770
13668TIP3   OH240960   1.705   7.304   1.811
13668TIP3    H140961   1.669   7.385   1.775
13668TIP3    H240962   1.658   7.290   1.893
13669TIP3   OH240963   2.392  -0.009   1.565
13669TIP3    H140964   2.440  -0.084   1.529
13669TIP3    H240965   2.456   0.035   1.622
13670TIP3   OH240966   4.979   4.003   3.603
13670TIP3    H140967   4.888   3.988   3.577
13670TIP3    H240968   4.979   3.994   3.698
13671TIP3   OH240969   7.321   1.563   3.789
13671TIP3    H140970   7.237   1.560   3.743
13671TIP3    H240971   7.382   1.600   3.726
13672TIP3   OH240972   5.628   0.759   0.001
13672TIP3    H140973   5.687   0.763   0.076
13672TIP3    H240974   5.593   0.670   0.002
13673TIP3   OH240975   5.961   7.206   3.047
13673TIP3    H140976   5.883   7.211   2.992
13673TIP3    H240977   5.987   7.114   3.044
13674TIP3   OH240978   6.403   6.366   2.725
13674TIP3    H140979   6.354   6.432   2.773
13674TIP3    H240980   6.339   6.298   2.704
13675TIP3   OH240981   6.985   4.576   1.540
13675TIP3    H140982   7.011   4.521   1.466
13675TIP3    H240983   7.022   4.662   1.520
13676TIP3   OH240984   0.669   2.304   1.147
13676TIP3    H140985   0.713   2.388   1.134
13676TIP3    H240986   0.596   2.305   1.085
13677TIP3   OH240987   0.446   4.567   3.289
13677TIP3    H140988   0.415   4.619   3.363
13677TIP3    H240989   0.382   4.497   3.279
13678TIP3   OH240990   2.125   3.539   4.479
13678TIP3    H140991   2.163   3.614   4.434
13678TIP3    H240992   2.199   3.483   4.501
13679TIP3   OH240993   2.768   6.312   2.669
13679TIP3    H140994   2.706   6.385   2.664
13679TIP3    H240995   2.763   6.282   2.760
13680TIP3   OH240996   0.512   4.356   5.800
13680TIP3    H140997   0.482   4.265   5.800
13680TIP3    H240998   0.601   4.352   5.835
13681TIP3   OH240999   4.235   7.766   1.871
13681TIP3    H141000   4.228   7.821   1.949
13681TIP3    H241001   4.262   7.681   1.904
13682TIP3   OH241002   2.888   1.427   2.157
13682TIP3    H141003   2.898   1.405   2.065
13682TIP3    H241004   2.920   1.517   2.164
13683TIP3   OH241005   4.301   3.326   6.657
13683TIP3    H141006   4.211   3.301   6.676
13683TIP3    H241007   4.296   3.380   6.579
13684TIP3   OH241008   3.503   4.451   5.551
13684TIP3    H141009   3.473   4.361   5.561
13684TIP3    H241010   3.428   4.504   5.576
13685TIP3   OH241011   4.672   2.073   0.231
13685TIP3    H141012   4.615   2.044   0.302
13685TIP3    H241013   4.614   2.117   0.169
13686TIP3   OH241014   0.431   1.462   4.610
13686TIP3    H141015   0.426   1.458   4.514
13686TIP3    H241016   0.367   1.528   4.635
13687TIP3   OH241017   1.759   1.348   3.707
13687TIP3    H141018   1.750   1.269   3.654
13687TIP3    H241019   1.805   1.410   3.651
13688TIP3   OH241020   5.093   4.345   4.496
13688TIP3    H141021   5.136   4.381   4.574
13688TIP3    H241022   5.032   4.279   4.531
13689TIP3   OH241023   0.928   2.584   0.155
13689TIP3    H141024   0.875   2.661   0.130
13689TIP3    H241025   0.985   2.616   0.225
13690TIP3   OH241026   4.684   6.134   0.057
13690TIP3    H141027   4.766   6.086   0.048
13690TIP3    H241028   4.619   6.078   0.014
13691TIP3   OH241029   0.531   1.995   6.020
13691TIP3    H141030   0.451   2.037   5.989
13691TIP3    H241031   0.548   2.036   6.105
13692TIP3   OH241032   6.653   3.421   1.711
13692TIP3    H141033   6.654   3.354   1.780
13692TIP3    H241034   6.723   3.394   1.651
13693TIP3   OH241035   2.235   6.106   1.774
13693TIP3    H141036   2.240   6.200   1.789
13693TIP3    H241037   2.222   6.068   1.861
13694TIP3   OH241038   2.975   4.244   0.069
13694TIP3    H141039   3.036   4.268   0.000
13694TIP3    H241040   3.030   4.207   0.138
13695TIP3   OH241041   2.826   5.108   4.488
13695TIP3    H141042   2.772   5.033   4.461
13695TIP3    H241043   2.763   5.180   4.496
13696TIP3   OH241044   4.167   7.235   1.807
13696TIP3    H141045   4.153   7.246   1.901
13696TIP3    H241046   4.092   7.277   1.765
13697TIP3   OH241047   8.185   0.884   5.609
13697TIP3    H141048   8.106   0.913   5.655
13697TIP3    H241049   8.167   0.903   5.517
13698TIP3   OH241050   1.277   0.672   2.221
13698TIP3    H141051   1.324   0.614   2.281
13698TIP3    H241052   1.258   0.618   2.145
13699TIP3   OH241053   2.359   1.178   5.875
13699TIP3    H141054   2.275   1.147   5.841
13699TIP3    H241055   2.395   1.103   5.923
13700TIP3   OH241056   4.307   1.307   2.948
13700TIP3    H141057   4.249   1.319   3.022
13700TIP3    H241058   4.299   1.215   2.924
13701TIP3   OH241059   0.233   3.503   0.893
13701TIP3    H141060   0.198   3.590   0.875
13701TIP3    H241061   0.250   3.466   0.807
13702TIP3   OH241062   7.469   5.839   4.970
13702TIP3    H141063   7.523   5.819   4.893
13702TIP3    H241064   7.380   5.844   4.937
13703TIP3   OH241065   0.779   0.090   0.478
13703TIP3    H141066   0.803   0.148   0.406
13703TIP3    H241067   0.718   0.027   0.439
13704TIP3   OH241068   5.063   4.605   3.516
13704TIP3    H141069   5.050   4.512   3.502
13704TIP3    H241070   5.111   4.611   3.599
13705TIP3   OH241071   0.957   6.151   1.054
13705TIP3    H141072   0.900   6.075   1.038
13705TIP3    H241073   0.900   6.227   1.041
13706TIP3   OH241074   7.317   3.105   0.018
13706TIP3    H141075   7.313   3.125   0.111
13706TIP3    H241076   7.315   3.191  -0.025
13707TIP3   OH241077   6.448   0.266   2.706
13707TIP3    H141078   6.532   0.221   2.707
13707TIP3    H241079   6.400   0.228   2.779
13708TIP3   OH241080   5.550   6.145   1.788
13708TIP3    H141081   5.548   6.177   1.878
13708TIP3    H241082   5.509   6.059   1.792
13709TIP3   OH241083   2.036   5.980   0.658
13709TIP3    H141084   2.094   5.913   0.621
13709TIP3    H241085   1.949   5.940   0.654
13710TIP3   OH241086   7.910   1.920   2.191
13710TIP3    H141087   7.938   1.996   2.242
13710TIP3    H241088   7.825   1.896   2.228
13711TIP3   OH241089   1.898   7.462   3.544
13711TIP3    H141090   1.901   7.549   3.505
13711TIP3    H241091   1.812   7.428   3.518
13712TIP3   OH241092   7.536   7.928  -0.054
13712TIP3    H141093   7.613   7.876  -0.030
13712TIP3    H241094   7.466   7.894   0.002
13713TIP3   OH241095   3.955   5.646   1.131
13713TIP3    H141096   3.901   5.712   1.174
13713TIP3    H241097   3.896   5.572   1.116
13714TIP3   OH241098   8.027   5.514   5.752
13714TIP3    H141099   7.937   5.543   5.764
13714TIP3    H241100   8.044   5.527   5.659
13715TIP3   OH241101   4.035   0.461   3.088
13715TIP3    H141102   3.974   0.429   3.021
13715TIP3    H241103   4.084   0.383   3.115
13716TIP3   OH241104   3.285   7.133   5.004
13716TIP3    H141105   3.228   7.093   4.937
13716TIP3    H241106   3.373   7.102   4.982
13717TIP3   OH241107   5.196   1.790   4.012
13717TIP3    H141108   5.202   1.814   3.919
13717TIP3    H241109   5.175   1.873   4.056
13718TIP3   OH241110   0.090   6.819   2.624
13718TIP3    H141111   0.013   6.768   2.598
13718TIP3    H241112   0.056   6.905   2.646
13719TIP3   OH241113   6.782   0.936   1.757
13719TIP3    H141114   6.870   0.944   1.719
13719TIP3    H241115   6.784   0.992   1.834
13720TIP3   OH241116   1.313   6.735   3.188
13720TIP3    H141117   1.315   6.713   3.095
13720TIP3    H241118   1.330   6.653   3.233
13721TIP3   OH241119   1.386   1.629   6.483
13721TIP3    H141120   1.332   1.552   6.504
13721TIP3    H241121   1.371   1.689   6.556
13722TIP3   OH241122   3.062   0.234   0.984
13722TIP3    H141123   3.092   0.156   0.936
13722TIP3    H241124   3.132   0.253   1.045
13723TIP3   OH241125   2.020   5.882   5.964
13723TIP3    H141126   2.026   5.844   5.877
13723TIP3    H241127   1.941   5.936   5.962
13724TIP3   OH241128   7.726   2.796   2.331
13724TIP3    H141129   7.777   2.805   2.251
13724TIP3    H241130   7.780   2.741   2.388
13725TIP3   OH241131   7.961   1.286   6.583
13725TIP3    H141132   8.054   1.271   6.565
13725TIP3    H241133   7.938   1.219   6.647
13726TIP3   OH241134  -0.007   1.884   3.261
13726TIP3    H141135  -0.084   1.846   3.302
13726TIP3    H241136   0.066   1.856   3.317
13727TIP3   OH241137   2.517   1.118   6.742
13727TIP3    H141138   2.552   1.064   6.813
13727TIP3    H241139   2.503   1.057   6.670
13728TIP3   OH241140   4.999   6.092   3.383
13728TIP3    H141141   4.920   6.096   3.329
13728TIP3    H241142   4.976   6.034   3.455
13729TIP3   OH241143   1.931   7.299   4.246
13729TIP3    H141144   1.901   7.335   4.163
13729TIP3    H241145   2.026   7.317   4.246
13730TIP3   OH241146   2.067   7.063   1.983
13730TIP3    H141147   2.053   7.142   1.930
13730TIP3    H241148   2.125   7.091   2.053
13731TIP3   OH241149   0.301   0.250   1.502
13731TIP3    H141150   0.347   0.241   1.585
13731TIP3    H241151   0.208   0.247   1.526
13732TIP3   OH241152   3.659   5.144   4.924
13732TIP3    H141153   3.732   5.088   4.951
13732TIP3    H241154   3.679   5.168   4.833
13733TIP3   OH241155   1.888   2.046   6.529
13733TIP3    H141156   1.822   2.082   6.588
13733TIP3    H241157   1.972   2.075   6.564
13734TIP3   OH241158   4.269   5.104   0.105
13734TIP3    H141159   4.357   5.102   0.142
13734TIP3    H241160   4.270   5.036   0.037
13735TIP3   OH241161   7.426   1.268   4.455
13735TIP3    H141162   7.365   1.210   4.501
13735TIP3    H241163   7.478   1.209   4.400
13736TIP3   OH241164   3.228   2.606   4.207
13736TIP3    H141165   3.183   2.530   4.244
13736TIP3    H241166   3.317   2.576   4.190
13737TIP3   OH241167   7.596   3.657   4.470
13737TIP3    H141168   7.592   3.606   4.389
13737TIP3    H241169   7.509   3.697   4.477
13738TIP3   OH241170   1.356   7.832   2.908
13738TIP3    H141171   1.370   7.832   3.003
13738TIP3    H241172   1.302   7.754   2.892
13739TIP3   OH241173   1.700   3.891   1.392
13739TIP3    H141174   1.711   3.805   1.433
13739TIP3    H241175   1.790   3.924   1.383
13740TIP3   OH241176   7.852   3.671   4.147
13740TIP3    H141177   7.793   3.601   4.117
13740TIP3    H241178   7.864   3.652   4.241
13741TIP3   OH241179   2.277   5.261   6.119
13741TIP3    H141180   2.235   5.222   6.042
13741TIP3    H241181   2.204   5.289   6.175
13742TIP3   OH241182   0.111   4.742   2.332
13742TIP3    H141183   0.193   4.741   2.283
13742TIP3    H241184   0.097   4.651   2.358
13743TIP3   OH241185   7.640   4.278   6.620
13743TIP3    H141186   7.678   4.257   6.705
13743TIP3    H241187   7.549   4.300   6.639
13744TIP3   OH241188   6.658   0.564   5.449
13744TIP3    H141189   6.747   0.544   5.420
13744TIP3    H241190   6.609   0.575   5.368
13745TIP3   OH241191   5.941   7.433   4.981
13745TIP3    H141192   5.925   7.527   4.993
13745TIP3    H241193   5.937   7.396   5.069
13746TIP3   OH241194   1.311   1.723   6.260
13746TIP3    H141195   1.333   1.677   6.341
13746TIP3    H241196   1.298   1.653   6.196
13747TIP3   OH241197   6.566   5.484   1.197
13747TIP3    H141198   6.535   5.456   1.283
13747TIP3    H241199   6.528   5.420   1.136
13748TIP3   OH241200   6.785   5.036   0.135
13748TIP3    H141201   6.872   5.050   0.172
13748TIP3    H241202   6.724   5.067   0.202
13749TIP3   OH241203   7.840   3.366   1.963
13749TIP3    H141204   7.791   3.358   1.881
13749TIP3    H241205   7.785   3.324   2.029
13750TIP3   OH241206   0.476   7.218   0.365
13750TIP3    H141207   0.488   7.214   0.459
13750TIP3    H241208   0.397   7.270   0.353
13751TIP3   OH241209   3.917   0.113   0.994
13751TIP3    H141210   3.870   0.062   0.927
13751TIP3    H241211   3.976   0.169   0.945
13752TIP3   OH241212   4.706   1.680   6.605
13752TIP3    H141213   4.792   1.690   6.564
13752TIP3    H241214   4.702   1.587   6.629
13753TIP3   OH241215   6.616   6.730   6.206
13753TIP3    H141216   6.665   6.764   6.131
13753TIP3    H241217   6.674   6.745   6.281
13754TIP3   OH241218   6.936   4.513   0.790
13754TIP3    H141219   6.851   4.471   0.796
13754TIP3    H241220   6.918   4.606   0.805
13755TIP3   OH241221   0.613   2.299   1.778
13755TIP3    H141222   0.667   2.237   1.729
13755TIP3    H241223   0.672   2.339   1.841
13756TIP3   OH241224   4.960   0.929   5.020
13756TIP3    H141225   4.922   0.842   5.026
13756TIP3    H241226   5.012   0.938   5.100
13757TIP3   OH241227   1.550   1.343   6.274
13757TIP3    H141228   1.514   1.285   6.207
13757TIP3    H241229   1.523   1.431   6.246
13758TIP3   OH241230   4.707   2.809   2.508
13758TIP3    H141231   4.694   2.840   2.598
13758TIP3    H241232   4.644   2.739   2.497
13759TIP3   OH241233   3.370   2.913   5.025
13759TIP3    H141234   3.397   2.825   5.050
13759TIP3    H241235   3.340   2.953   5.106
13760TIP3   OH241236   3.100   6.079   1.188
13760TIP3    H141237   3.019   6.128   1.204
13760TIP3    H241238   3.122   6.098   1.097
13761TIP3   OH241239   0.697   3.913   3.264
13761TIP3    H141240   0.736   3.863   3.335
13761TIP3    H241241   0.743   3.997   3.264
13762TIP3   OH241242   3.157   5.593   4.155
13762TIP3    H141243   3.159   5.676   4.107
13762TIP3    H241244   3.192   5.529   4.093
13763TIP3   OH241245   2.242   1.316   0.647
13763TIP3    H141246   2.165   1.363   0.676
13763TIP3    H241247   2.210   1.258   0.578
13764TIP3   OH241248   0.973   0.165   6.549
13764TIP3    H141249   0.899   0.130   6.501
13764TIP3    H241250   0.956   0.141   6.641
13765TIP3   OH241251   2.253   5.606   1.272
13765TIP3    H141252   2.313   5.536   1.301
13765TIP3    H241253   2.173   5.590   1.321
13766TIP3   OH241254   2.408   4.246   2.482
13766TIP3    H141255   2.404   4.219   2.574
13766TIP3    H241256   2.399   4.341   2.485
13767TIP3   OH241257   2.153   0.586   6.095
13767TIP3    H141258   2.060   0.569   6.105
13767TIP3    H241259   2.185   0.515   6.039
13768TIP3   OH241260   1.356   4.991   0.945
13768TIP3    H141261   1.322   4.903   0.962
13768TIP3    H241262   1.279   5.043   0.923
13769TIP3   OH241263   7.812   1.974   5.903
13769TIP3    H141264   7.760   1.960   5.824
13769TIP3    H241265   7.757   2.030   5.958
13770TIP3   OH241266   7.705   4.416   4.393
13770TIP3    H141267   7.657   4.461   4.462
13770TIP3    H241268   7.648   4.421   4.316
13771TIP3   OH241269   6.905   1.660   4.309
13771TIP3    H141270   6.978   1.720   4.326
13771TIP3    H241271   6.858   1.655   4.393
13772TIP3   OH241272   1.794   1.042   0.210
13772TIP3    H141273   1.886   1.062   0.198
13772TIP3    H241274   1.786   1.018   0.302
13773TIP3   OH241275   5.314   4.009   4.038
13773TIP3    H141276   5.377   3.940   4.019
13773TIP3    H241277   5.364   4.090   4.036
13774TIP3   OH241278   4.794   6.991   6.440
13774TIP3    H141279   4.878   6.974   6.483
13774TIP3    H241280   4.810   7.069   6.387
13775TIP3   OH241281   6.521   1.086   5.947
13775TIP3    H141282   6.432   1.103   5.917
13775TIP3    H241283   6.534   1.145   6.021
13776TIP3   OH241284   2.017   6.740   3.848
13776TIP3    H141285   2.099   6.785   3.826
13776TIP3    H241286   1.956   6.811   3.869
13777TIP3   OH241287   5.229   3.041   4.758
13777TIP3    H141288   5.290   3.059   4.686
13777TIP3    H241289   5.178   2.966   4.728
13778TIP3   OH241290   3.382   3.303   5.397
13778TIP3    H141291   3.330   3.344   5.328
13778TIP3    H241292   3.436   3.374   5.432
13779TIP3   OH241293   2.201   6.806   4.619
13779TIP3    H141294   2.109   6.796   4.645
13779TIP3    H241295   2.197   6.816   4.524
13780TIP3   OH241296   2.214   3.979   3.108
13780TIP3    H141297   2.247   3.956   3.194
13780TIP3    H241298   2.160   3.904   3.082
13781TIP3   OH241299   6.519   2.337   1.425
13781TIP3    H141300   6.444   2.397   1.428
13781TIP3    H241301   6.481   2.253   1.401
13782TIP3   OH241302   2.267   6.222   4.482
13782TIP3    H141303   2.317   6.157   4.532
13782TIP3    H241304   2.262   6.298   4.541
13783TIP3   OH241305   8.054   6.119   5.658
13783TIP3    H141306   8.053   6.095   5.566
13783TIP3    H241307   8.102   6.201   5.662
13784TIP3   OH241308   1.030   4.634   2.549
13784TIP3    H141309   1.111   4.684   2.543
13784TIP3    H241310   1.001   4.623   2.459
13785TIP3   OH241311   3.273   1.558   3.219
13785TIP3    H141312   3.305   1.637   3.263
13785TIP3    H241313   3.350   1.523   3.174
13786TIP3   OH241314   4.701   4.410   1.932
13786TIP3    H141315   4.689   4.352   2.007
13786TIP3    H241316   4.620   4.401   1.882
13787TIP3   OH241317   3.205   2.675   1.478
13787TIP3    H141318   3.263   2.743   1.444
13787TIP3    H241319   3.135   2.723   1.522
13788TIP3   OH241320   6.858   6.935   2.829
13788TIP3    H141321   6.786   6.876   2.809
13788TIP3    H241322   6.842   6.965   2.918
13789TIP3   OH241323   6.261   5.634   0.749
13789TIP3    H141324   6.168   5.612   0.740
13789TIP3    H241325   6.306   5.550   0.751
13790TIP3   OH241326   7.183   6.391   1.077
13790TIP3    H141327   7.240   6.330   1.124
13790TIP3    H241328   7.188   6.364   0.986
13791TIP3   OH241329   0.301   4.037   5.280
13791TIP3    H141330   0.355   4.036   5.359
13791TIP3    H241331   0.297   3.945   5.253
13792TIP3   OH241332   0.779   3.779   2.008
13792TIP3    H141333   0.697   3.821   2.034
13792TIP3    H241334   0.835   3.785   2.085
13793TIP3   OH241335   8.130   1.855   2.028
13793TIP3    H141336   8.055   1.904   2.062
13793TIP3    H241337   8.094   1.768   2.008
13794TIP3   OH241338   3.283   5.481   3.922
13794TIP3    H141339   3.312   5.516   3.838
13794TIP3    H241340   3.235   5.402   3.901
13795TIP3   OH241341   7.504   1.485   2.435
13795TIP3    H141342   7.427   1.472   2.490
13795TIP3    H241343   7.574   1.437   2.479
13796TIP3   OH241344   5.532   6.941   4.995
13796TIP3    H141345   5.581   6.918   4.916
13796TIP3    H241346   5.588   7.003   5.042
13797TIP3   OH241347   6.383   6.048   2.494
13797TIP3    H141348   6.475   6.038   2.517
13797TIP3    H241349   6.354   5.960   2.470
13798TIP3   OH241350   1.194   6.582   4.371
13798TIP3    H141351   1.285   6.612   4.372
13798TIP3    H241352   1.187   6.531   4.290
13799TIP3   OH241353   4.847   6.019   3.124
13799TIP3    H141354   4.764   6.061   3.101
13799TIP3    H241355   4.907   6.044   3.053
13800TIP3   OH241356   5.079   3.689   4.186
13800TIP3    H141357   5.023   3.668   4.112
13800TIP3    H241358   5.165   3.706   4.147
13801TIP3   OH241359   6.410   6.725   6.567
13801TIP3    H141360   6.471   6.799   6.557
13801TIP3    H241361   6.466   6.648   6.566
13802TIP3   OH241362   8.203   1.845   2.987
13802TIP3    H141363   8.181   1.753   3.001
13802TIP3    H241364   8.247   1.872   3.068
13803TIP3   OH241365   3.660   4.195   3.306
13803TIP3    H141366   3.614   4.268   3.265
13803TIP3    H241367   3.607   4.172   3.382
13804TIP3   OH241368   4.749   2.332   1.244
13804TIP3    H141369   4.802   2.270   1.293
13804TIP3    H241370   4.701   2.381   1.311
13805TIP3   OH241371   5.830   0.494   6.073
13805TIP3    H141372   5.765   0.425   6.060
13805TIP3    H241373   5.914   0.447   6.075
13806TIP3   OH241374   7.944   5.919   0.706
13806TIP3    H141375   7.960   6.013   0.715
13806TIP3    H241376   7.938   5.904   0.612
13807TIP3   OH241377   7.345   3.024   4.189
13807TIP3    H141378   7.264   3.047   4.234
13807TIP3    H241379   7.394   3.107   4.185
13808TIP3   OH241380   5.538   6.053   6.242
13808TIP3    H141381   5.449   6.022   6.262
13808TIP3    H241382   5.571   5.991   6.177
13809TIP3   OH241383   5.504   3.817   1.124
13809TIP3    H141384   5.503   3.834   1.218
13809TIP3    H241385   5.429   3.866   1.091
13810TIP3   OH241386   6.663   1.228   0.759
13810TIP3    H141387   6.658   1.179   0.841
13810TIP3    H241388   6.744   1.197   0.717
13811TIP3   OH241389   1.515   4.700   4.020
13811TIP3    H141390   1.425   4.693   4.050
13811TIP3    H241391   1.568   4.694   4.100
13812TIP3   OH241392   0.242   0.858   0.693
13812TIP3    H141393   0.197   0.820   0.618
13812TIP3    H241394   0.196   0.940   0.710
13813TIP3   OH241395   1.749   5.556   4.353
13813TIP3    H141396   1.822   5.615   4.371
13813TIP3    H241397   1.739   5.558   4.258
13814TIP3   OH241398   3.234   5.939   0.155
13814TIP3    H141399   3.182   5.887   0.216
13814TIP3    H241400   3.241   6.025   0.196
13815TIP3   OH241401   3.814   4.245   2.514
13815TIP3    H141402   3.765   4.228   2.595
13815TIP3    H241403   3.781   4.330   2.484
13816TIP3   OH241404   3.332   3.973   3.842
13816TIP3    H141405   3.309   3.928   3.923
13816TIP3    H241406   3.268   4.043   3.835
13817TIP3   OH241407   4.230   1.569   2.442
13817TIP3    H141408   4.198   1.630   2.375
13817TIP3    H241409   4.210   1.482   2.406
13818TIP3   OH241410   7.546   4.905   3.918
13818TIP3    H141411   7.580   4.976   3.973
13818TIP3    H241412   7.487   4.856   3.975
13819TIP3   OH241413   2.512   7.608   1.167
13819TIP3    H141414   2.545   7.578   1.082
13819TIP3    H241415   2.590   7.615   1.222
13820TIP3   OH241416   6.842   4.784   5.084
13820TIP3    H141417   6.790   4.718   5.129
13820TIP3    H241418   6.833   4.862   5.138
13821TIP3   OH241419   3.597   0.521   5.038
13821TIP3    H141420   3.522   0.544   4.984
13821TIP3    H241421   3.585   0.571   5.119
13822TIP3   OH241422   5.206   2.113   1.784
13822TIP3    H141423   5.226   2.179   1.718
13822TIP3    H241424   5.166   2.163   1.856
13823TIP3   OH241425   7.211   4.736   0.138
13823TIP3    H141426   7.280   4.673   0.119
13823TIP3    H241427   7.185   4.770   0.052
13824TIP3   OH241428   6.150   0.858   1.833
13824TIP3    H141429   6.130   0.884   1.923
13824TIP3    H241430   6.084   0.903   1.780
13825TIP3   OH241431   6.351   6.478   4.287
13825TIP3    H141432   6.431   6.442   4.326
13825TIP3    H241433   6.280   6.435   4.333
13826TIP3   OH241434   2.482   5.917   0.631
13826TIP3    H141435   2.522   5.992   0.587
13826TIP3    H241436   2.433   5.956   0.704
13827TIP3   OH241437   1.689   0.054   1.104
13827TIP3    H141438   1.769   0.037   1.054
13827TIP3    H241439   1.618   0.045   1.040
13828TIP3   OH241440   2.389   0.579   6.267
13828TIP3    H141441   2.374   0.491   6.302
13828TIP3    H241442   2.305   0.604   6.228
13829TIP3   OH241443   0.526   7.629   2.650
13829TIP3    H141444   0.444   7.649   2.694
13829TIP3    H241445   0.582   7.705   2.667
13830TIP3   OH241446   5.385   0.696   5.825
13830TIP3    H141447   5.379   0.632   5.754
13830TIP3    H241448   5.388   0.781   5.781
13831TIP3   OH241449   0.544   2.755   6.355
13831TIP3    H141450   0.513   2.803   6.432
13831TIP3    H241451   0.567   2.823   6.292
13832TIP3   OH241452   0.392   7.592   5.410
13832TIP3    H141453   0.455   7.571   5.478
13832TIP3    H241454   0.432   7.664   5.361
13833TIP3   OH241455   1.035   4.932   5.260
13833TIP3    H141456   1.121   4.962   5.289
13833TIP3    H241457   1.040   4.836   5.266
13834TIP3   OH241458   7.370   5.260   0.960
13834TIP3    H141459   7.379   5.313   0.881
13834TIP3    H241460   7.300   5.302   1.010
13835TIP3   OH241461   4.383   1.074   4.642
13835TIP3    H141462   4.392   1.061   4.736
13835TIP3    H241463   4.431   1.000   4.603
13836TIP3   OH241464   5.507   5.211   3.367
13836TIP3    H141465   5.541   5.147   3.429
13836TIP3    H241466   5.439   5.164   3.318
13837TIP3   OH241467   1.482   5.709   2.287
13837TIP3    H141468   1.412   5.646   2.272
13837TIP3    H241469   1.524   5.679   2.368
13838TIP3   OH241470   6.889   0.010   4.741
13838TIP3    H141471   6.859   0.028   4.652
13838TIP3    H241472   6.983  -0.003   4.733
13839TIP3   OH241473   5.014   6.204   1.647
13839TIP3    H141474   5.022   6.134   1.582
13839TIP3    H241475   5.083   6.185   1.711
13840TIP3   OH241476   7.849   1.033   3.226
13840TIP3    H141477   7.923   1.070   3.275
13840TIP3    H241478   7.880   0.948   3.196
13841TIP3   OH241479   7.812   0.635   0.663
13841TIP3    H141480   7.871   0.708   0.685
13841TIP3    H241481   7.834   0.566   0.726
13842TIP3   OH241482   3.962   4.290   3.382
13842TIP3    H141483   3.939   4.370   3.334
13842TIP3    H241484   4.016   4.240   3.321
13843TIP3   OH241485   2.389   6.557   6.766
13843TIP3    H141486   2.483   6.554   6.745
13843TIP3    H241487   2.345   6.540   6.683
13844TIP3   OH241488   0.496   6.640   2.403
13844TIP3    H141489   0.400   6.639   2.407
13844TIP3    H241490   0.523   6.585   2.477
13845TIP3   OH241491   1.878   4.719   3.457
13845TIP3    H141492   1.885   4.669   3.375
13845TIP3    H241493   1.819   4.791   3.436
13846TIP3   OH241494   1.581   1.578   0.773
13846TIP3    H141495   1.599   1.646   0.838
13846TIP3    H241496   1.493   1.546   0.797
13847TIP3   OH241497   4.998   1.118   2.060
13847TIP3    H141498   5.061   1.048   2.073
13847TIP3    H241499   4.968   1.141   2.148
13848TIP3   OH241500   0.349   6.946   6.005
13848TIP3    H141501   0.393   6.989   6.079
13848TIP3    H241502   0.355   7.009   5.933
13849TIP3   OH241503   0.593   5.965   5.323
13849TIP3    H141504   0.583   6.031   5.255
13849TIP3    H241505   0.687   5.952   5.331
13850TIP3   OH241506   5.754   0.977   4.697
13850TIP3    H141507   5.660   0.992   4.696
13850TIP3    H241508   5.784   1.008   4.611
13851TIP3   OH241509   2.861   0.796   5.603
13851TIP3    H141510   2.784   0.852   5.592
13851TIP3    H241511   2.906   0.831   5.680
13852TIP3   OH241512   0.175   1.406   3.853
13852TIP3    H141513   0.169   1.412   3.948
13852TIP3    H241514   0.086   1.387   3.824
13853TIP3   OH241515   8.066   5.965   3.595
13853TIP3    H141516   8.112   6.012   3.664
13853TIP3    H241517   7.974   5.987   3.607
13854TIP3   OH241518   6.453   4.090   1.454
13854TIP3    H141519   6.425   4.043   1.532
13854TIP3    H241520   6.534   4.047   1.427
13855TIP3   OH241521   6.705   0.817   4.142
13855TIP3    H141522   6.690   0.847   4.232
13855TIP3    H241523   6.800   0.826   4.130
13856TIP3   OH241524   2.328   2.155   4.331
13856TIP3    H141525   2.414   2.196   4.325
13856TIP3    H241526   2.334   2.098   4.408
13857TIP3   OH241527   2.377   5.520   2.782
13857TIP3    H141528   2.323   5.561   2.849
13857TIP3    H241529   2.418   5.593   2.736
13858TIP3   OH241530   0.381   3.114   0.889
13858TIP3    H141531   0.475   3.124   0.878
13858TIP3    H241532   0.365   3.133   0.981
13859TIP3   OH241533   6.519   2.266   5.061
13859TIP3    H141534   6.597   2.211   5.052
13859TIP3    H241535   6.523   2.326   4.987
13860TIP3   OH241536   3.215   3.336   1.127
13860TIP3    H141537   3.217   3.304   1.036
13860TIP3    H241538   3.293   3.391   1.134
13861TIP3   OH241539   0.464   1.703   0.701
13861TIP3    H141540   0.418   1.657   0.631
13861TIP3    H241541   0.437   1.657   0.781
13862TIP3   OH241542   1.621   4.010   4.403
13862TIP3    H141543   1.665   4.095   4.411
13862TIP3    H241544   1.570   4.002   4.483
13863TIP3   OH241545   6.736   3.055   2.750
13863TIP3    H141546   6.661   2.996   2.743
13863TIP3    H241547   6.790   3.035   2.674
13864TIP3   OH241548   8.208   4.529   2.461
13864TIP3    H141549   8.153   4.454   2.440
13864TIP3    H241550   8.297   4.494   2.458
13865TIP3   OH241551   3.075   4.326   4.117
13865TIP3    H141552   2.982   4.321   4.095
13865TIP3    H241553   3.095   4.420   4.117
13866TIP3   OH241554   2.156   6.224   4.817
13866TIP3    H141555   2.216   6.226   4.891
13866TIP3    H241556   2.156   6.313   4.783
13867TIP3   OH241557   2.407   3.414   1.785
13867TIP3    H141558   2.437   3.387   1.698
13867TIP3    H241559   2.324   3.458   1.769
13868TIP3   OH241560   0.254   6.653   0.740
13868TIP3    H141561   0.315   6.640   0.667
13868TIP3    H241562   0.171   6.619   0.708
13869TIP3   OH241563   6.933   1.789   4.722
13869TIP3    H141564   6.900   1.765   4.636
13869TIP3    H241565   6.968   1.708   4.759
13870TIP3   OH241566   6.108   1.452   5.106
13870TIP3    H141567   6.160   1.527   5.077
13870TIP3    H241568   6.111   1.457   5.201
13871TIP3   OH241569   3.550   2.330   0.651
13871TIP3    H141570   3.481   2.286   0.701
13871TIP3    H241571   3.615   2.356   0.717
13872TIP3   OH241572   7.873   3.213   0.512
13872TIP3    H141573   7.868   3.135   0.457
13872TIP3    H241574   7.879   3.286   0.451
13873TIP3   OH241575   1.359   5.273   3.517
13873TIP3    H141576   1.356   5.180   3.538
13873TIP3    H241577   1.449   5.299   3.535
13874TIP3   OH241578   4.265   3.365   2.001
13874TIP3    H141579   4.225   3.335   2.083
13874TIP3    H241580   4.206   3.433   1.968
13875TIP3   OH241581   8.156   0.808   4.263
13875TIP3    H141582   8.136   0.889   4.216
13875TIP3    H241583   8.076   0.789   4.313
13876TIP3   OH241584   4.399   4.273   3.919
13876TIP3    H141585   4.350   4.354   3.908
13876TIP3    H241586   4.430   4.252   3.831
13877TIP3   OH241587   6.172   0.088   4.213
13877TIP3    H141588   6.201   0.033   4.285
13877TIP3    H241589   6.246   0.089   4.152
13878TIP3   OH241590   0.499   3.515   0.651
13878TIP3    H141591   0.490   3.565   0.569
13878TIP3    H241592   0.410   3.485   0.669
13879TIP3   OH241593   6.269   7.127   1.561
13879TIP3    H141594   6.198   7.089   1.614
13879TIP3    H241595   6.306   7.052   1.514
13880TIP3   OH241596   2.046   1.048   2.476
13880TIP3    H141597   2.116   1.016   2.419
13880TIP3    H241598   2.072   1.137   2.498
13881TIP3   OH241599   4.680   2.466   5.096
13881TIP3    H141600   4.679   2.493   5.188
13881TIP3    H241601   4.625   2.387   5.094
13882TIP3   OH241602   7.379   6.077   3.929
13882TIP3    H141603   7.428   6.092   3.848
13882TIP3    H241604   7.385   6.160   3.976
13883TIP3   OH241605   6.236   2.913   5.967
13883TIP3    H141606   6.310   2.891   6.025
13883TIP3    H241607   6.159   2.891   6.018
13884TIP3   OH241608   8.050   2.524   0.870
13884TIP3    H141609   7.956   2.505   0.872
13884TIP3    H241610   8.092   2.439   0.864
13885TIP3   OH241611   7.760   0.223   5.636
13885TIP3    H141612   7.773   0.299   5.693
13885TIP3    H241613   7.821   0.157   5.669
13886TIP3   OH241614   2.809   1.442   1.248
13886TIP3    H141615   2.835   1.439   1.155
13886TIP3    H241616   2.872   1.386   1.292
13887TIP3   OH241617   8.294   1.821   0.853
13887TIP3    H141618   8.224   1.886   0.861
13887TIP3    H241619   8.253   1.738   0.878
13888TIP3   OH241620   3.033   3.766   1.038
13888TIP3    H141621   3.020   3.687   1.091
13888TIP3    H241622   2.951   3.777   0.990
13889TIP3   OH241623   7.122   1.449   3.355
13889TIP3    H141624   7.116   1.380   3.289
13889TIP3    H241625   7.125   1.531   3.305
13890TIP3   OH241626   6.065   3.508   3.808
13890TIP3    H141627   6.089   3.455   3.731
13890TIP3    H241628   6.071   3.446   3.881
13891TIP3   OH241629   4.423   2.298   1.167
13891TIP3    H141630   4.433   2.347   1.248
13891TIP3    H241631   4.479   2.344   1.104
13892TIP3   OH241632   1.076   2.495   6.248
13892TIP3    H141633   1.024   2.422   6.281
13892TIP3    H241634   1.037   2.515   6.162
13893TIP3   OH241635   0.611   7.351   3.210
13893TIP3    H141636   0.611   7.446   3.198
13893TIP3    H241637   0.524   7.332   3.246
13894TIP3   OH241638   8.128   1.010   1.157
13894TIP3    H141639   8.206   1.024   1.211
13894TIP3    H241640   8.057   0.997   1.220
13895TIP3   OH241641   6.928   0.586   0.338
13895TIP3    H141642   7.020   0.560   0.330
13895TIP3    H241643   6.931   0.670   0.383
13896TIP3   OH241644   3.068   6.602   0.231
13896TIP3    H141645   3.106   6.666   0.291
13896TIP3    H241646   3.134   6.591   0.163
13897TIP3   OH241647   8.108   6.620   0.440
13897TIP3    H141648   8.117   6.568   0.360
13897TIP3    H241649   8.019   6.655   0.437
13898TIP3   OH241650   0.220   1.713   2.921
13898TIP3    H141651   0.220   1.626   2.962
13898TIP3    H241652   0.170   1.767   2.981
13899TIP3   OH241653   6.638   5.961   3.238
13899TIP3    H141654   6.609   5.906   3.165
13899TIP3    H241655   6.731   5.979   3.219
13900TIP3   OH241656   0.531   1.964   0.653
13900TIP3    H141657   0.601   1.937   0.594
13900TIP3    H241658   0.494   1.881   0.685
13901TIP3   OH241659   8.126   7.590   3.665
13901TIP3    H141660   8.088   7.515   3.711
13901TIP3    H241661   8.220   7.585   3.684
13902TIP3   OH241662   2.549   6.480   2.744
13902TIP3    H141663   2.472   6.517   2.786
13902TIP3    H241664   2.622   6.531   2.779
13903TIP3   OH241665   5.150   2.924   3.952
13903TIP3    H141666   5.184   2.842   3.916
13903TIP3    H241667   5.161   2.914   4.047
13904TIP3   OH241668   4.657   2.592   3.852
13904TIP3    H141669   4.676   2.627   3.765
13904TIP3    H241670   4.698   2.506   3.853
13905TIP3   OH241671   1.810   6.103   1.319
13905TIP3    H141672   1.812   6.031   1.256
13905TIP3    H241673   1.827   6.181   1.266
13906TIP3   OH241674   8.053   1.979   0.825
13906TIP3    H141675   8.007   1.914   0.878
13906TIP3    H241676   8.044   1.947   0.735
13907TIP3   OH241677   5.510   5.736   0.168
13907TIP3    H141678   5.431   5.682   0.173
13907TIP3    H241679   5.509   5.772   0.079
13908TIP3   OH241680   3.709   3.038   4.848
13908TIP3    H141681   3.706   3.110   4.912
13908TIP3    H241682   3.782   2.983   4.877
13909TIP3   OH241683   6.528   6.108   2.819
13909TIP3    H141684   6.451   6.051   2.820
13909TIP3    H241685   6.496   6.192   2.787
13910TIP3   OH241686   0.807   3.177   1.912
13910TIP3    H141687   0.755   3.201   1.989
13910TIP3    H241688   0.745   3.132   1.855
13911TIP3   OH241689   1.415   4.285   3.617
13911TIP3    H141690   1.399   4.315   3.528
13911TIP3    H241691   1.392   4.359   3.673
13912TIP3   OH241692   5.470   0.167   3.592
13912TIP3    H141693   5.377   0.172   3.571
13912TIP3    H241694   5.506   0.103   3.529
13913TIP3   OH241695   7.491   4.339   1.074
13913TIP3    H141696   7.516   4.413   1.019
13913TIP3    H241697   7.498   4.372   1.164
13914TIP3   OH241698   6.737   4.851   2.159
13914TIP3    H141699   6.719   4.789   2.089
13914TIP3    H241700   6.827   4.831   2.186
13915TIP3   OH241701   3.132   5.236   1.365
13915TIP3    H141702   3.096   5.301   1.304
13915TIP3    H241703   3.176   5.288   1.433
13916TIP3   OH241704   0.952   7.056   1.155
13916TIP3    H141705   1.045   7.077   1.166
13916TIP3    H241706   0.936   6.987   1.219
13917TIP3   OH241707   2.223   5.124   0.116
13917TIP3    H141708   2.154   5.102   0.179
13917TIP3    H241709   2.178   5.176   0.049
13918TIP3   OH241710   3.909   4.422   0.824
13918TIP3    H141711   3.868   4.342   0.790
13918TIP3    H241712   3.946   4.397   0.908
13919TIP3   OH241713   8.178   6.663   5.271
13919TIP3    H141714   8.097   6.680   5.223
13919TIP3    H241715   8.206   6.576   5.241
13920TIP3   OH241716   2.765   7.544   6.652
13920TIP3    H141717   2.739   7.631   6.683
13920TIP3    H241718   2.704   7.524   6.582
13921TIP3   OH241719   0.170   4.788   0.485
13921TIP3    H141720   0.204   4.827   0.566
13921TIP3    H241721   0.209   4.841   0.415
13922TIP3   OH241722   2.040   4.471   2.563
13922TIP3    H141723   2.054   4.377   2.553
13922TIP3    H241724   1.963   4.490   2.509
13923TIP3   OH241725   1.667   6.814   2.427
13923TIP3    H141726   1.586   6.777   2.393
13923TIP3    H241727   1.653   6.822   2.522
13924TIP3   OH241728   4.253   3.812   2.827
13924TIP3    H141729   4.322   3.810   2.893
13924TIP3    H241730   4.297   3.843   2.747
13925TIP3   OH241731   2.986   7.767   1.748
13925TIP3    H141732   2.915   7.703   1.745
13925TIP3    H241733   2.961   7.833   1.684
13926TIP3   OH241734   2.900   3.459   1.537
13926TIP3    H141735   2.875   3.490   1.624
13926TIP3    H241736   2.917   3.366   1.549
13927TIP3   OH241737   0.372   4.735   5.041
13927TIP3    H141738   0.289   4.738   4.994
13927TIP3    H241739   0.436   4.774   4.980
13928TIP3   OH241740   7.258   6.425   5.391
13928TIP3    H141741   7.228   6.340   5.423
13928TIP3    H241742   7.178   6.473   5.371
13929TIP3   OH241743   7.523   2.356   1.563
13929TIP3    H141744   7.487   2.365   1.475
13929TIP3    H241745   7.522   2.262   1.580
13930TIP3   OH241746   8.061   6.606   2.291
13930TIP3    H141747   8.053   6.643   2.203
13930TIP3    H241748   7.972   6.580   2.314
13931TIP3   OH241749   1.855   6.356   2.844
13931TIP3    H141750   1.849   6.397   2.758
13931TIP3    H241751   1.878   6.265   2.826
13932TIP3   OH241752   0.710   3.110   3.858
13932TIP3    H141753   0.684   3.018   3.854
13932TIP3    H241754   0.748   3.128   3.772
13933TIP3   OH241755   3.685   6.978   5.509
13933TIP3    H141756   3.676   6.990   5.603
13933TIP3    H241757   3.645   7.057   5.471
13934TIP3   OH241758   3.606   7.319   4.068
13934TIP3    H141759   3.614   7.412   4.089
13934TIP3    H241760   3.673   7.304   4.002
13935TIP3   OH241761   0.145   2.897   1.714
13935TIP3    H141762   0.183   2.956   1.780
13935TIP3    H241763   0.053   2.924   1.709
13936TIP3   OH241764   7.145   2.069   6.496
13936TIP3    H141765   7.185   2.015   6.427
13936TIP3    H241766   7.208   2.067   6.568
13937TIP3   OH241767   2.446   3.473   0.010
13937TIP3    H141768   2.424   3.551  -0.041
13937TIP3    H241769   2.409   3.489   0.097
13938TIP3   OH241770   5.071   5.025   3.791
13938TIP3    H141771   5.033   5.052   3.874
13938TIP3    H241772   5.016   5.066   3.725
13939TIP3   OH241773   3.539   1.173   4.683
13939TIP3    H141774   3.567   1.159   4.773
13939TIP3    H241775   3.575   1.099   4.634
13940TIP3   OH241776   5.743   0.781   4.235
13940TIP3    H141777   5.679   0.709   4.231
13940TIP3    H241778   5.700   0.847   4.290
13941TIP3   OH241779   4.990   0.969   2.543
13941TIP3    H141780   5.080   0.965   2.510
13941TIP3    H241781   4.991   0.913   2.621
13942TIP3   OH241782   3.762   7.390   4.431
13942TIP3    H141783   3.795   7.405   4.520
13942TIP3    H241784   3.671   7.363   4.444
13943TIP3   OH241785   2.712   6.805   2.096
13943TIP3    H141786   2.714   6.721   2.141
13943TIP3    H241787   2.622   6.814   2.066
13944TIP3   OH241788   3.645   4.803   5.023
13944TIP3    H141789   3.576   4.865   5.048
13944TIP3    H241790   3.678   4.768   5.106
13945TIP3   OH241791   1.407   2.569   3.014
13945TIP3    H141792   1.499   2.592   3.009
13945TIP3    H241793   1.362   2.653   3.031
13946TIP3   OH241794   2.828   7.135   0.173
13946TIP3    H141795   2.865   7.144   0.260
13946TIP3    H241796   2.741   7.176   0.179
13947TIP3   OH241797   7.034   1.823   1.417
13947TIP3    H141798   7.095   1.770   1.467
13947TIP3    H241799   7.034   1.785   1.329
13948TIP3   OH241800   3.504   4.664   2.823
13948TIP3    H141801   3.415   4.657   2.789
13948TIP3    H241802   3.501   4.616   2.906
13949TIP3   OH241803   4.555   0.793   2.255
13949TIP3    H141804   4.481   0.740   2.284
13949TIP3    H241805   4.596   0.742   2.186
13950TIP3   OH241806   6.255   2.448   2.242
13950TIP3    H141807   6.227   2.523   2.294
13950TIP3    H241808   6.315   2.485   2.176
13951TIP3   OH241809   5.377   2.010   5.095
13951TIP3    H141810   5.424   2.002   5.179
13951TIP3    H241811   5.326   2.091   5.104
13952TIP3   OH241812   0.769   4.045   5.478
13952TIP3    H141813   0.854   4.081   5.500
13952TIP3    H241814   0.760   3.967   5.533
13953TIP3   OH241815   0.189   5.862   2.175
13953TIP3    H141816   0.144   5.946   2.183
13953TIP3    H241817   0.173   5.835   2.085
13954TIP3   OH241818   4.565   3.842   5.595
13954TIP3    H141819   4.483   3.880   5.562
13954TIP3    H241820   4.590   3.897   5.669
13955TIP3   OH241821   3.025   3.648   5.308
13955TIP3    H141822   3.076   3.567   5.312
13955TIP3    H241823   2.986   3.648   5.221
13956TIP3   OH241824   6.750   1.864   4.175
13956TIP3    H141825   6.680   1.857   4.240
13956TIP3    H241826   6.826   1.825   4.217
13957TIP3   OH241827   6.217   1.400   1.855
13957TIP3    H141828   6.290   1.398   1.793
13957TIP3    H241829   6.215   1.312   1.892
13958TIP3   OH241830   7.395   2.360   0.518
13958TIP3    H141831   7.467   2.416   0.489
13958TIP3    H241832   7.356   2.407   0.592
13959TIP3   OH241833   1.851   1.420   1.331
13959TIP3    H141834   1.868   1.343   1.384
13959TIP3    H241835   1.918   1.418   1.262
13960TIP3   OH241836   0.298   0.036   1.280
13960TIP3    H141837   0.309   0.106   1.345
13960TIP3    H241838   0.313   0.079   1.196
13961TIP3   OH241839   7.505   0.069   1.090
13961TIP3    H141840   7.479   0.117   1.169
13961TIP3    H241841   7.422   0.044   1.049
13962TIP3   OH241842   7.693   4.503   5.397
13962TIP3    H141843   7.633   4.570   5.364
13962TIP3    H241844   7.693   4.435   5.330
13963TIP3   OH241845   3.200   4.664   2.478
13963TIP3    H141846   3.264   4.648   2.409
13963TIP3    H241847   3.125   4.609   2.454
13964TIP3   OH241848   0.653   0.345   2.380
13964TIP3    H141849   0.579   0.285   2.379
13964TIP3    H241850   0.644   0.392   2.463
13965TIP3   OH241851   2.504   3.856   2.334
13965TIP3    H141852   2.546   3.930   2.291
13965TIP3    H241853   2.509   3.785   2.270
13966TIP3   OH241854   6.418   4.192   5.072
13966TIP3    H141855   6.383   4.119   5.123
13966TIP3    H241856   6.395   4.270   5.122
13967TIP3   OH241857   4.736   0.557   4.712
13967TIP3    H141858   4.658   0.605   4.739
13967TIP3    H241859   4.794   0.624   4.674
13968TIP3   OH241860   5.318   3.578   5.929
13968TIP3    H141861   5.309   3.659   5.878
13968TIP3    H241862   5.403   3.587   5.973
13969TIP3   OH241863   6.019   0.934   0.229
13969TIP3    H141864   5.989   1.023   0.210
13969TIP3    H241865   6.104   0.927   0.185
13970TIP3   OH241866   6.504   3.644   0.047
13970TIP3    H141867   6.481   3.554   0.071
13970TIP3    H241868   6.563   3.673   0.116
13971TIP3   OH241869   0.773   5.990   6.572
13971TIP3    H141870   0.836   6.044   6.526
13971TIP3    H241871   0.704   5.972   6.508
13972TIP3   OH241872   6.204   7.284   5.187
13972TIP3    H141873   6.266   7.356   5.170
13972TIP3    H241874   6.221   7.221   5.117
13973TIP3   OH241875   1.351   0.996   2.970
13973TIP3    H141876   1.361   0.973   3.062
13973TIP3    H241877   1.392   0.924   2.922
13974TIP3   OH241878   3.290   2.221   0.906
13974TIP3    H141879   3.314   2.180   0.823
13974TIP3    H241880   3.342   2.175   0.972
13975TIP3   OH241881   2.549   2.230   4.562
13975TIP3    H141882   2.631   2.215   4.516
13975TIP3    H241883   2.576   2.253   4.651
13976TIP3   OH241884   0.400   7.546   6.147
13976TIP3    H141885   0.408   7.631   6.190
13976TIP3    H241886   0.342   7.496   6.204
13977TIP3   OH241887   3.945   6.298   3.303
13977TIP3    H141888   4.008   6.333   3.241
13977TIP3    H241889   3.866   6.351   3.290
13978TIP3   OH241890   0.087   5.177   6.552
13978TIP3    H141891   0.182   5.173   6.544
13978TIP3    H241892   0.071   5.232   6.629
13979TIP3   OH241893   5.257   3.890   0.386
13979TIP3    H141894   5.222   3.919   0.302
13979TIP3    H241895   5.300   3.967   0.422
13980TIP3   OH241896   1.503   5.828   1.522
13980TIP3    H141897   1.502   5.923   1.538
13980TIP3    H241898   1.574   5.816   1.458
13981TIP3   OH241899   4.606   3.792   3.340
13981TIP3    H141900   4.620   3.864   3.401
13981TIP3    H241901   4.514   3.799   3.315
13982TIP3   OH241902   3.252   5.016   0.263
13982TIP3    H141903   3.210   5.101   0.267
13982TIP3    H241904   3.276   5.004   0.171
13983TIP3   OH241905   1.373   5.302   4.507
13983TIP3    H141906   1.363   5.283   4.601
13983TIP3    H241907   1.467   5.295   4.491
13984TIP3   OH241908   8.181   4.500   1.001
13984TIP3    H141909   8.200   4.519   1.093
13984TIP3    H241910   8.085   4.500   0.996
13985TIP3   OH241911   2.602   3.115   4.100
13985TIP3    H141912   2.515   3.153   4.090
13985TIP3    H241913   2.614   3.109   4.195
13986TIP3   OH241914   0.871   4.141   3.245
13986TIP3    H141915   0.882   4.138   3.340
13986TIP3    H241916   0.912   4.223   3.219
13987TIP3   OH241917   8.110   2.970   0.401
13987TIP3    H141918   8.140   3.012   0.320
13987TIP3    H241919   8.132   2.878   0.390
13988TIP3   OH241920   3.851   2.103   0.446
13988TIP3    H141921   3.922   2.152   0.487
13988TIP3    H241922   3.836   2.148   0.363
13989TIP3   OH241923   1.056   3.964   5.687
13989TIP3    H141924   1.117   3.901   5.726
13989TIP3    H241925   0.973   3.918   5.683
13990TIP3   OH241926   5.799   0.335   5.340
13990TIP3    H141927   5.761   0.416   5.305
13990TIP3    H241928   5.782   0.340   5.434
13991TIP3   OH241929   0.817   2.720   6.529
13991TIP3    H141930   0.765   2.640   6.525
13991TIP3    H241931   0.834   2.734   6.622
13992TIP3   OH241932   0.258   0.153   5.122
13992TIP3    H141933   0.260   0.085   5.190
13992TIP3    H241934   0.289   0.109   5.043
13993TIP3   OH241935   0.392   5.855   2.947
13993TIP3    H141936   0.360   5.825   2.862
13993TIP3    H241937   0.485   5.873   2.932
13994TIP3   OH241938   8.174   3.132   5.651
13994TIP3    H141939   8.182   3.099   5.741
13994TIP3    H241940   8.194   3.225   5.659
13995TIP3   OH241941   6.082   4.670   1.839
13995TIP3    H141942   6.145   4.602   1.814
13995TIP3    H241943   5.998   4.638   1.808
13996TIP3   OH241944   6.940   4.954   0.614
13996TIP3    H141945   6.996   5.015   0.661
13996TIP3    H241946   6.883   4.917   0.681
13997TIP3   OH241947   6.966   2.126   3.137
13997TIP3    H141948   6.913   2.048   3.126
13997TIP3    H241949   6.934   2.168   3.216
13998TIP3   OH241950   3.135   5.877   3.594
13998TIP3    H141951   3.150   5.782   3.586
13998TIP3    H241952   3.151   5.895   3.687
13999TIP3   OH241953   2.037   4.322   2.210
13999TIP3    H141954   1.987   4.372   2.274
13999TIP3    H241955   1.987   4.240   2.200
14000TIP3   OH241956   5.835   3.450   1.726
14000TIP3    H141957   5.881   3.513   1.671
14000TIP3    H241958   5.892   3.437   1.801
14001TIP3   OH241959   5.152   3.923   6.270
14001TIP3    H141960   5.114   4.010   6.260
14001TIP3    H241961   5.219   3.933   6.338
14002TIP3   OH241962   1.443   3.123   3.737
14002TIP3    H141963   1.388   3.053   3.772
14002TIP3    H241964   1.385   3.170   3.677
14003TIP3   OH241965   2.448   0.245   2.455
14003TIP3    H141966   2.521   0.277   2.508
14003TIP3    H241967   2.376   0.306   2.475
14004TIP3   OH241968   7.745   4.779   4.447
14004TIP3    H141969   7.806   4.738   4.386
14004TIP3    H241970   7.776   4.753   4.534
14005TIP3   OH241971   4.494   3.874   4.451
14005TIP3    H141972   4.448   3.954   4.424
14005TIP3    H241973   4.552   3.854   4.377
14006TIP3   OH241974   5.527   0.586   4.461
14006TIP3    H141975   5.610   0.562   4.502
14006TIP3    H241976   5.506   0.511   4.405
14007TIP3   OH241977   7.886   6.473   1.237
14007TIP3    H141978   7.868   6.563   1.267
14007TIP3    H241979   7.981   6.463   1.247
14008TIP3   OH241980   1.341   0.580   4.177
14008TIP3    H141981   1.419   0.557   4.126
14008TIP3    H241982   1.328   0.673   4.160
14009TIP3   OH241983   0.141   2.945   1.349
14009TIP3    H141984   0.167   2.909   1.264
14009TIP3    H241985   0.223   2.957   1.396
14010TIP3   OH241986   6.190   0.713   2.358
14010TIP3    H141987   6.224   0.738   2.444
14010TIP3    H241988   6.108   0.667   2.377
14011TIP3   OH241989   2.635   5.712   2.123
14011TIP3    H141990   2.730   5.719   2.134
14011TIP3    H241991   2.621   5.725   2.029
14012TIP3   OH241992   6.424   4.344   5.582
14012TIP3    H141993   6.475   4.334   5.662
14012TIP3    H241994   6.333   4.350   5.612
14013TIP3   OH241995   3.341   0.617   6.294
14013TIP3    H141996   3.302   0.536   6.261
14013TIP3    H241997   3.395   0.589   6.368
14014TIP3   OH241998   4.619   1.002   2.930
14014TIP3    H141999   4.624   0.951   3.011
14014TIP3    H242000   4.640   0.938   2.861
14015TIP3   OH242001   4.840   3.772   5.515
14015TIP3    H142002   4.866   3.693   5.562
14015TIP3    H242003   4.764   3.805   5.562
14016TIP3   OH242004   3.891   5.864   6.020
14016TIP3    H142005   3.911   5.814   6.098
14016TIP3    H242006   3.798   5.848   6.004
14017TIP3   OH242007   1.613   6.558   5.067
14017TIP3    H142008   1.583   6.573   4.978
14017TIP3    H242009   1.575   6.629   5.119
14018TIP3   OH242010   3.456   7.642   5.133
14018TIP3    H142011   3.419   7.714   5.083
14018TIP3    H242012   3.425   7.657   5.223
14019TIP3   OH242013   2.354   2.311   0.486
14019TIP3    H142014   2.286   2.375   0.506
14019TIP3    H242015   2.381   2.331   0.396
14020TIP3   OH242016   2.689   5.935   5.367
14020TIP3    H142017   2.767   5.989   5.370
14020TIP3    H242018   2.691   5.885   5.449
14021TIP3   OH242019   4.704   2.373   1.614
14021TIP3    H142020   4.715   2.450   1.670
14021TIP3    H242021   4.729   2.299   1.669
14022TIP3   OH242022   0.396   1.480   2.383
14022TIP3    H142023   0.329   1.471   2.450
14022TIP3    H242024   0.353   1.455   2.302
14023TIP3   OH242025   6.445   1.384   5.724
14023TIP3    H142026   6.502   1.312   5.699
14023TIP3    H242027   6.426   1.429   5.641
14024TIP3   OH242028   2.037   0.612   5.282
14024TIP3    H142029   1.999   0.700   5.277
14024TIP3    H242030   2.129   0.626   5.305
14025TIP3   OH242031   2.034   1.528   4.959
14025TIP3    H142032   2.125   1.534   4.990
14025TIP3    H242033   2.042   1.511   4.865
14026TIP3   OH242034   6.450   4.461   2.038
14026TIP3    H142035   6.523   4.408   2.007
14026TIP3    H242036   6.388   4.464   1.965
14027TIP3   OH242037   5.108   0.824   0.614
14027TIP3    H142038   5.079   0.738   0.644
14027TIP3    H242039   5.049   0.844   0.541
14028TIP3   OH242040   2.478   0.782   2.927
14028TIP3    H142041   2.484   0.878   2.924
14028TIP3    H242042   2.496   0.760   3.018
14029TIP3   OH242043   3.873   4.910   2.291
14029TIP3    H142044   3.942   4.885   2.353
14029TIP3    H242045   3.857   4.831   2.240
14030TIP3   OH242046   5.998   6.224   6.614
14030TIP3    H142047   6.014   6.281   6.539
14030TIP3    H242048   6.004   6.136   6.578
14031TIP3   OH242049   6.402   2.910   1.358
14031TIP3    H142050   6.344   2.981   1.331
14031TIP3    H242051   6.489   2.950   1.362
14032TIP3   OH242052   5.295   5.361   0.725
14032TIP3    H142053   5.294   5.323   0.637
14032TIP3    H242054   5.206   5.348   0.758
14033TIP3   OH242055   6.875   1.230   4.901
14033TIP3    H142056   6.848   1.318   4.878
14033TIP3    H242057   6.917   1.196   4.822
14034TIP3   OH242058   4.620   1.747   0.125
14034TIP3    H142059   4.664   1.832   0.131
14034TIP3    H242060   4.655   1.697   0.199
14035TIP3   OH242061   1.264   7.378   3.769
14035TIP3    H142062   1.190   7.395   3.827
14035TIP3    H242063   1.306   7.300   3.805
14036TIP3   OH242064   2.211   1.526   2.850
14036TIP3    H142065   2.127   1.562   2.824
14036TIP3    H242066   2.236   1.469   2.777
14037TIP3   OH242067   6.766   7.142   4.275
14037TIP3    H142068   6.699   7.189   4.225
14037TIP3    H242069   6.723   7.119   4.357
14038TIP3   OH242070   2.562   0.464   5.821
14038TIP3    H142071   2.483   0.442   5.772
14038TIP3    H242072   2.572   0.393   5.884
14039TIP3   OH242073   2.665   1.790   5.221
14039TIP3    H142074   2.635   1.740   5.296
14039TIP3    H242075   2.690   1.875   5.257
14040TIP3   OH242076   8.194   0.461   5.572
14040TIP3    H142077   8.264   0.427   5.628
14040TIP3    H242078   8.170   0.545   5.613
14041TIP3   OH242079   8.025   4.163   4.495
14041TIP3    H142080   8.011   4.079   4.450
14041TIP3    H242081   7.943   4.179   4.541
14042TIP3   OH242082   5.082   2.143   4.275
14042TIP3    H142083   5.016   2.074   4.287
14042TIP3    H242084   5.062   2.180   4.189
14043TIP3   OH242085   1.520   1.369   3.428
14043TIP3    H142086   1.470   1.438   3.384
14043TIP3    H242087   1.488   1.288   3.390
14044TIP3   OH242088   5.602   0.370   6.431
14044TIP3    H142089   5.573   0.295   6.482
14044TIP3    H242090   5.527   0.392   6.376
14045TIP3   OH242091   3.895   2.960   2.861
14045TIP3    H142092   3.966   2.897   2.871
14045TIP3    H242093   3.828   2.912   2.812
14046TIP3   OH242094   2.877   3.216   6.074
14046TIP3    H142095   2.953   3.186   6.025
14046TIP3    H242096   2.903   3.302   6.108
14047TIP3   OH242097   1.391   1.010   4.480
14047TIP3    H142098   1.353   1.037   4.564
14047TIP3    H242099   1.462   1.073   4.465
14048TIP3   OH242100   4.907   5.510   3.630
14048TIP3    H142101   4.859   5.462   3.563
14048TIP3    H242102   4.862   5.594   3.636
14049TIP3   OH242103   5.998   1.494   2.323
14049TIP3    H142104   6.092   1.481   2.338
14049TIP3    H242105   5.995   1.571   2.266
14050TIP3   OH242106   0.398   4.227   3.525
14050TIP3    H142107   0.394   4.288   3.599
14050TIP3    H242108   0.403   4.141   3.565
14051TIP3   OH242109   7.936   3.165   3.501
14051TIP3    H142110   7.841   3.178   3.500
14051TIP3    H242111   7.958   3.159   3.594
14052TIP3   OH242112   7.766   6.244   2.459
14052TIP3    H142113   7.860   6.227   2.471
14052TIP3    H242114   7.735   6.170   2.406
14053TIP3   OH242115   0.055   4.700   3.404
14053TIP3    H142116   0.124   4.709   3.469
14053TIP3    H242117   0.100   4.697   3.320
14054TIP3   OH242118   0.567   3.226   1.612
14054TIP3    H142119   0.620   3.305   1.600
14054TIP3    H242120   0.629   3.160   1.641
14055TIP3   OH242121   2.012   4.655   6.372
14055TIP3    H142122   2.098   4.616   6.356
14055TIP3    H242123   2.007   4.663   6.467
14056TIP3   OH242124   1.796   1.302   5.697
14056TIP3    H142125   1.847   1.371   5.740
14056TIP3    H242126   1.854   1.226   5.696
14057TIP3   OH242127   6.066   4.310   1.008
14057TIP3    H142128   6.155   4.283   0.985
14057TIP3    H242129   6.020   4.315   0.924
14058TIP3   OH242130   5.242   4.703   5.868
14058TIP3    H142131   5.242   4.774   5.932
14058TIP3    H242132   5.274   4.744   5.788
14059TIP3   OH242133   0.031   5.950   0.750
14059TIP3    H142134   0.053   5.858   0.761
14059TIP3    H242135   0.043   5.988   0.837
14060TIP3   OH242136   5.836   4.952   4.071
14060TIP3    H142137   5.829   4.883   4.137
14060TIP3    H242138   5.918   4.997   4.091
14061TIP3   OH242139   1.587   6.515   3.950
14061TIP3    H142140   1.679   6.518   3.979
14061TIP3    H242141   1.539   6.556   4.022
14062TIP3   OH242142   7.589   3.668   5.585
14062TIP3    H142143   7.547   3.735   5.531
14062TIP3    H242144   7.652   3.716   5.639
14063TIP3   OH242145   0.929   5.870   2.809
14063TIP3    H142146   0.942   5.875   2.904
14063TIP3    H242147   0.843   5.830   2.799
14064TIP3   OH242148   7.233   2.107   1.422
14064TIP3    H142149   7.188   2.145   1.498
14064TIP3    H242150   7.220   2.013   1.431
14065TIP3   OH242151   7.033   0.838   6.428
14065TIP3    H142152   7.074   0.756   6.457
14065TIP3    H242153   7.066   0.852   6.339
14066TIP3   OH242154   3.760   1.983   0.965
14066TIP3    H142155   3.755   1.921   0.892
14066TIP3    H242156   3.762   1.929   1.043
14067TIP3   OH242157   6.485   7.555   1.284
14067TIP3    H142158   6.400   7.586   1.253
14067TIP3    H242159   6.470   7.464   1.312
14068TIP3   OH242160   4.849   0.956   5.444
14068TIP3    H142161   4.816   0.997   5.364
14068TIP3    H242162   4.941   0.983   5.449
14069TIP3   OH242163   2.206   2.998   6.403
14069TIP3    H142164   2.183   2.908   6.379
14069TIP3    H242165   2.149   3.017   6.478
14070TIP3   OH242166   0.970   0.586   1.454
14070TIP3    H142167   0.943   0.672   1.421
14070TIP3    H242168   0.942   0.524   1.387
14071TIP3   OH242169   2.348   7.556   4.933
14071TIP3    H142170   2.419   7.524   4.877
14071TIP3    H242171   2.389   7.573   5.018
14072TIP3   OH242172   2.384   0.928   2.385
14072TIP3    H142173   2.468   0.956   2.348
14072TIP3    H242174   2.400   0.919   2.479
14073TIP3   OH242175   4.724   0.078   5.213
14073TIP3    H142176   4.798   0.107   5.159
14073TIP3    H242177   4.739   0.118   5.298
14074TIP3   OH242178   4.791   3.287   5.672
14074TIP3    H142179   4.803   3.193   5.656
14074TIP3    H242180   4.776   3.324   5.586
14075TIP3   OH242181   6.064   6.987   6.473
14075TIP3    H142182   5.989   6.937   6.440
14075TIP3    H242183   6.140   6.945   6.433
14076TIP3   OH242184   1.519   4.901   3.608
14076TIP3    H142185   1.598   4.913   3.555
14076TIP3    H242186   1.545   4.927   3.696
14077TIP3   OH242187   1.145   5.018   6.729
14077TIP3    H142188   1.156   5.107   6.696
14077TIP3    H242189   1.107   4.969   6.656
14078TIP3   OH242190   1.274   7.101   4.685
14078TIP3    H142191   1.295   7.185   4.725
14078TIP3    H242192   1.184   7.112   4.653
14079TIP3   OH242193   4.361   4.494   2.402
14079TIP3    H142194   4.360   4.405   2.369
14079TIP3    H242195   4.402   4.545   2.332
14080TIP3   OH242196   8.154   3.399   1.518
14080TIP3    H142197   8.237   3.436   1.549
14080TIP3    H242198   8.172   3.307   1.502
14081TIP3   OH242199   3.922   5.042   5.272
14081TIP3    H142200   3.897   4.981   5.342
14081TIP3    H242201   3.927   5.127   5.315
14082TIP3   OH242202   1.698   7.381   4.695
14082TIP3    H142203   1.710   7.300   4.646
14082TIP3    H242204   1.648   7.437   4.636
14083TIP3   OH242205   0.091   6.024   0.992
14083TIP3    H142206   0.145   6.092   1.033
14083TIP3    H242207   0.144   5.944   0.999
14084TIP3   OH242208   3.939   1.524   4.905
14084TIP3    H142209   3.970   1.580   4.977
14084TIP3    H242210   3.994   1.446   4.909
14085TIP3   OH242211   5.313   1.262   3.100
14085TIP3    H142212   5.363   1.264   3.019
14085TIP3    H242213   5.225   1.291   3.076
14086TIP3   OH242214   5.167   0.921   2.214
14086TIP3    H142215   5.170   0.881   2.301
14086TIP3    H242216   5.257   0.950   2.198
14087TIP3   OH242217   1.376   1.423   4.143
14087TIP3    H142218   1.381   1.492   4.076
14087TIP3    H242219   1.331   1.351   4.099
14088TIP3   OH242220   1.506   2.185   5.378
14088TIP3    H142221   1.515   2.162   5.471
14088TIP3    H242222   1.477   2.104   5.336
14089TIP3   OH242223   7.393   6.403   5.149
14089TIP3    H142224   7.361   6.442   5.230
14089TIP3    H242225   7.377   6.309   5.159
14090TIP3   OH242226   0.774   5.357   0.684
14090TIP3    H142227   0.824   5.435   0.709
14090TIP3    H242228   0.767   5.306   0.765
14091TIP3   OH242229   5.641   7.018   0.883
14091TIP3    H142230   5.671   6.989   0.969
14091TIP3    H242231   5.714   7.069   0.848
14092TIP3   OH242232   1.734   3.401   4.649
14092TIP3    H142233   1.785   3.379   4.571
14092TIP3    H242234   1.643   3.405   4.618
14093TIP3   OH242235   6.153   2.498   0.652
14093TIP3    H142236   6.122   2.469   0.567
14093TIP3    H242237   6.073   2.527   0.698
14094TIP3   OH242238   0.187   6.753   6.539
14094TIP3    H142239   0.161   6.709   6.620
14094TIP3    H242240   0.186   6.684   6.473
14095TIP3   OH242241   1.928   1.259   0.433
14095TIP3    H142242   1.859   1.207   0.393
14095TIP3    H242243   1.883   1.337   0.466
14096TIP3   OH242244   6.857   4.612   2.567
14096TIP3    H142245   6.788   4.668   2.529
14096TIP3    H242246   6.925   4.674   2.595
14097TIP3   OH242247   7.565   3.404   2.440
14097TIP3    H142248   7.469   3.397   2.440
14097TIP3    H242249   7.582   3.493   2.407
14098TIP3   OH242250   5.992   2.272   1.898
14098TIP3    H142251   6.085   2.247   1.895
14098TIP3    H242252   5.970   2.294   1.807
14099TIP3   OH242253   0.559   3.756   6.398
14099TIP3    H142254   0.629   3.760   6.333
14099TIP3    H242255   0.478   3.760   6.346
14100TIP3   OH242256   0.354   1.776   5.128
14100TIP3    H142257   0.300   1.714   5.079
14100TIP3    H242258   0.365   1.735   5.214
14101TIP3   OH242259   7.133   5.198   2.765
14101TIP3    H142260   7.160   5.260   2.833
14101TIP3    H242261   7.038   5.201   2.766
14102TIP3   OH242262   0.426   4.761   4.642
14102TIP3    H142263   0.377   4.759   4.560
14102TIP3    H242264   0.419   4.852   4.672
14103TIP3   OH242265   7.955   6.870   5.422
14103TIP3    H142266   7.907   6.790   5.445
14103TIP3    H242267   7.925   6.935   5.486
14104TIP3   OH242268   3.515   5.770   6.343
14104TIP3    H142269   3.568   5.780   6.422
14104TIP3    H242270   3.578   5.763   6.272
14105TIP3   OH242271   1.740   5.258   0.720
14105TIP3    H142272   1.707   5.183   0.770
14105TIP3    H242273   1.668   5.283   0.663
14106TIP3   OH242274   5.931   2.377   2.387
14106TIP3    H142275   5.920   2.385   2.292
14106TIP3    H242276   6.023   2.352   2.398
14107TIP3   OH242277   7.425   0.936   2.654
14107TIP3    H142278   7.443   1.024   2.620
14107TIP3    H242279   7.492   0.923   2.721
14108TIP3   OH242280   4.292   1.486   4.427
14108TIP3    H142281   4.238   1.458   4.501
14108TIP3    H242282   4.337   1.406   4.398
14109TIP3   OH242283   4.832   0.042   4.867
14109TIP3    H142284   4.741   0.026   4.889
14109TIP3    H242285   4.829   0.116   4.806
14110TIP3   OH242286   7.470   7.413   0.836
14110TIP3    H142287   7.534   7.453   0.896
14110TIP3    H242288   7.522   7.360   0.777
14111TIP3   OH242289   7.149   0.645   4.886
14111TIP3    H142290   7.204   0.711   4.929
14111TIP3    H242291   7.212   0.585   4.846
14112TIP3   OH242292   7.389   0.887   4.138
14112TIP3    H142293   7.426   0.903   4.051
14112TIP3    H242294   7.299   0.858   4.121
14113TIP3   OH242295   6.020   0.192   1.361
14113TIP3    H142296   6.025   0.134   1.437
14113TIP3    H242297   6.075   0.266   1.385
14114TIP3   OH242298   2.428   6.232   2.156
14114TIP3    H142299   2.500   6.241   2.219
14114TIP3    H242300   2.367   6.302   2.179
14115TIP3   OH242301   6.914   7.201   6.696
14115TIP3    H142302   6.864   7.260   6.753
14115TIP3    H242303   6.847   7.149   6.652
14116TIP3   OH242304   7.671   0.371   1.702
14116TIP3    H142305   7.585   0.406   1.726
14116TIP3    H242306   7.674   0.378   1.607
14117TIP3   OH242307   1.936   1.587   1.672
14117TIP3    H142308   1.929   1.498   1.708
14117TIP3    H242309   1.975   1.639   1.742
14118TIP3   OH242310   2.317   7.596   3.913
14118TIP3    H142311   2.322   7.555   4.000
14118TIP3    H242312   2.405   7.630   3.898
14119TIP3   OH242313   4.889   0.977   3.014
14119TIP3    H142314   4.811   0.960   3.067
14119TIP3    H242315   4.867   1.055   2.962
14120TIP3   OH242316   6.675   3.309   1.332
14120TIP3    H142317   6.619   3.380   1.364
14120TIP3    H242318   6.760   3.325   1.373
14121TIP3   OH242319   4.423   1.443   5.666
14121TIP3    H142320   4.356   1.408   5.607
14121TIP3    H242321   4.456   1.366   5.713
14122TIP3   OH242322   5.124   6.892   3.452
14122TIP3    H142323   5.126   6.814   3.509
14122TIP3    H242324   5.037   6.929   3.466
14123TIP3   OH242325   0.786   0.597   4.597
14123TIP3    H142326   0.872   0.609   4.635
14123TIP3    H242327   0.725   0.633   4.661
14124TIP3   OH242328   3.510   5.652   0.813
14124TIP3    H142329   3.469   5.595   0.877
14124TIP3    H242330   3.603   5.649   0.835
14125TIP3   OH242331   2.865   7.657   2.383
14125TIP3    H142332   2.924   7.630   2.313
14125TIP3    H242333   2.795   7.592   2.382
14126TIP3   OH242334   5.592   6.424   5.915
14126TIP3    H142335   5.522   6.359   5.916
14126TIP3    H242336   5.666   6.381   5.958
14127TIP3   OH242337   2.986   6.960   3.683
14127TIP3    H142338   2.909   7.016   3.667
14127TIP3    H242339   2.975   6.930   3.773
14128TIP3   OH242340   1.554   2.825   4.428
14128TIP3    H142341   1.476   2.769   4.435
14128TIP3    H242342   1.540   2.895   4.491
14129TIP3   OH242343   5.822   6.462   6.731
14129TIP3    H142344   5.825   6.526   6.801
14129TIP3    H242345   5.872   6.387   6.764
14130TIP3   OH242346   5.451   3.313   6.755
14130TIP3    H142347   5.471   3.384   6.693
14130TIP3    H242348   5.508   3.241   6.728
14131TIP3   OH242349   0.243   0.689   1.983
14131TIP3    H142350   0.268   0.720   1.897
14131TIP3    H242351   0.181   0.755   2.015
14132TIP3   OH242352   5.507   2.527   1.113
14132TIP3    H142353   5.470   2.439   1.109
14132TIP3    H242354   5.561   2.534   1.034
14133TIP3   OH242355   3.974   5.591   2.649
14133TIP3    H142356   3.936   5.656   2.707
14133TIP3    H242357   3.951   5.506   2.688
14134TIP3   OH242358   5.175   7.466   4.405
14134TIP3    H142359   5.168   7.378   4.368
14134TIP3    H242360   5.267   7.476   4.429
14135TIP3   OH242361   6.168   1.717   4.170
14135TIP3    H142362   6.123   1.799   4.150
14135TIP3    H242363   6.098   1.652   4.176
14136TIP3   OH242364   3.658   6.481   6.156
14136TIP3    H142365   3.702   6.396   6.143
14136TIP3    H242366   3.719   6.531   6.209
14137TIP3   OH242367   2.411   1.179   1.268
14137TIP3    H142368   2.322   1.170   1.236
14137TIP3    H242369   2.403   1.170   1.363
14138TIP3   OH242370   6.674   3.875   6.186
14138TIP3    H142371   6.739   3.892   6.118
14138TIP3    H242372   6.590   3.880   6.141
14139TIP3   OH242373   0.437   3.976   3.256
14139TIP3    H142374   0.395   3.903   3.302
14139TIP3    H242375   0.530   3.956   3.259
14140TIP3   OH242376   0.442   3.069   6.699
14140TIP3    H142377   0.401   3.126   6.763
14140TIP3    H242378   0.517   3.030   6.746
14141TIP3   OH242379   2.309   5.621   3.197
14141TIP3    H142380   2.356   5.700   3.224
14141TIP3    H242381   2.301   5.570   3.278
14142TIP3   OH242382   3.037   6.917   3.957
14142TIP3    H142383   3.116   6.927   4.010
14142TIP3    H242384   2.975   6.980   3.995
14143TIP3   OH242385   2.357   4.320   4.241
14143TIP3    H142386   2.361   4.411   4.270
14143TIP3    H242387   2.373   4.324   4.147
14144TIP3   OH242388   4.931   2.142   6.108
14144TIP3    H142389   4.835   2.147   6.110
14144TIP3    H242390   4.950   2.079   6.038
14145TIP3   OH242391   7.086   0.153   0.755
14145TIP3    H142392   7.139   0.186   0.683
14145TIP3    H242393   7.000   0.136   0.717
14146TIP3   OH242394   7.965   1.977   1.200
14146TIP3    H142395   7.929   1.912   1.260
14146TIP3    H242396   7.928   2.060   1.230
14147TIP3   OH242397   6.589   4.414   3.391
14147TIP3    H142398   6.625   4.386   3.307
14147TIP3    H242399   6.520   4.477   3.368
14148TIP3   OH242400   0.874   4.754   4.149
14148TIP3    H142401   0.903   4.826   4.206
14148TIP3    H242402   0.780   4.747   4.165
14149TIP3   OH242403   2.710   2.542   1.241
14149TIP3    H142404   2.624   2.507   1.264
14149TIP3    H242405   2.755   2.551   1.325
14150TIP3   OH242406   6.024   2.309   4.487
14150TIP3    H142407   5.951   2.371   4.488
14150TIP3    H242408   6.055   2.310   4.396
14151TIP3   OH242409   1.016   1.946   3.693
14151TIP3    H142410   0.977   1.935   3.606
14151TIP3    H242411   1.099   1.991   3.676
14152TIP3   OH242412   1.455   6.100   0.331
14152TIP3    H142413   1.361   6.112   0.319
14152TIP3    H242414   1.496   6.165   0.275
14153TIP3   OH242415   2.877   5.014   3.614
14153TIP3    H142416   2.953   5.052   3.571
14153TIP3    H242417   2.806   5.075   3.597
14154TIP3   OH242418   5.781   7.120   6.076
14154TIP3    H142419   5.819   7.149   6.159
14154TIP3    H242420   5.778   7.024   6.083
14155TIP3   OH242421   5.652   5.979   4.445
14155TIP3    H142422   5.589   6.051   4.446
14155TIP3    H242423   5.647   5.942   4.533
14156TIP3   OH242424   7.071   0.856   0.061
14156TIP3    H142425   7.070   0.761   0.049
14156TIP3    H242426   7.127   0.870   0.138
14157TIP3   OH242427   6.144   3.357   3.117
14157TIP3    H142428   6.112   3.354   3.027
14157TIP3    H242429   6.096   3.288   3.162
14158TIP3   OH242430   5.700   7.521   0.628
14158TIP3    H142431   5.717   7.528   0.722
14158TIP3    H242432   5.673   7.609   0.601
14159TIP3   OH242433   4.830   3.070   0.548
14159TIP3    H142434   4.785   3.015   0.612
14159TIP3    H242435   4.851   3.011   0.476
14160TIP3   OH242436   3.163   0.718   1.706
14160TIP3    H142437   3.134   0.808   1.697
14160TIP3    H242438   3.100   0.678   1.767
14161TIP3   OH242439   2.371   4.216   3.684
14161TIP3    H142440   2.318   4.231   3.606
14161TIP3    H242441   2.457   4.251   3.662
14162TIP3   OH242442   4.844   5.984   5.010
14162TIP3    H142443   4.935   5.955   5.021
14162TIP3    H242444   4.851   6.074   4.978
14163TIP3   OH242445   7.643   1.440   4.859
14163TIP3    H142446   7.604   1.437   4.771
14163TIP3    H242447   7.573   1.474   4.915
14164TIP3   OH242448   6.416   2.467   0.811
14164TIP3    H142449   6.459   2.385   0.788
14164TIP3    H242450   6.326   2.456   0.783
14165TIP3   OH242451   0.784   7.388   0.597
14165TIP3    H142452   0.869   7.344   0.607
14165TIP3    H242453   0.722   7.331   0.642
14166TIP3   OH242454   2.786   3.971   0.105
14166TIP3    H142455   2.720   3.906   0.081
14166TIP3    H242456   2.744   4.055   0.086
14167TIP3   OH242457   7.427   1.238   4.893
14167TIP3    H142458   7.466   1.159   4.931
14167TIP3    H242459   7.404   1.212   4.803
14168TIP3   OH242460   7.901   2.953   5.427
14168TIP3    H142461   7.876   2.937   5.336
14168TIP3    H242462   7.831   3.008   5.462
14169TIP3   OH242463   7.048   6.835   3.060
14169TIP3    H142464   7.054   6.740   3.045
14169TIP3    H242465   7.100   6.874   2.990
14170TIP3   OH242466   4.538   7.185   3.688
14170TIP3    H142467   4.506   7.138   3.612
14170TIP3    H242468   4.630   7.158   3.695
14171TIP3   OH242469  -0.050  -0.015   2.145
14171TIP3    H142470  -0.004  -0.051   2.069
14171TIP3    H242471   0.019  -0.002   2.210
14172TIP3   OH242472   2.870   7.462   0.828
14172TIP3    H142473   2.863   7.368   0.839
14172TIP3    H242474   2.798   7.498   0.880
14173TIP3   OH242475   6.756   3.753   2.846
14173TIP3    H142476   6.784   3.842   2.866
14173TIP3    H242477   6.674   3.763   2.798
14174TIP3   OH242478   4.196   0.620   5.465
14174TIP3    H142479   4.134   0.633   5.537
14174TIP3    H242480   4.218   0.526   5.469
14175TIP3   OH242481   3.125   1.786   0.568
14175TIP3    H142482   3.123   1.873   0.528
14175TIP3    H242483   3.143   1.727   0.494
14176TIP3   OH242484   3.636   0.851   2.683
14176TIP3    H142485   3.700   0.915   2.655
14176TIP3    H242486   3.561   0.864   2.624
14177TIP3   OH242487   0.376   5.279   3.770
14177TIP3    H142488   0.364   5.367   3.807
14177TIP3    H242489   0.294   5.262   3.723
14178TIP3   OH242490   7.679   1.860   3.802
14178TIP3    H142491   7.585   1.877   3.813
14178TIP3    H242492   7.717   1.884   3.886
14179TIP3   OH242493   3.615   3.303   6.191
14179TIP3    H142494   3.651   3.342   6.271
14179TIP3    H242495   3.627   3.370   6.124
14180TIP3   OH242496   0.111   3.197   4.701
14180TIP3    H142497   0.054   3.122   4.682
14180TIP3    H242498   0.053   3.261   4.743
14181TIP3   OH242499   2.929   4.578   0.693
14181TIP3    H142500   2.990   4.509   0.666
14181TIP3    H242501   2.859   4.574   0.628
14182TIP3   OH242502   0.855   2.748   6.244
14182TIP3    H142503   0.906   2.668   6.250
14182TIP3    H242504   0.836   2.772   6.334
14183TIP3   OH242505   2.188   0.737   3.105
14183TIP3    H142506   2.101   0.704   3.129
14183TIP3    H242507   2.236   0.661   3.075
14184TIP3   OH242508   4.516   2.768   5.230
14184TIP3    H142509   4.568   2.848   5.234
14184TIP3    H242510   4.533   2.724   5.313
14185TIP3   OH242511   2.667   0.283   2.643
14185TIP3    H142512   2.760   0.278   2.664
14185TIP3    H242513   2.624   0.237   2.715
14186TIP3   OH242514   2.968   2.724   0.919
14186TIP3    H142515   2.958   2.644   0.970
14186TIP3    H242516   2.932   2.703   0.833
14187TIP3   OH242517   2.489   6.129   5.302
14187TIP3    H142518   2.583   6.141   5.297
14187TIP3    H242519   2.475   6.037   5.278
14188TIP3   OH242520   4.630   2.855   1.613
14188TIP3    H142521   4.708   2.890   1.570
14188TIP3    H242522   4.568   2.839   1.541
14189TIP3   OH242523   7.791   7.240   3.922
14189TIP3    H142524   7.803   7.221   4.015
14189TIP3    H242525   7.836   7.169   3.877
14190TIP3   OH242526   7.736   7.541   3.695
14190TIP3    H142527   7.776   7.576   3.615
14190TIP3    H242528   7.742   7.446   3.685
14191TIP3   OH242529   2.721   5.002   1.245
14191TIP3    H142530   2.816   4.999   1.247
14191TIP3    H242531   2.700   5.018   1.153
14192TIP3   OH242532   5.012   6.503   3.493
14192TIP3    H142533   5.097   6.468   3.468
14192TIP3    H242534   4.949   6.449   3.444
14193TIP3   OH242535   0.262   7.493   5.903
14193TIP3    H142536   0.276   7.441   5.824
14193TIP3    H242537   0.308   7.445   5.972
14194TIP3   OH242538   6.015   3.312   1.908
14194TIP3    H142539   6.035   3.250   1.839
14194TIP3    H242540   5.986   3.258   1.982
14195TIP3   OH242541   5.048   4.168   6.086
14195TIP3    H142542   5.086   4.150   6.000
14195TIP3    H242543   5.108   4.232   6.125
14196TIP3   OH242544   0.272   0.663   1.090
14196TIP3    H142545   0.272   0.589   1.150
14196TIP3    H242546   0.254   0.624   1.004
14197TIP3   OH242547   6.572   0.319   2.016
14197TIP3    H142548   6.661   0.294   2.042
14197TIP3    H242549   6.516   0.252   2.056
14198TIP3   OH242550   5.729   5.156   2.893
14198TIP3    H142551   5.744   5.106   2.973
14198TIP3    H242552   5.634   5.162   2.886
14199TIP3   OH242553   7.906   2.786   5.661
14199TIP3    H142554   7.873   2.848   5.596
14199TIP3    H242555   7.911   2.703   5.615
14200TIP3   OH242556   4.550   0.591   1.120
14200TIP3    H142557   4.554   0.577   1.215
14200TIP3    H242558   4.622   0.538   1.085
14201TIP3   OH242559   5.781   0.209   0.326
14201TIP3    H142560   5.845   0.277   0.347
14201TIP3    H242561   5.809   0.175   0.241
14202TIP3   OH242562   3.111   3.594   1.465
14202TIP3    H142563   3.085   3.627   1.379
14202TIP3    H242564   3.051   3.521   1.482
14203TIP3   OH242565   7.973   2.409   4.124
14203TIP3    H142566   7.891   2.416   4.076
14203TIP3    H242567   7.960   2.460   4.204
14204TIP3   OH242568   0.118   1.003   5.407
14204TIP3    H142569   0.034   1.048   5.393
14204TIP3    H242570   0.142   0.970   5.321
14205TIP3   OH242571   4.622   7.599   4.731
14205TIP3    H142572   4.586   7.518   4.768
14205TIP3    H242573   4.640   7.655   4.807
14206TIP3   OH242574   3.492   7.081   4.634
14206TIP3    H142575   3.491   7.177   4.633
14206TIP3    H242576   3.572   7.058   4.587
14207TIP3   OH242577   0.447   3.528   2.777
14207TIP3    H142578   0.476   3.512   2.867
14207TIP3    H242579   0.407   3.615   2.780
14208TIP3   OH242580   5.698   5.386   5.955
14208TIP3    H142581   5.640   5.311   5.964
14208TIP3    H242582   5.779   5.359   5.998
14209TIP3   OH242583   1.736   4.660   4.733
14209TIP3    H142584   1.808   4.680   4.793
14209TIP3    H242585   1.753   4.571   4.702
14210TIP3   OH242586   7.141   0.854   5.755
14210TIP3    H142587   7.217   0.863   5.813
14210TIP3    H242588   7.162   0.777   5.701
14211TIP3   OH242589   4.817   2.604   3.020
14211TIP3    H142590   4.810   2.685   3.070
14211TIP3    H242591   4.893   2.560   3.056
14212TIP3   OH242592   3.917   2.269   4.667
14212TIP3    H142593   3.836   2.317   4.684
14212TIP3    H242594   3.982   2.337   4.649
14213TIP3   OH242595   5.035   0.677   4.012
14213TIP3    H142596   5.107   0.640   4.063
14213TIP3    H242597   4.961   0.679   4.073
14214TIP3   OH242598   7.002   5.968   2.778
14214TIP3    H142599   7.011   6.063   2.775
14214TIP3    H242600   6.908   5.952   2.769
14215TIP3   OH242601   0.795   4.946   2.158
14215TIP3    H142602   0.863   5.011   2.178
14215TIP3    H242603   0.739   4.990   2.094
14216TIP3   OH242604   8.219   2.779   5.706
14216TIP3    H142605   8.176   2.719   5.766
14216TIP3    H242606   8.147   2.828   5.666
14217TIP3   OH242607   1.674   4.320   3.718
14217TIP3    H142608   1.584   4.328   3.687
14217TIP3    H242609   1.674   4.362   3.804
14218TIP3   OH242610   0.639   6.622   6.016
14218TIP3    H142611   0.685   6.694   5.974
14218TIP3    H242612   0.565   6.663   6.060
14219TIP3   OH242613   6.851   5.670   1.742
14219TIP3    H142614   6.795   5.594   1.759
14219TIP3    H242615   6.866   5.668   1.648
14220TIP3   OH242616   5.572   6.529   0.495
14220TIP3    H142617   5.573   6.620   0.524
14220TIP3    H242618   5.522   6.530   0.413
14221TIP3   OH242619   2.391   1.041   3.549
14221TIP3    H142620   2.424   1.130   3.562
14221TIP3    H242621   2.369   1.037   3.455
14222TIP3   OH242622   5.895   6.218   2.021
14222TIP3    H142623   5.902   6.173   1.936
14222TIP3    H242624   5.864   6.306   1.999
14223TIP3   OH242625   5.203   5.842   6.710
14223TIP3    H142626   5.245   5.779   6.769
14223TIP3    H242627   5.182   5.791   6.632
14224TIP3   OH242628   2.740   6.056   0.990
14224TIP3    H142629   2.645   6.046   0.999
14224TIP3    H242630   2.753   6.073   0.897
14225TIP3   OH242631   2.208   4.282   5.878
14225TIP3    H142632   2.167   4.359   5.838
14225TIP3    H242633   2.235   4.228   5.803
14226TIP3   OH242634   5.575   3.650   2.483
14226TIP3    H142635   5.524   3.730   2.479
14226TIP3    H242636   5.639   3.658   2.413
14227TIP3   OH242637   6.239   2.009   0.519
14227TIP3    H142638   6.253   1.928   0.567
14227TIP3    H242639   6.270   1.990   0.431
14228TIP3   OH242640   0.427   1.871   3.529
14228TIP3    H142641   0.493   1.808   3.498
14228TIP3    H242642   0.447   1.883   3.622
14229TIP3   OH242643   4.373   2.527   0.943
14229TIP3    H142644   4.327   2.570   1.014
14229TIP3    H242645   4.461   2.565   0.945
14230TIP3   OH242646   2.411   0.706   5.086
14230TIP3    H142647   2.363   0.640   5.137
14230TIP3    H242648   2.342   0.759   5.045
14231TIP3   OH242649   7.183   1.761   6.653
14231TIP3    H142650   7.131   1.684   6.677
14231TIP3    H242651   7.147   1.790   6.569
14232TIP3   OH242652   2.038   3.602   0.647
14232TIP3    H142653   2.005   3.567   0.565
14232TIP3    H242654   2.018   3.534   0.712
14233TIP3   OH242655   2.781   4.322   5.639
14233TIP3    H142656   2.780   4.232   5.606
14233TIP3    H242657   2.874   4.338   5.660
14234TIP3   OH242658   6.447   2.919   3.843
14234TIP3    H142659   6.384   2.853   3.813
14234TIP3    H242660   6.514   2.869   3.889
14235TIP3   OH242661   2.517   7.405   3.607
14235TIP3    H142662   2.445   7.409   3.545
14235TIP3    H242663   2.483   7.353   3.680
14236TIP3   OH242664   7.654   0.579   6.019
14236TIP3    H142665   7.715   0.601   6.089
14236TIP3    H242666   7.657   0.655   5.960
14237TIP3   OH242667   6.501   0.317   0.447
14237TIP3    H142668   6.530   0.245   0.503
14237TIP3    H242669   6.566   0.320   0.377
14238TIP3   OH242670   2.679   1.394   0.021
14238TIP3    H142671   2.590   1.358   0.021
14238TIP3    H242672   2.684   1.445  -0.061
14239TIP3   OH242673   8.280   2.098   4.627
14239TIP3    H142674   8.188   2.090   4.653
14239TIP3    H242675   8.300   2.014   4.586
14240TIP3   OH242676   7.745   0.711   3.338
14240TIP3    H142677   7.662   0.759   3.329
14240TIP3    H242678   7.811   0.769   3.301
14241TIP3   OH242679   2.675   2.208   1.643
14241TIP3    H142680   2.682   2.166   1.728
14241TIP3    H242681   2.607   2.275   1.655
14242TIP3   OH242682   0.804   7.711   4.879
14242TIP3    H142683   0.857   7.788   4.859
14242TIP3    H242684   0.851   7.666   4.949
14243TIP3   OH242685   8.007   3.723   3.468
14243TIP3    H142686   8.094   3.688   3.452
14243TIP3    H242687   7.949   3.665   3.418
14244TIP3   OH242688   3.974   4.790   3.289
14244TIP3    H142689   3.881   4.787   3.312
14244TIP3    H242690   4.017   4.732   3.352
14245TIP3   OH242691   4.989   2.531   5.287
14245TIP3    H142692   5.077   2.527   5.324
14245TIP3    H242693   4.962   2.440   5.279
14246TIP3   OH242694   0.101   4.556   2.143
14246TIP3    H142695   0.020   4.597   2.111
14246TIP3    H242696   0.171   4.602   2.097
14247TIP3   OH242697   4.970   6.797   1.609
14247TIP3    H142698   5.013   6.879   1.634
14247TIP3    H242699   4.930   6.766   1.690
14248TIP3   OH242700   6.912   4.692   4.074
14248TIP3    H142701   6.874   4.640   4.003
14248TIP3    H242702   6.860   4.670   4.151
14249TIP3   OH242703   6.119   2.793   4.442
14249TIP3    H142704   6.200   2.764   4.484
14249TIP3    H242705   6.118   2.749   4.357
14250TIP3   OH242706   7.117   3.652   6.511
14250TIP3    H142707   7.153   3.659   6.599
14250TIP3    H242708   7.145   3.732   6.466
14251TIP3   OH242709   6.372   7.371   2.582
14251TIP3    H142710   6.393   7.445   2.639
14251TIP3    H242711   6.282   7.349   2.603
14252TIP3   OH242712   2.701   2.961   2.160
14252TIP3    H142713   2.748   2.878   2.166
14252TIP3    H242714   2.687   2.988   2.250
14253TIP3   OH242715   4.200   3.049   5.473
14253TIP3    H142716   4.136   2.980   5.493
14253TIP3    H242717   4.167   3.089   5.392
14254TIP3   OH242718   6.392   3.797   1.918
14254TIP3    H142719   6.412   3.756   1.834
14254TIP3    H242720   6.469   3.780   1.972
14255TIP3   OH242721   7.013   0.466   5.072
14255TIP3    H142722   6.962   0.425   5.002
14255TIP3    H242723   7.058   0.539   5.029
14256TIP3   OH242724   5.501   3.032   0.464
14256TIP3    H142725   5.519   3.107   0.407
14256TIP3    H242726   5.563   2.965   0.437
14257TIP3   OH242727   3.915   0.215   5.456
14257TIP3    H142728   3.951   0.127   5.443
14257TIP3    H242729   3.989   0.274   5.437
14258TIP3   OH242730   4.827   4.178   1.335
14258TIP3    H142731   4.908   4.183   1.385
14258TIP3    H242732   4.850   4.129   1.256
14259TIP3   OH242733   4.855   6.387   5.979
14259TIP3    H142734   4.895   6.392   5.892
14259TIP3    H242735   4.905   6.320   6.026
14260TIP3   OH242736   7.733   4.626   1.070
14260TIP3    H142737   7.755   4.708   1.026
14260TIP3    H242738   7.655   4.594   1.024
14261TIP3   OH242739   6.148   5.851   6.123
14261TIP3    H142740   6.221   5.813   6.074
14261TIP3    H242741   6.188   5.888   6.202
14262TIP3   OH242742   3.309   0.222   5.598
14262TIP3    H142743   3.361   0.298   5.623
14262TIP3    H242744   3.258   0.200   5.676
14263TIP3   OH242745   6.169   0.185   2.404
14263TIP3    H142746   6.092   0.242   2.403
14263TIP3    H242747   6.143   0.109   2.351
14264TIP3   OH242748   3.898   6.065   0.665
14264TIP3    H142749   3.839   6.139   0.681
14264TIP3    H242750   3.881   6.040   0.574
14265TIP3   OH242751   2.080   5.299   5.376
14265TIP3    H142752   2.111   5.290   5.466
14265TIP3    H242753   2.139   5.243   5.325
14266TIP3   OH242754   4.840   7.765   3.278
14266TIP3    H142755   4.916   7.759   3.337
14266TIP3    H242756   4.764   7.753   3.335
14267TIP3   OH242757   2.047   6.868   6.581
14267TIP3    H142758   2.064   6.890   6.490
14267TIP3    H242759   1.952   6.866   6.588
14268TIP3   OH242760   6.206   0.820   3.808
14268TIP3    H142761   6.168   0.905   3.790
14268TIP3    H242762   6.171   0.794   3.893
14269TIP3   OH242763   3.356   4.231   6.376
14269TIP3    H142764   3.367   4.142   6.408
14269TIP3    H242765   3.335   4.221   6.283
14270TIP3   OH242766   2.908   7.661   3.026
14270TIP3    H142767   2.960   7.740   3.012
14270TIP3    H242768   2.973   7.592   3.039
14271TIP3   OH242769   4.786   2.068   2.920
14271TIP3    H142770   4.856   2.112   2.968
14271TIP3    H242771   4.709   2.122   2.935
14272TIP3   OH242772   3.254   6.420   1.090
14272TIP3    H142773   3.234   6.348   1.030
14272TIP3    H242774   3.170   6.443   1.128
14273TIP3   OH242775   4.365   5.380   2.623
14273TIP3    H142776   4.449   5.349   2.589
14273TIP3    H242777   4.388   5.457   2.675
14274TIP3   OH242778   2.576   3.284   6.353
14274TIP3    H142779   2.553   3.309   6.442
14274TIP3    H242780   2.664   3.245   6.362
14275TIP3   OH242781   4.202   3.722   4.187
14275TIP3    H142782   4.187   3.628   4.196
14275TIP3    H242783   4.159   3.745   4.104
14276TIP3   OH242784   7.631   5.831   0.053
14276TIP3    H142785   7.663   5.749   0.091
14276TIP3    H242786   7.632   5.894   0.126
14277TIP3   OH242787   8.143   4.084   5.587
14277TIP3    H142788   8.205   4.088   5.515
14277TIP3    H242789   8.173   4.009   5.639
14278TIP3   OH242790   4.221   2.231   3.131
14278TIP3    H142791   4.263   2.196   3.053
14278TIP3    H242792   4.148   2.172   3.149
14279TIP3   OH242793   6.296   2.550   6.248
14279TIP3    H142794   6.383   2.528   6.213
14279TIP3    H242795   6.253   2.598   6.177
14280TIP3   OH242796   1.216   6.689   2.184
14280TIP3    H142797   1.175   6.660   2.102
14280TIP3    H242798   1.157   6.658   2.252
14281TIP3   OH242799   0.144   0.535   0.568
14281TIP3    H142800   0.126   0.458   0.514
14281TIP3    H242801   0.061   0.552   0.613
14282TIP3   OH242802   0.438   5.267   0.260
14282TIP3    H142803   0.476   5.263   0.172
14282TIP3    H242804   0.507   5.235   0.317
14283TIP3   OH242805   6.315   5.090   1.177
14283TIP3    H142806   6.264   5.160   1.219
14283TIP3    H242807   6.296   5.013   1.230
14284TIP3   OH242808   7.109   6.757   2.087
14284TIP3    H142809   7.117   6.753   1.992
14284TIP3    H242810   7.098   6.850   2.106
14285TIP3   OH242811   0.831   1.495   3.304
14285TIP3    H142812   0.923   1.511   3.286
14285TIP3    H242813   0.820   1.519   3.397
14286TIP3   OH242814   6.057   0.926   2.080
14286TIP3    H142815   6.005   0.852   2.112
14286TIP3    H242816   5.993   0.985   2.040
14287TIP3   OH242817   5.693   0.794   5.688
14287TIP3    H142818   5.741   0.779   5.769
14287TIP3    H242819   5.636   0.718   5.679
14288TIP3   OH242820   8.004   0.420   1.145
14288TIP3    H142821   7.938   0.489   1.155
14288TIP3    H242822   7.957   0.340   1.168
14289TIP3   OH242823   7.245   1.417   1.633
14289TIP3    H142824   7.315   1.379   1.686
14289TIP3    H242825   7.233   1.355   1.561
14290TIP3   OH242826   1.429   3.229   4.044
14290TIP3    H142827   1.357   3.214   3.982
14290TIP3    H242828   1.445   3.143   4.083
14291TIP3   OH242829   6.367   3.823   3.909
14291TIP3    H142830   6.294   3.824   3.970
14291TIP3    H242831   6.326   3.815   3.823
14292TIP3   OH242832   0.579   5.760   5.113
14292TIP3    H142833   0.498   5.788   5.071
14292TIP3    H242834   0.560   5.762   5.207
14293TIP3   OH242835   5.668   3.039   1.759
14293TIP3    H142836   5.612   2.962   1.746
14293TIP3    H242837   5.754   3.003   1.779
14294TIP3   OH242838   1.323   2.444   4.084
14294TIP3    H142839   1.345   2.389   4.159
14294TIP3    H242840   1.263   2.391   4.032
14295TIP3   OH242841   4.659   3.982   5.027
14295TIP3    H142842   4.646   3.887   5.025
14295TIP3    H242843   4.747   3.995   4.994
14296TIP3   OH242844   2.988   5.476   3.314
14296TIP3    H142845   3.010   5.569   3.324
14296TIP3    H242846   3.072   5.433   3.299
14297TIP3   OH242847   6.422   2.535   6.682
14297TIP3    H142848   6.382   2.454   6.651
14297TIP3    H242849   6.508   2.509   6.714
14298TIP3   OH242850   7.845   2.241   3.557
14298TIP3    H142851   7.811   2.327   3.530
14298TIP3    H242852   7.917   2.262   3.617
14299TIP3   OH242853   5.422   2.947   0.714
14299TIP3    H142854   5.407   3.022   0.771
14299TIP3    H242855   5.498   2.970   0.661
14300TIP3   OH242856   5.269   7.027   5.091
14300TIP3    H142857   5.339   7.000   5.032
14300TIP3    H242858   5.286   6.980   5.172
14301TIP3   OH242859   3.472   5.822   0.119
14301TIP3    H142860   3.493   5.801   0.210
14301TIP3    H242861   3.385   5.862   0.123
14302TIP3   OH242862   5.182   2.996   0.090
14302TIP3    H142863   5.271   2.975   0.119
14302TIP3    H242864   5.184   2.981  -0.005
14303TIP3   OH242865   0.227   1.903   0.643
14303TIP3    H142866   0.320   1.886   0.628
14303TIP3    H242867   0.225   1.954   0.725
14304TIP3   OH242868   2.042   1.722   4.420
14304TIP3    H142869   2.101   1.664   4.372
14304TIP3    H242870   1.955   1.704   4.383
14305TIP3   OH242871   8.152   3.925   4.633
14305TIP3    H142872   8.241   3.911   4.599
14305TIP3    H242873   8.098   3.937   4.555
14306TIP3   OH242874   6.379   2.125   1.690
14306TIP3    H142875   6.465   2.088   1.706
14306TIP3    H242876   6.329   2.053   1.651
14307TIP3   OH242877   1.149   1.760   4.502
14307TIP3    H142878   1.102   1.704   4.563
14307TIP3    H242879   1.228   1.788   4.549
14308TIP3   OH242880   6.769   2.073   2.127
14308TIP3    H142881   6.758   2.076   2.222
14308TIP3    H242882   6.790   2.164   2.103
14309TIP3   OH242883   0.392   1.401   5.929
14309TIP3    H142884   0.353   1.326   5.974
14309TIP3    H242885   0.406   1.370   5.839
14310TIP3   OH242886   2.026   7.330   3.967
14310TIP3    H142887   1.969   7.337   3.890
14310TIP3    H242888   2.106   7.375   3.942
14311TIP3   OH242889   1.110   7.532   4.238
14311TIP3    H142890   1.030   7.529   4.185
14311TIP3    H242891   1.126   7.626   4.251
14312TIP3   OH242892   0.555   2.103   6.538
14312TIP3    H142893   0.510   2.161   6.600
14312TIP3    H242894   0.531   2.015   6.568
14313TIP3   OH242895   8.280   6.657   1.787
14313TIP3    H142896   8.259   6.611   1.706
14313TIP3    H242897   8.349   6.719   1.762
14314TIP3   OH242898   4.492   7.164   0.760
14314TIP3    H142899   4.565   7.193   0.815
14314TIP3    H242900   4.415   7.205   0.799
14315TIP3   OH242901   5.421   7.355   0.816
14315TIP3    H142902   5.348   7.349   0.754
14315TIP3    H242903   5.498   7.327   0.766
14316TIP3   OH242904   7.914   5.819   6.299
14316TIP3    H142905   7.837   5.873   6.282
14316TIP3    H242906   7.898   5.738   6.251
14317TIP3   OH242907   7.372   2.062   6.667
14317TIP3    H142908   7.445   2.091   6.722
14317TIP3    H242909   7.414   2.020   6.591
14318TIP3   OH242910   4.236   2.085   4.617
14318TIP3    H142911   4.325   2.071   4.649
14318TIP3    H242912   4.247   2.136   4.536
14319TIP3   OH242913   0.026   6.211   4.160
14319TIP3    H142914   0.104   6.233   4.109
14319TIP3    H242915  -0.041   6.270   4.127
14320TIP3   OH242916   4.960   5.441   5.487
14320TIP3    H142917   4.983   5.532   5.503
14320TIP3    H242918   4.905   5.416   5.561
14321TIP3   OH242919   0.988   3.008   0.274
14321TIP3    H142920   0.896   3.008   0.249
14321TIP3    H242921   1.031   2.957   0.206
14322TIP3   OH242922   7.882   4.051   2.548
14322TIP3    H142923   7.819   4.068   2.618
14322TIP3    H242924   7.837   3.989   2.490
14323TIP3   OH242925   4.737   4.616   5.765
14323TIP3    H142926   4.707   4.690   5.712
14323TIP3    H242927   4.824   4.642   5.796
14324TIP3   OH242928   0.577   3.690   3.093
14324TIP3    H142929   0.597   3.760   3.155
14324TIP3    H242930   0.532   3.624   3.145
14325TIP3   OH242931   6.089   6.613   3.641
14325TIP3    H142932   6.165   6.670   3.649
14325TIP3    H242933   6.106   6.542   3.704
14326TIP3   OH242934   3.498   3.732   0.771
14326TIP3    H142935   3.534   3.674   0.838
14326TIP3    H242936   3.404   3.713   0.771
14327TIP3   OH242937   0.875   7.047   3.826
14327TIP3    H142938   0.866   7.059   3.732
14327TIP3    H242939   0.892   6.953   3.837
14328TIP3   OH242940   5.279   4.862   4.065
14328TIP3    H142941   5.370   4.848   4.090
14328TIP3    H242942   5.233   4.875   4.148
14329TIP3   OH242943   2.737   5.964   6.628
14329TIP3    H142944   2.780   5.991   6.546
14329TIP3    H242945   2.645   5.982   6.613
14330TIP3   OH242946   5.451   0.635   2.326
14330TIP3    H142947   5.447   0.551   2.281
14330TIP3    H242948   5.360   0.662   2.334
14331TIP3   OH242949   3.943   5.060   3.749
14331TIP3    H142950   3.968   5.149   3.776
14331TIP3    H242951   3.997   5.042   3.672
14332TIP3   OH242952   1.756   0.407   1.140
14332TIP3    H142953   1.779   0.333   1.196
14332TIP3    H242954   1.694   0.458   1.191
14333TIP3   OH242955   1.030   7.387   0.927
14333TIP3    H142956   1.075   7.325   0.870
14333TIP3    H242957   0.937   7.362   0.921
14334TIP3   OH242958   4.163   2.551   4.107
14334TIP3    H142959   4.227   2.508   4.051
14334TIP3    H242960   4.126   2.621   4.054
14335TIP3   OH242961   6.968   4.466   5.431
14335TIP3    H142962   7.040   4.483   5.370
14335TIP3    H242963   6.940   4.553   5.459
14336TIP3   OH242964   7.300   3.487   5.813
14336TIP3    H142965   7.287   3.580   5.832
14336TIP3    H242966   7.336   3.485   5.724
14337TIP3   OH242967   0.940   1.929   3.410
14337TIP3    H142968   0.938   2.015   3.370
14337TIP3    H242969   0.984   1.873   3.346
14338TIP3   OH242970   5.949   7.535   5.457
14338TIP3    H142971   6.034   7.534   5.411
14338TIP3    H242972   5.970   7.566   5.545
14339TIP3   OH242973   6.968   7.818   3.264
14339TIP3    H142974   7.041   7.757   3.254
14339TIP3    H242975   6.933   7.799   3.351
14340TIP3   OH242976   3.853   7.092   3.686
14340TIP3    H142977   3.763   7.063   3.666
14340TIP3    H242978   3.845   7.186   3.702
14341TIP3   OH242979   0.682   5.065   2.435
14341TIP3    H142980   0.741   4.992   2.417
14341TIP3    H242981   0.646   5.047   2.522
14342TIP3   OH242982   4.749   5.080   3.168
14342TIP3    H142983   4.691   5.145   3.208
14342TIP3    H242984   4.833   5.125   3.160
14343TIP3   OH242985   7.126   3.412   1.080
14343TIP3    H142986   7.068   3.488   1.080
14343TIP3    H242987   7.067   3.337   1.080
14344TIP3   OH242988   1.261   5.627   3.807
14344TIP3    H142989   1.244   5.554   3.866
14344TIP3    H242990   1.206   5.610   3.731
14345TIP3   OH242991   6.607   7.704   4.411
14345TIP3    H142992   6.655   7.623   4.397
14345TIP3    H242993   6.541   7.683   4.476
14346TIP3   OH242994   6.869   2.691   6.158
14346TIP3    H142995   6.959   2.678   6.127
14346TIP3    H242996   6.849   2.612   6.208
14347TIP3   OH242997   5.708   5.351   2.173
14347TIP3    H142998   5.803   5.347   2.186
14347TIP3    H242999   5.672   5.365   2.261
14348TIP3   OH243000   1.768   2.669   1.506
14348TIP3    H143001   1.701   2.604   1.526
14348TIP3    H243002   1.850   2.629   1.535
14349TIP3   OH243003   3.502   3.826   6.395
14349TIP3    H143004   3.441   3.835   6.468
14349TIP3    H243005   3.456   3.862   6.319
14350TIP3   OH243006   0.834   4.686   5.314
14350TIP3    H143007   0.875   4.629   5.249
14350TIP3    H243008   0.746   4.701   5.280
14351TIP3   OH243009   3.362   0.785   2.174
14351TIP3    H143010   3.392   0.871   2.145
14351TIP3    H243011   3.298   0.804   2.242
14352TIP3   OH243012   4.384   7.336   5.893
14352TIP3    H143013   4.420   7.373   5.812
14352TIP3    H243014   4.322   7.269   5.864
14353TIP3   OH243015   0.140   2.581   0.200
14353TIP3    H143016   0.085   2.659   0.190
14353TIP3    H243017   0.217   2.600   0.147
14354TIP3   OH243018   0.209   5.473   4.855
14354TIP3    H143019   0.290   5.455   4.904
14354TIP3    H243020   0.236   5.473   4.764
14355TIP3   OH243021   3.947   5.707   5.228
14355TIP3    H143022   3.917   5.751   5.308
14355TIP3    H243023   3.868   5.698   5.175
14356TIP3   OH243024   7.480   6.132   5.250
14356TIP3    H143025   7.496   6.194   5.321
14356TIP3    H243026   7.497   6.047   5.289
14357TIP3   OH243027   5.400   7.675   1.390
14357TIP3    H143028   5.395   7.580   1.405
14357TIP3    H243029   5.351   7.713   1.462
14358TIP3   OH243030   5.407   2.044   3.090
14358TIP3    H143031   5.371   2.109   3.029
14358TIP3    H243032   5.369   2.068   3.175
14359TIP3   OH243033   1.123   3.887   6.061
14359TIP3    H143034   1.053   3.841   6.015
14359TIP3    H243035   1.088   3.974   6.079
14360TIP3   OH243036   4.011   2.132   6.676
14360TIP3    H143037   4.020   2.093   6.764
14360TIP3    H243038   4.097   2.170   6.658
14361TIP3   OH243039   1.421   1.927   5.301
14361TIP3    H143040   1.395   1.887   5.218
14361TIP3    H243041   1.451   1.854   5.355
14362TIP3   OH243042   2.435   5.539   5.377
14362TIP3    H143043   2.489   5.532   5.298
14362TIP3    H243044   2.345   5.532   5.346
14363TIP3   OH243045   1.333   0.748   5.632
14363TIP3    H143046   1.381   0.828   5.653
14363TIP3    H243047   1.401   0.683   5.615
14364TIP3   OH243048   1.203   2.557   4.838
14364TIP3    H143049   1.230   2.567   4.747
14364TIP3    H243050   1.280   2.581   4.889
14365TIP3   OH243051   1.918   3.353   6.157
14365TIP3    H143052   1.967   3.410   6.217
14365TIP3    H243053   1.932   3.265   6.191
14366TIP3   OH243054   0.537   2.427   4.813
14366TIP3    H143055   0.487   2.417   4.732
14366TIP3    H243056   0.567   2.339   4.833
14367TIP3   OH243057   3.672   2.398   4.692
14367TIP3    H143058   3.577   2.409   4.688
14367TIP3    H243059   3.693   2.401   4.785
14368TIP3   OH243060   4.894   0.278   4.396
14368TIP3    H143061   4.925   0.305   4.309
14368TIP3    H243062   4.826   0.213   4.378
14369TIP3   OH243063   4.604   4.136   2.835
14369TIP3    H143064   4.536   4.080   2.799
14369TIP3    H243065   4.560   4.188   2.901
14370TIP3   OH243066   2.662   3.360   2.480
14370TIP3    H143067   2.595   3.404   2.533
14370TIP3    H243068   2.618   3.283   2.445
14371TIP3   OH243069   5.640   7.028   3.757
14371TIP3    H143070   5.694   7.106   3.772
14371TIP3    H243071   5.599   7.043   3.672
14372TIP3   OH243072   6.207   6.570   4.893
14372TIP3    H143073   6.160   6.633   4.948
14372TIP3    H243074   6.256   6.516   4.954
14373TIP3   OH243075   2.039   4.274   4.718
14373TIP3    H143076   2.123   4.313   4.694
14373TIP3    H243077   2.049   4.250   4.810
14374TIP3   OH243078   5.186   0.010   1.826
14374TIP3    H143079   5.129   0.079   1.792
14374TIP3    H243080   5.255   0.002   1.760
14375TIP3   OH243081   0.748   4.168   2.982
14375TIP3    H143082   0.780   4.160   3.072
14375TIP3    H243083   0.654   4.151   2.987
14376TIP3   OH243084   1.491   4.933   6.203
14376TIP3    H143085   1.425   4.982   6.154
14376TIP3    H243086   1.485   4.844   6.169
14377TIP3   OH243087   1.165   7.640   5.729
14377TIP3    H143088   1.096   7.705   5.741
14377TIP3    H243089   1.229   7.659   5.798
14378TIP3   OH243090   3.718   3.249   1.868
14378TIP3    H143091   3.763   3.248   1.784
14378TIP3    H243092   3.728   3.338   1.901
14379TIP3   OH243093   6.233   3.424   1.192
14379TIP3    H143094   6.294   3.367   1.144
14379TIP3    H243095   6.147   3.383   1.179
14380TIP3   OH243096   3.540   3.656   0.211
14380TIP3    H143097   3.509   3.596   0.279
14380TIP3    H243098   3.515   3.613   0.129
14381TIP3   OH243099   0.252   3.747   1.582
14381TIP3    H143100   0.223   3.804   1.653
14381TIP3    H243101   0.260   3.661   1.622
14382TIP3   OH243102   3.358   6.036   2.538
14382TIP3    H143103   3.310   6.032   2.456
14382TIP3    H243104   3.294   6.069   2.602
14383TIP3   OH243105   7.866   6.649   5.574
14383TIP3    H143106   7.797   6.594   5.610
14383TIP3    H243107   7.881   6.615   5.486
14384TIP3   OH243108   2.583   0.467   3.001
14384TIP3    H143109   2.565   0.553   3.038
14384TIP3    H243110   2.569   0.478   2.907
14385TIP3   OH243111   3.748   4.677   5.300
14385TIP3    H143112   3.680   4.729   5.342
14385TIP3    H243113   3.702   4.601   5.265
14386TIP3   OH243114   6.615   5.895   4.134
14386TIP3    H143115   6.552   5.825   4.120
14386TIP3    H243116   6.569   5.975   4.107
14387TIP3   OH243117   8.189   5.549   3.649
14387TIP3    H143118   8.173   5.457   3.667
14387TIP3    H243119   8.237   5.581   3.725
14388TIP3   OH243120   2.808   6.234   2.169
14388TIP3    H143121   2.742   6.165   2.159
14388TIP3    H243122   2.869   6.199   2.234
14389TIP3   OH243123   6.784   3.030   2.107
14389TIP3    H143124   6.791   2.960   2.041
14389TIP3    H243125   6.722   2.996   2.171
14390TIP3   OH243126   4.338   0.289   3.872
14390TIP3    H143127   4.277   0.297   3.945
14390TIP3    H243128   4.303   0.217   3.820
14391TIP3   OH243129   6.630   6.041   0.985
14391TIP3    H143130   6.686   6.066   0.912
14391TIP3    H243131   6.653   5.950   1.002
14392TIP3   OH243132   5.249   5.528   2.004
14392TIP3    H143133   5.305   5.538   2.081
14392TIP3    H243134   5.183   5.596   2.014
14393TIP3   OH243135   2.996   7.338   5.399
14393TIP3    H143136   3.070   7.296   5.443
14393TIP3    H243137   3.028   7.357   5.311
14394TIP3   OH243138   3.715   5.191   4.211
14394TIP3    H143139   3.647   5.171   4.275
14394TIP3    H243140   3.666   5.226   4.136
14395TIP3   OH243141   2.670   3.553   6.000
14395TIP3    H143142   2.659   3.627   6.060
14395TIP3    H243143   2.600   3.493   6.023
14396TIP3   OH243144   0.804   0.975   2.842
14396TIP3    H143145   0.757   1.038   2.787
14396TIP3    H243146   0.758   0.976   2.926
14397TIP3   OH243147   3.513   6.003   2.216
14397TIP3    H143148   3.522   5.919   2.261
14397TIP3    H243149   3.441   5.990   2.154
14398TIP3   OH243150   2.713   3.772   0.954
14398TIP3    H143151   2.770   3.735   0.886
14398TIP3    H243152   2.633   3.720   0.948
14399TIP3   OH243153   0.064   4.097   2.380
14399TIP3    H143154   0.154   4.127   2.387
14399TIP3    H243155   0.050   4.082   2.287
14400TIP3   OH243156   1.876   2.164   4.840
14400TIP3    H143157   1.869   2.140   4.932
14400TIP3    H243158   1.852   2.257   4.837
14401TIP3   OH243159   6.399   6.404   6.064
14401TIP3    H143160   6.453   6.368   5.994
14401TIP3    H243161   6.418   6.347   6.139
14402TIP3   OH243162   6.890   0.044   1.117
14402TIP3    H143163   6.883   0.023   1.210
14402TIP3    H243164   6.947   0.121   1.115
14403TIP3   OH243165   4.348   0.128   5.596
14403TIP3    H143166   4.305   0.050   5.561
14403TIP3    H243167   4.437   0.125   5.561
14404TIP3   OH243168   4.912   4.589   4.250
14404TIP3    H143169   4.893   4.495   4.258
14404TIP3    H243170   4.997   4.592   4.205
14405TIP3   OH243171   5.305   7.213   3.239
14405TIP3    H143172   5.327   7.150   3.308
14405TIP3    H243173   5.268   7.287   3.287
14406TIP3   OH243174   5.648   5.386   4.642
14406TIP3    H143175   5.680   5.338   4.719
14406TIP3    H243176   5.685   5.339   4.567
14407TIP3   OH243177   7.098   2.361   6.148
14407TIP3    H143178   7.015   2.358   6.100
14407TIP3    H243179   7.163   2.332   6.084
14408TIP3   OH243180   3.833   6.443   0.094
14408TIP3    H143181   3.877   6.416   0.014
14408TIP3    H243182   3.896   6.424   0.164
14409TIP3   OH243183   0.772   1.391   0.640
14409TIP3    H143184   0.737   1.405   0.728
14409TIP3    H243185   0.701   1.418   0.582
14410TIP3   OH243186   3.904   5.921   3.759
14410TIP3    H143187   3.891   5.895   3.668
14410TIP3    H243188   3.946   5.846   3.801
14411TIP3   OH243189   5.158   3.053   0.920
14411TIP3    H143190   5.117   3.021   0.840
14411TIP3    H243191   5.144   2.984   0.984
14412TIP3   OH243192   5.835   6.663   0.318
14412TIP3    H143193   5.793   6.581   0.293
14412TIP3    H243194   5.875   6.695   0.237
14413TIP3   OH243195   8.228   0.300   2.174
14413TIP3    H143196   8.203   0.390   2.194
14413TIP3    H243197   8.145   0.257   2.151
14414TIP3   OH243198   7.770   1.622   2.910
14414TIP3    H143199   7.725   1.691   2.959
14414TIP3    H243200   7.863   1.636   2.929
14415TIP3   OH243201   5.914   6.467   3.412
14415TIP3    H143202   5.956   6.553   3.405
14415TIP3    H243203   5.951   6.417   3.339
14416TIP3   OH243204   0.271   4.261   0.474
14416TIP3    H143205   0.264   4.185   0.417
14416TIP3    H243206   0.248   4.228   0.561
14417TIP3   OH243207   0.023   7.099   2.648
14417TIP3    H143208  -0.066   7.115   2.681
14417TIP3    H243209   0.049   7.183   2.610
14418TIP3   OH243210   4.786   0.885   2.035
14418TIP3    H143211   4.761   0.956   2.094
14418TIP3    H243212   4.729   0.813   2.060
14419TIP3   OH243213   5.752   4.840   4.729
14419TIP3    H143214   5.679   4.901   4.740
14419TIP3    H243215   5.825   4.881   4.774
14420TIP3   OH243216   4.921   5.213   1.001
14420TIP3    H143217   4.896   5.289   1.054
14420TIP3    H243218   4.900   5.138   1.056
14421TIP3   OH243219   7.042   5.376   4.561
14421TIP3    H143220   7.043   5.345   4.470
14421TIP3    H243221   6.961   5.427   4.568
14422TIP3   OH243222   3.533   7.111   6.638
14422TIP3    H143223   3.548   7.029   6.590
14422TIP3    H243224   3.538   7.179   6.571
14423TIP3   OH243225   7.707   3.138   3.876
14423TIP3    H143226   7.737   3.215   3.828
14423TIP3    H243227   7.741   3.151   3.965
14424TIP3   OH243228   6.021   2.731   3.624
14424TIP3    H143229   5.974   2.752   3.705
14424TIP3    H243230   5.978   2.785   3.557
14425TIP3   OH243231   0.964   3.204   0.692
14425TIP3    H143232   0.891   3.266   0.688
14425TIP3    H243233   1.002   3.219   0.779
14426TIP3   OH243234   8.286   2.982   0.738
14426TIP3    H143235   8.224   2.912   0.758
14426TIP3    H243236   8.231   3.053   0.703
14427TIP3   OH243237   1.291   2.486   3.368
14427TIP3    H143238   1.383   2.505   3.348
14427TIP3    H243239   1.243   2.557   3.327
14428TIP3   OH243240   7.702   2.132   1.353
14428TIP3    H143241   7.745   2.127   1.438
14428TIP3    H243242   7.634   2.065   1.355
14429TIP3   OH243243   8.276   5.753   3.475
14429TIP3    H143244   8.200   5.806   3.501
14429TIP3    H243245   8.255   5.665   3.507
14430TIP3   OH243246   1.937   1.845   2.143
14430TIP3    H143247   1.993   1.768   2.137
14430TIP3    H243248   1.997   1.919   2.137
14431TIP3   OH243249   6.838   4.699   6.700
14431TIP3    H143250   6.790   4.721   6.780
14431TIP3    H243251   6.831   4.776   6.645
14432TIP3   OH243252   4.081   3.092   6.389
14432TIP3    H143253   4.142   3.018   6.386
14432TIP3    H243254   4.055   3.105   6.298
14433TIP3   OH243255   4.898   3.261   0.197
14433TIP3    H143256   4.968   3.290   0.138
14433TIP3    H243257   4.821   3.251   0.140
14434TIP3   OH243258   4.605   0.020   3.826
14434TIP3    H143259   4.510   0.030   3.830
14434TIP3    H243260   4.621  -0.073   3.843
14435TIP3   OH243261   6.854   6.794   0.343
14435TIP3    H143262   6.847   6.889   0.341
14435TIP3    H243263   6.917   6.776   0.413
14436TIP3   OH243264   4.655   6.149   0.579
14436TIP3    H143265   4.702   6.200   0.645
14436TIP3    H243266   4.650   6.206   0.503
14437TIP3   OH243267   8.235   6.957   5.160
14437TIP3    H143268   8.248   7.027   5.224
14437TIP3    H243269   8.173   6.897   5.201
14438TIP3   OH243270   4.032   0.802   6.113
14438TIP3    H143271   4.046   0.876   6.172
14438TIP3    H243272   4.096   0.815   6.043
14439TIP3   OH243273   7.590   7.596   2.192
14439TIP3    H143274   7.562   7.557   2.275
14439TIP3    H243275   7.642   7.672   2.219
14440TIP3   OH243276   1.643   0.210   6.355
14440TIP3    H143277   1.589   0.143   6.398
14440TIP3    H243278   1.723   0.164   6.330
14441TIP3   OH243279   7.968   4.653   2.623
14441TIP3    H143280   7.873   4.641   2.616
14441TIP3    H243281   7.996   4.677   2.535
14442TIP3   OH243282   4.601   6.825   5.997
14442TIP3    H143283   4.628   6.763   6.065
14442TIP3    H243284   4.652   6.798   5.920
14443TIP3   OH243285   6.430   5.747   5.117
14443TIP3    H143286   6.339   5.725   5.095
14443TIP3    H243287   6.434   5.736   5.212
14444TIP3   OH243288   6.860   6.967   1.074
14444TIP3    H143289   6.789   6.926   1.123
14444TIP3    H243290   6.836   7.059   1.070
14445TIP3   OH243291   2.902   1.694   3.384
14445TIP3    H143292   2.948   1.759   3.437
14445TIP3    H243293   2.846   1.647   3.446
14446TIP3   OH243294   1.685   3.528   4.877
14446TIP3    H143295   1.604   3.483   4.903
14446TIP3    H243296   1.657   3.592   4.812
14447TIP3   OH243297   0.639   5.814   4.778
14447TIP3    H143298   0.583   5.824   4.855
14447TIP3    H243299   0.673   5.902   4.761
14448TIP3   OH243300   6.010   1.024   5.495
14448TIP3    H143301   6.057   1.076   5.430
14448TIP3    H243302   5.988   1.086   5.565
14449TIP3   OH243303   2.458   6.947   0.217
14449TIP3    H143304   2.402   6.963   0.294
14449TIP3    H243305   2.529   6.892   0.250
14450TIP3   OH243306   5.933   3.404   1.060
14450TIP3    H143307   5.911   3.321   1.101
14450TIP3    H243308   5.849   3.449   1.051
14451TIP3   OH243309   3.565   2.060   2.980
14451TIP3    H143310   3.561   2.016   2.895
14451TIP3    H243311   3.484   2.110   2.985
14452TIP3   OH243312   1.958   5.077   4.456
14452TIP3    H143313   1.906   4.997   4.457
14452TIP3    H243314   1.900   5.144   4.491
14453TIP3   OH243315   3.350   3.575   3.657
14453TIP3    H143316   3.302   3.492   3.663
14453TIP3    H243317   3.437   3.550   3.626
14454TIP3   OH243318   3.006   7.427   6.791
14454TIP3    H143319   2.938   7.468   6.738
14454TIP3    H243320   2.959   7.369   6.851
14455TIP3   OH243321   3.777   6.390   2.432
14455TIP3    H143322   3.817   6.454   2.373
14455TIP3    H243323   3.723   6.336   2.374
14456TIP3   OH243324   2.076   7.361   6.096
14456TIP3    H143325   2.000   7.411   6.123
14456TIP3    H243326   2.053   7.328   6.009
14457TIP3   OH243327   2.848   3.965   1.987
14457TIP3    H143328   2.888   3.892   2.034
14457TIP3    H243329   2.920   4.003   1.936
14458TIP3   OH243330   1.897   3.068   3.489
14458TIP3    H143331   1.911   3.161   3.475
14458TIP3    H243332   1.936   3.051   3.576
14459TIP3   OH243333   0.073   7.503   1.566
14459TIP3    H143334  -0.011   7.548   1.579
14459TIP3    H243335   0.069   7.471   1.476
14460TIP3   OH243336   7.847   0.294   4.946
14460TIP3    H143337   7.789   0.224   4.976
14460TIP3    H243338   7.889   0.326   5.025
14461TIP3   OH243339   4.886   7.375   2.154
14461TIP3    H143340   4.920   7.417   2.074
14461TIP3    H243341   4.810   7.427   2.178
14462TIP3   OH243342   1.816   3.229   4.883
14462TIP3    H143343   1.758   3.154   4.867
14462TIP3    H243344   1.833   3.227   4.977
14463TIP3   OH243345   3.823   4.374   4.071
14463TIP3    H143346   3.799   4.378   3.979
14463TIP3    H243347   3.799   4.285   4.098
14464TIP3   OH243348   5.898   5.802   0.061
14464TIP3    H143349   5.841   5.852   0.121
14464TIP3    H243350   5.927   5.727   0.113
14465TIP3   OH243351   2.124   4.563   1.746
14465TIP3    H143352   2.177   4.628   1.791
14465TIP3    H243353   2.062   4.533   1.812
14466TIP3   OH243354   0.727   0.874   5.238
14466TIP3    H143355   0.698   0.816   5.168
14466TIP3    H243356   0.718   0.822   5.318
14467TIP3   OH243357   4.952   2.327   2.244
14467TIP3    H143358   5.011   2.381   2.191
14467TIP3    H243359   4.867   2.372   2.238
14468TIP3   OH243360   2.748   1.173   4.496
14468TIP3    H143361   2.830   1.175   4.544
14468TIP3    H243362   2.702   1.097   4.531
14469TIP3   OH243363   1.955   6.586   5.351
14469TIP3    H143364   1.974   6.595   5.257
14469TIP3    H243365   2.041   6.587   5.393
14470TIP3   OH243366   6.362   6.404   3.715
14470TIP3    H143367   6.346   6.498   3.719
14470TIP3    H243368   6.373   6.387   3.621
14471TIP3   OH243369   2.053   5.021   6.538
14471TIP3    H143370   2.039   5.112   6.511
14471TIP3    H243371   2.094   4.981   6.461
14472TIP3   OH243372   6.428   0.548   5.241
14472TIP3    H143373   6.440   0.627   5.189
14472TIP3    H243374   6.407   0.479   5.177
14473TIP3   OH243375   6.110   3.099   0.472
14473TIP3    H143376   6.016   3.097   0.453
14473TIP3    H243377   6.118   3.161   0.545
14474TIP3   OH243378   3.627   5.495   4.777
14474TIP3    H143379   3.695   5.459   4.720
14474TIP3    H243380   3.565   5.536   4.717
14475TIP3   OH243381   2.548   3.629   1.627
14475TIP3    H143382   2.582   3.556   1.679
14475TIP3    H243383   2.456   3.636   1.653
14476TIP3   OH243384   8.287   0.373   6.331
14476TIP3    H143385   8.326   0.319   6.263
14476TIP3    H243386   8.219   0.423   6.286
14477TIP3   OH243387   7.277   3.979   0.471
14477TIP3    H143388   7.370   3.994   0.488
14477TIP3    H243389   7.233   4.020   0.545
14478TIP3   OH243390   2.822   2.214   0.564
14478TIP3    H143391   2.834   2.158   0.488
14478TIP3    H243392   2.728   2.208   0.583
14479TIP3   OH243393   1.583   3.826   2.171
14479TIP3    H143394   1.612   3.904   2.219
14479TIP3    H243395   1.656   3.765   2.178
14480TIP3   OH243396   0.150   2.937   5.672
14480TIP3    H143397   0.185   2.958   5.759
14480TIP3    H243398   0.074   2.881   5.689
14481TIP3   OH243399   7.670   3.437   5.779
14481TIP3    H143400   7.629   3.491   5.712
14481TIP3    H243401   7.624   3.353   5.774
14482TIP3   OH243402   3.247   7.492   6.215
14482TIP3    H143403   3.226   7.488   6.122
14482TIP3    H243404   3.176   7.544   6.253
14483TIP3   OH243405   1.876   3.932   1.121
14483TIP3    H143406   1.955   3.878   1.121
14483TIP3    H243407   1.907   4.019   1.144
14484TIP3   OH243408   4.207   3.358   1.259
14484TIP3    H143409   4.193   3.370   1.353
14484TIP3    H243410   4.301   3.368   1.247
14485TIP3   OH243411   0.819   5.868   1.638
14485TIP3    H143412   0.772   5.874   1.555
14485TIP3    H243413   0.888   5.804   1.621
14486TIP3   OH243414   1.580   0.227   6.718
14486TIP3    H143415   1.606   0.172   6.644
14486TIP3    H243416   1.565   0.313   6.679
14487TIP3   OH243417   1.717   4.693   3.689
14487TIP3    H143418   1.621   4.691   3.695
14487TIP3    H243419   1.735   4.694   3.595
14488TIP3   OH243420   2.763   6.882   0.052
14488TIP3    H143421   2.779   6.965   0.096
14488TIP3    H243422   2.780   6.899  -0.040
14489TIP3   OH243423   4.414   1.252   4.440
14489TIP3    H143424   4.506   1.278   4.441
14489TIP3    H243425   4.405   1.197   4.518
14490TIP3   OH243426   2.619   0.440   4.522
14490TIP3    H143427   2.563   0.509   4.557
14490TIP3    H243428   2.681   0.421   4.593
14491TIP3   OH243429   7.623   1.240   4.022
14491TIP3    H143430   7.631   1.335   4.030
14491TIP3    H243431   7.638   1.223   3.929
14492TIP3   OH243432   3.540   1.547   0.499
14492TIP3    H143433   3.569   1.494   0.573
14492TIP3    H243434   3.562   1.637   0.524
14493TIP3   OH243435   1.702   4.212   2.980
14493TIP3    H143436   1.621   4.180   2.941
14493TIP3    H243437   1.762   4.222   2.905
14494TIP3   OH243438   6.704   6.780   3.735
14494TIP3    H143439   6.727   6.873   3.743
14494TIP3    H243440   6.633   6.778   3.670
14495TIP3   OH243441   2.315   0.035   1.996
14495TIP3    H143442   2.283   0.014   2.084
14495TIP3    H243443   2.357   0.120   2.006
14496TIP3   OH243444   2.421   4.537   2.563
14496TIP3    H143445   2.374   4.614   2.531
14496TIP3    H243446   2.397   4.533   2.656
14497TIP3   OH243447   2.888   4.244   4.523
14497TIP3    H143448   2.927   4.309   4.464
14497TIP3    H243449   2.794   4.255   4.513
14498TIP3   OH243450   0.355   1.572   0.920
14498TIP3    H143451   0.345   1.509   0.992
14498TIP3    H243452   0.307   1.650   0.950
14499TIP3   OH243453   2.670  -0.025   2.059
14499TIP3    H143454   2.585   0.020   2.064
14499TIP3    H243455   2.647  -0.118   2.064
14500TIP3   OH243456   4.534   2.232   5.119
14500TIP3    H143457   4.522   2.152   5.068
14500TIP3    H243458   4.459   2.234   5.178
14501TIP3   OH243459   3.548   6.773   2.270
14501TIP3    H143460   3.523   6.826   2.346
14501TIP3    H243461   3.525   6.827   2.195
14502TIP3   OH243462   0.663   4.841   2.942
14502TIP3    H143463   0.673   4.929   2.978
14502TIP3    H243464   0.713   4.785   3.000
14503TIP3   OH243465   4.767   0.187   1.513
14503TIP3    H143466   4.845   0.221   1.556
14503TIP3    H243467   4.754   0.100   1.550
14504TIP3   OH243468   3.877   5.975   5.583
14504TIP3    H143469   3.844   6.061   5.608
14504TIP3    H243470   3.838   5.958   5.498
14505TIP3   OH243471   3.776   4.150   4.460
14505TIP3    H143472   3.802   4.126   4.371
14505TIP3    H243473   3.681   4.136   4.463
14506TIP3   OH243474   3.409   3.893   0.397
14506TIP3    H143475   3.325   3.854   0.374
14506TIP3    H243476   3.470   3.858   0.332
14507TIP3   OH243477   1.487   3.160   5.961
14507TIP3    H143478   1.543   3.196   6.030
14507TIP3    H243479   1.404   3.142   6.005
14508TIP3   OH243480   3.042   2.166   1.958
14508TIP3    H143481   3.047   2.094   2.021
14508TIP3    H243482   3.066   2.127   1.874
14509TIP3   OH243483   5.041   4.315   6.349
14509TIP3    H143484   4.989   4.356   6.280
14509TIP3    H243485   4.979   4.262   6.399
14510TIP3   OH243486   4.145   3.451   3.236
14510TIP3    H143487   4.174   3.389   3.303
14510TIP3    H243488   4.227   3.481   3.195
14511TIP3   OH243489   0.485   3.194   3.549
14511TIP3    H143490   0.577   3.200   3.578
14511TIP3    H243491   0.474   3.269   3.490
14512TIP3   OH243492   7.417   5.414   6.770
14512TIP3    H143493   7.402   5.503   6.802
14512TIP3    H243494   7.421   5.423   6.675
14513TIP3   OH243495   3.626   6.783   4.516
14513TIP3    H143496   3.544   6.778   4.566
14513TIP3    H243497   3.615   6.719   4.446
14514TIP3   OH243498   5.883   7.780   0.853
14514TIP3    H143499   5.836   7.824   0.783
14514TIP3    H243500   5.913   7.852   0.910
14515TIP3   OH243501   4.864   5.045   3.608
14515TIP3    H143502   4.806   4.974   3.581
14515TIP3    H243503   4.918   5.064   3.531
14516TIP3   OH243504   1.156   4.671   5.295
14516TIP3    H143505   1.134   4.581   5.322
14516TIP3    H243506   1.248   4.666   5.268
14517TIP3   OH243507   1.144   6.931   4.306
14517TIP3    H143508   1.211   6.886   4.254
14517TIP3    H243509   1.112   7.000   4.248
14518TIP3   OH243510   0.424   0.145   0.153
14518TIP3    H143511   0.519   0.155   0.148
14518TIP3    H243512   0.409   0.051   0.142
14519TIP3   OH243513   3.633   6.932   0.385
14519TIP3    H143514   3.600   7.016   0.418
14519TIP3    H243515   3.556   6.888   0.350
14520TIP3   OH243516   1.112   7.652   2.526
14520TIP3    H143517   1.095   7.558   2.516
14520TIP3    H243518   1.207   7.660   2.510
14521TIP3   OH243519   7.306   2.508   3.414
14521TIP3    H143520   7.395   2.529   3.443
14521TIP3    H243521   7.278   2.586   3.366
14522TIP3   OH243522   2.999   3.909   5.938
14522TIP3    H143523   3.059   3.984   5.937
14522TIP3    H243524   2.935   3.930   6.005
14523TIP3   OH243525   7.729   7.704   2.594
14523TIP3    H143526   7.723   7.748   2.678
14523TIP3    H243527   7.648   7.726   2.548
14524TIP3   OH243528   5.262   1.913   0.027
14524TIP3    H143529   5.234   2.001   0.001
14524TIP3    H243530   5.281   1.920   0.121
14525TIP3   OH243531   7.883   0.313   1.861
14525TIP3    H143532   7.812   0.334   1.799
14525TIP3    H243533   7.950   0.378   1.843
14526TIP3   OH243534   3.092   2.913   4.415
14526TIP3    H143535   3.023   2.942   4.474
14526TIP3    H243536   3.165   2.971   4.433
14527TIP3   OH243537   4.042   5.496   0.538
14527TIP3    H143538   3.950   5.469   0.532
14527TIP3    H243539   4.063   5.490   0.631
14528TIP3   OH243540   5.027   7.506   0.877
14528TIP3    H143541   5.056   7.589   0.839
14528TIP3    H243542   4.933   7.504   0.861
14529TIP3   OH243543   4.345   6.962   6.316
14529TIP3    H143544   4.319   6.883   6.268
14529TIP3    H243545   4.424   6.937   6.364
14530TIP3   OH243546   4.995   1.438   2.277
14530TIP3    H143547   5.088   1.421   2.265
14530TIP3    H243548   4.955   1.351   2.284
14531TIP3   OH243549   2.873   4.795   0.196
14531TIP3    H143550   2.902   4.855   0.264
14531TIP3    H243551   2.780   4.813   0.186
14532TIP3   OH243552   3.339   5.188   5.664
14532TIP3    H143553   3.322   5.240   5.743
14532TIP3    H243554   3.345   5.098   5.696
14533TIP3   OH243555   8.161   6.580   1.538
14533TIP3    H143556   8.073   6.617   1.544
14533TIP3    H243557   8.149   6.487   1.558
14534TIP3   OH243558   1.455   3.393   2.846
14534TIP3    H143559   1.403   3.388   2.766
14534TIP3    H243560   1.395   3.368   2.915
14535TIP3   OH243561   4.018   6.100   3.503
14535TIP3    H143562   4.006   6.127   3.594
14535TIP3    H243563   4.009   6.181   3.453
14536TIP3   OH243564   3.195   3.077   6.331
14536TIP3    H143565   3.241   3.134   6.270
14536TIP3    H243566   3.194   3.127   6.413
14537TIP3   OH243567   5.623   6.894   2.569
14537TIP3    H143568   5.687   6.829   2.599
14537TIP3    H243569   5.628   6.964   2.635
14538TIP3   OH243570   0.292   2.808   3.501
14538TIP3    H143571   0.234   2.846   3.568
14538TIP3    H243572   0.343   2.882   3.469
14539TIP3   OH243573   2.534   6.314   1.546
14539TIP3    H143574   2.508   6.313   1.638
14539TIP3    H243575   2.615   6.264   1.542
14540TIP3   OH243576   2.712   6.497   2.088
14540TIP3    H143577   2.762   6.415   2.097
14540TIP3    H243578   2.715   6.516   1.994
14541TIP3   OH243579   6.664   1.136   6.750
14541TIP3    H143580   6.746   1.107   6.790
14541TIP3    H243581   6.616   1.176   6.822
14542TIP3   OH243582   0.455   4.328   6.428
14542TIP3    H143583   0.449   4.234   6.409
14542TIP3    H243584   0.431   4.334   6.521
14543TIP3   OH243585   6.815   5.366   0.441
14543TIP3    H143586   6.849   5.368   0.530
14543TIP3    H243587   6.768   5.449   0.431
14544TIP3   OH243588   3.367   4.218   0.780
14544TIP3    H143589   3.346   4.204   0.872
14544TIP3    H243590   3.350   4.134   0.738
14545TIP3   OH243591   1.457   6.754   0.447
14545TIP3    H143592   1.469   6.659   0.438
14545TIP3    H243593   1.405   6.765   0.527
14546TIP3   OH243594   2.495   5.335   3.963
14546TIP3    H143595   2.456   5.254   3.996
14546TIP3    H243596   2.421   5.389   3.938
14547TIP3   OH243597   3.934   4.775   6.644
14547TIP3    H143598   3.872   4.829   6.692
14547TIP3    H243599   3.881   4.730   6.577
14548TIP3   OH243600   6.475   5.179   0.159
14548TIP3    H143601   6.405   5.131   0.204
14548TIP3    H243602   6.553   5.159   0.210
14549TIP3   OH243603   2.692   6.017   3.979
14549TIP3    H143604   2.717   6.100   4.021
14549TIP3    H243605   2.707   5.951   4.046
14550TIP3   OH243606   5.317   1.584   1.187
14550TIP3    H143607   5.311   1.491   1.211
14550TIP3    H243608   5.266   1.591   1.106
14551TIP3   OH243609   2.346   3.170   4.047
14551TIP3    H143610   2.331   3.251   3.998
14551TIP3    H243611   2.277   3.111   4.017
14552TIP3   OH243612   4.321   6.709   6.516
14552TIP3    H143613   4.345   6.642   6.580
14552TIP3    H243614   4.404   6.753   6.495
14553TIP3   OH243615   3.015   7.406   5.041
14553TIP3    H143616   3.045   7.339   4.979
14553TIP3    H243617   2.937   7.368   5.082
14554TIP3   OH243618   6.998   0.806   0.530
14554TIP3    H143619   7.082   0.844   0.504
14554TIP3    H243620   7.013   0.773   0.618
14555TIP3   OH243621   6.448   1.552   5.246
14555TIP3    H143622   6.361   1.585   5.223
14555TIP3    H243623   6.461   1.581   5.336
14556TIP3   OH243624   7.348   1.861   1.512
14556TIP3    H143625   7.323   1.813   1.433
14556TIP3    H243626   7.298   1.820   1.583
14557TIP3   OH243627   0.644   6.066   4.923
14557TIP3    H143628   0.602   6.084   5.007
14557TIP3    H243629   0.675   6.152   4.893
14558TIP3   OH243630   5.710   5.596   5.270
14558TIP3    H143631   5.760   5.559   5.344
14558TIP3    H243632   5.633   5.540   5.263
14559TIP3   OH243633   3.226   6.199   0.350
14559TIP3    H143634   3.167   6.126   0.372
14559TIP3    H243635   3.178   6.277   0.377
14560TIP3   OH243636   1.414   5.196   4.802
14560TIP3    H143637   1.476   5.124   4.809
14560TIP3    H243638   1.467   5.275   4.801
14561TIP3   OH243639   4.103   7.127   2.330
14561TIP3    H143640   4.125   7.039   2.300
14561TIP3    H243641   4.028   7.116   2.387
14562TIP3   OH243642   3.151   0.804   6.014
14562TIP3    H143643   3.221   0.808   6.079
14562TIP3    H243644   3.148   0.712   5.988
14563TIP3   OH243645   1.665   6.800   0.144
14563TIP3    H143646   1.719   6.872   0.110
14563TIP3    H243647   1.697   6.785   0.232
14564TIP3   OH243648   3.739   5.338   2.795
14564TIP3    H143649   3.830   5.317   2.773
14564TIP3    H243650   3.703   5.377   2.715
14565TIP3   OH243651   7.627   2.632   2.959
14565TIP3    H143652   7.688   2.568   2.924
14565TIP3    H243653   7.653   2.715   2.918
14566TIP3   OH243654   4.872   2.934   1.487
14566TIP3    H143655   4.867   3.020   1.529
14566TIP3    H243656   4.914   2.950   1.403
14567TIP3   OH243657   6.027   5.339   3.962
14567TIP3    H143658   6.115   5.351   3.927
14567TIP3    H243659   5.991   5.265   3.913
14568TIP3   OH243660   1.475   4.062   3.439
14568TIP3    H143661   1.557   4.025   3.408
14568TIP3    H243662   1.501   4.123   3.509
14569TIP3   OH243663   0.284   5.478   6.451
14569TIP3    H143664   0.302   5.478   6.545
14569TIP3    H243665   0.197   5.517   6.442
14570TIP3   OH243666   7.528   7.513   5.716
14570TIP3    H143667   7.572   7.428   5.720
14570TIP3    H243668   7.583   7.570   5.770
14571TIP3   OH243669   0.650   6.203   6.706
14571TIP3    H143670   0.700   6.273   6.747
14571TIP3    H243671   0.713   6.131   6.697
14572TIP3   OH243672   6.338   2.656   1.214
14572TIP3    H143673   6.354   2.730   1.273
14572TIP3    H243674   6.262   2.683   1.161
14573TIP3   OH243675   7.652   6.998   1.074
14573TIP3    H143676   7.604   6.931   1.025
14573TIP3    H243677   7.731   7.013   1.022
14574TIP3   OH243678   6.382   4.843   3.102
14574TIP3    H143679   6.424   4.874   3.182
14574TIP3    H243680   6.429   4.886   3.031
14575TIP3   OH243681   6.425   2.878   0.184
14575TIP3    H143682   6.504   2.825   0.190
14575TIP3    H243683   6.434   2.943   0.254
14576TIP3   OH243684   2.365   3.796   5.874
14576TIP3    H143685   2.368   3.709   5.834
14576TIP3    H243686   2.272   3.816   5.882
14577TIP3   OH243687   2.377   3.791   1.146
14577TIP3    H143688   2.439   3.823   1.211
14577TIP3    H243689   2.347   3.706   1.180
14578TIP3   OH243690   5.809   0.509   3.198
14578TIP3    H143691   5.799   0.603   3.181
14578TIP3    H243692   5.720   0.476   3.206
14579TIP3   OH243693   0.618   7.256   4.751
14579TIP3    H143694   0.644   7.181   4.806
14579TIP3    H243695   0.611   7.329   4.813
14580TIP3   OH243696   3.464   5.537   0.499
14580TIP3    H143697   3.403   5.540   0.572
14580TIP3    H243698   3.418   5.488   0.430
14581TIP3   OH243699   5.014   6.215   4.587
14581TIP3    H143700   5.012   6.283   4.654
14581TIP3    H243701   4.925   6.215   4.550
14582TIP3   OH243702   3.628   0.218   0.429
14582TIP3    H143703   3.566   0.147   0.448
14582TIP3    H243704   3.584   0.297   0.460
14583TIP3   OH243705   6.195   6.019   3.803
14583TIP3    H143706   6.283   5.981   3.812
14583TIP3    H243707   6.199   6.100   3.853
14584TIP3   OH243708   3.491   2.993   2.912
14584TIP3    H143709   3.488   2.915   2.967
14584TIP3    H243710   3.406   2.996   2.869
14585TIP3   OH243711   2.044   3.008   5.851
14585TIP3    H143712   2.058   2.974   5.939
14585TIP3    H243713   1.950   2.997   5.835
14586TIP3   OH243714   4.819   6.727   2.550
14586TIP3    H143715   4.875   6.670   2.498
14586TIP3    H243716   4.779   6.786   2.487
14587TIP3   OH243717   5.375   6.137   0.059
14587TIP3    H143718   5.470   6.135   0.059
14587TIP3    H243719   5.353   6.229   0.072
14588TIP3   OH243720   0.191   2.830   4.220
14588TIP3    H143721   0.278   2.791   4.210
14588TIP3    H243722   0.195   2.911   4.169
14589TIP3   OH243723   4.093   5.764   0.457
14589TIP3    H143724   4.083   5.676   0.494
14589TIP3    H243725   4.185   5.769   0.431
14590TIP3   OH243726   4.650   5.179   2.540
14590TIP3    H143727   4.695   5.213   2.616
14590TIP3    H243728   4.718   5.132   2.491
14591TIP3   OH243729   3.226   7.469   5.957
14591TIP3    H143730   3.169   7.392   5.958
14591TIP3    H243731   3.186   7.528   5.894
14592TIP3   OH243732   2.895   0.593   0.639
14592TIP3    H143733   2.891   0.528   0.709
14592TIP3    H243734   2.818   0.575   0.585
14593TIP3   OH243735   2.543   1.640   0.938
14593TIP3    H143736   2.493   1.559   0.948
14593TIP3    H243737   2.605   1.620   0.868
14594TIP3   OH243738   3.885   7.659   5.509
14594TIP3    H143739   3.905   7.665   5.603
14594TIP3    H243740   3.831   7.735   5.491
14595TIP3   OH243741   7.007   6.465   1.475
14595TIP3    H143742   7.008   6.381   1.520
14595TIP3    H243743   7.039   6.445   1.387
14596TIP3   OH243744   7.998   0.774   0.249
14596TIP3    H143745   8.014   0.685   0.282
14596TIP3    H243746   7.950   0.761   0.168
14597TIP3   OH243747   1.055   6.686   0.790
14597TIP3    H143748   1.069   6.747   0.862
14597TIP3    H243749   0.968   6.708   0.756
14598TIP3   OH243750   7.770   0.934   1.687
14598TIP3    H143751   7.726   0.849   1.683
14598TIP3    H243752   7.861   0.915   1.665
14599TIP3   OH243753   3.044   3.985   2.522
14599TIP3    H143754   2.955   4.002   2.552
14599TIP3    H243755   3.068   3.902   2.561
14600TIP3   OH243756   5.635   4.967   2.434
14600TIP3    H143757   5.654   5.053   2.472
14600TIP3    H243758   5.695   4.908   2.480
14601TIP3   OH243759   6.672   5.159   0.344
14601TIP3    H143760   6.741   5.223   0.356
14601TIP3    H243761   6.633   5.149   0.431
14602TIP3   OH243762   3.807   5.286   0.024
14602TIP3    H143763   3.740   5.305  -0.042
14602TIP3    H243764   3.761   5.232   0.089
14603TIP3   OH243765   8.072   2.069   2.941
14603TIP3    H143766   8.114   1.983   2.946
14603TIP3    H243767   8.097   2.113   3.023
14604TIP3   OH243768   0.640   0.820   5.967
14604TIP3    H143769   0.664   0.727   5.970
14604TIP3    H243770   0.557   0.822   5.918
14605TIP3   OH243771   2.171   4.635   4.957
14605TIP3    H143772   2.196   4.686   4.880
14605TIP3    H243773   2.199   4.689   5.032
14606TIP3   OH243774   1.707   3.508   3.362
14606TIP3    H143775   1.729   3.556   3.442
14606TIP3    H243776   1.746   3.561   3.292
14607TIP3   OH243777   0.887   0.771   6.660
14607TIP3    H143778   0.926   0.858   6.665
14607TIP3    H243779   0.885   0.740   6.751
14608TIP3   OH243780   5.085   1.856   6.182
14608TIP3    H143781   5.128   1.821   6.105
14608TIP3    H243782   4.991   1.850   6.162
14609TIP3   OH243783   6.342   4.066   2.775
14609TIP3    H143784   6.392   4.101   2.701
14609TIP3    H243785   6.280   4.005   2.735
14610TIP3   OH243786   4.589   7.768   5.618
14610TIP3    H143787   4.547   7.843   5.660
14610TIP3    H243788   4.672   7.804   5.585
14611TIP3   OH243789   7.107   1.846   4.319
14611TIP3    H143790   7.056   1.923   4.346
14611TIP3    H243791   7.186   1.882   4.281
14612TIP3   OH243792   8.031   7.608   6.278
14612TIP3    H143793   8.098   7.605   6.346
14612TIP3    H243794   7.955   7.566   6.318
14613TIP3   OH243795   1.496   4.856   2.139
14613TIP3    H143796   1.563   4.922   2.158
14613TIP3    H243797   1.429   4.904   2.089
14614TIP3   OH243798   1.662   4.595   0.021
14614TIP3    H143799   1.680   4.677   0.066
14614TIP3    H243800   1.571   4.603  -0.008
14615TIP3   OH243801   3.013   1.544   0.740
14615TIP3    H143802   3.007   1.593   0.658
14615TIP3    H243803   3.090   1.489   0.728
14616TIP3   OH243804   6.376   1.707   3.808
14616TIP3    H143805   6.392   1.656   3.729
14616TIP3    H243806   6.401   1.649   3.880
14617TIP3   OH243807   6.093   6.301   4.910
14617TIP3    H143808   6.183   6.332   4.902
14617TIP3    H243809   6.058   6.347   4.986
14618TIP3   OH243810   4.367   5.210   5.296
14618TIP3    H143811   4.459   5.237   5.302
14618TIP3    H243812   4.347   5.214   5.202
14619TIP3   OH243813   2.424   5.595   3.601
14619TIP3    H143814   2.376   5.614   3.682
14619TIP3    H243815   2.506   5.556   3.630
14620TIP3   OH243816   3.919   5.500   1.433
14620TIP3    H143817   4.004   5.537   1.456
14620TIP3    H243818   3.939   5.432   1.368
14621TIP3   OH243819   0.188   7.743   6.001
14621TIP3    H143820   0.197   7.649   5.982
14621TIP3    H243821   0.213   7.786   5.919
14622TIP3   OH243822   1.394   0.879   4.161
14622TIP3    H143823   1.321   0.940   4.150
14622TIP3    H243824   1.456   0.904   4.091
14623TIP3   OH243825   6.069   6.574   1.118
14623TIP3    H143826   6.145   6.629   1.096
14623TIP3    H243827   6.090   6.488   1.080
14624TIP3   OH243828   1.093   1.577   3.282
14624TIP3    H143829   1.146   1.597   3.359
14624TIP3    H243830   1.145   1.512   3.234
14625TIP3   OH243831   7.563   3.707   3.722
14625TIP3    H143832   7.621   3.756   3.663
14625TIP3    H243833   7.475   3.722   3.687
14626TIP3   OH243834   1.188   6.048   0.957
14626TIP3    H143835   1.182   5.954   0.945
14626TIP3    H243836   1.100   6.075   0.982
14627TIP3   OH243837   7.412   0.918   2.190
14627TIP3    H143838   7.325   0.899   2.227
14627TIP3    H243839   7.472   0.862   2.241
14628TIP3   OH243840   4.714   3.170   4.091
14628TIP3    H143841   4.792   3.199   4.043
14628TIP3    H243842   4.642   3.219   4.051
14629TIP3   OH243843   7.132   6.385   0.375
14629TIP3    H143844   7.110   6.474   0.404
14629TIP3    H243845   7.051   6.335   0.387
14630TIP3   OH243846   3.646   7.220   0.505
14630TIP3    H143847   3.578   7.259   0.449
14630TIP3    H243848   3.710   7.290   0.517
14631TIP3   OH243849   7.064   3.274   0.133
14631TIP3    H143850   7.034   3.217   0.204
14631TIP3    H243851   7.136   3.325   0.171
14632TIP3   OH243852   3.756   4.212   5.516
14632TIP3    H143853   3.817   4.141   5.534
14632TIP3    H243854   3.671   4.168   5.504
14633TIP3   OH243855   3.317   6.018   1.847
14633TIP3    H143856   3.359   5.937   1.876
14633TIP3    H243857   3.388   6.081   1.839
14634TIP3   OH243858   3.956   1.107   1.024
14634TIP3    H143859   3.977   1.067   1.109
14634TIP3    H243860   3.891   1.049   0.985
14635TIP3   OH243861   2.641   4.805   1.425
14635TIP3    H143862   2.714   4.810   1.488
14635TIP3    H243863   2.672   4.853   1.349
14636TIP3   OH243864   5.487   2.623   2.156
14636TIP3    H143865   5.470   2.668   2.239
14636TIP3    H243866   5.568   2.575   2.171
14637TIP3   OH243867   3.550   6.461   1.967
14637TIP3    H143868   3.479   6.503   1.918
14637TIP3    H243869   3.630   6.502   1.934
14638TIP3   OH243870   3.047   0.875   3.930
14638TIP3    H143871   2.986   0.922   3.872
14638TIP3    H243872   3.009   0.788   3.940
14639TIP3   OH243873   5.866   2.914   0.621
14639TIP3    H143874   5.833   2.948   0.538
14639TIP3    H243875   5.936   2.853   0.595
14640TIP3   OH243876   3.730   5.922   2.991
14640TIP3    H143877   3.645   5.913   3.036
14640TIP3    H243878   3.732   5.849   2.930
14641TIP3   OH243879   8.009   1.625   1.928
14641TIP3    H143880   8.009   1.578   2.012
14641TIP3    H243881   8.027   1.556   1.864
14642TIP3   OH243882   6.190   5.610   4.111
14642TIP3    H143883   6.101   5.644   4.097
14642TIP3    H243884   6.176   5.523   4.147
14643TIP3   OH243885   4.311   1.044   2.903
14643TIP3    H143886   4.362   0.968   2.930
14643TIP3    H243887   4.221   1.012   2.898
14644TIP3   OH243888   1.498   6.369   3.543
14644TIP3    H143889   1.405   6.363   3.563
14644TIP3    H243890   1.518   6.463   3.543
14645TIP3   OH243891   7.551   3.662   5.012
14645TIP3    H143892   7.540   3.567   5.008
14645TIP3    H243893   7.527   3.693   4.925
14646TIP3   OH243894   0.536   6.446   5.032
14646TIP3    H143895   0.535   6.520   5.092
14646TIP3    H243896   0.444   6.418   5.026
14647TIP3   OH243897   2.990   2.535   3.780
14647TIP3    H143898   2.972   2.628   3.772
14647TIP3    H243899   2.928   2.494   3.718
14648TIP3   OH243900   3.718   0.425   1.005
14648TIP3    H143901   3.713   0.368   1.081
14648TIP3    H243902   3.634   0.414   0.961
14649TIP3   OH243903   5.333   6.891   5.331
14649TIP3    H143904   5.412   6.937   5.360
14649TIP3    H243905   5.298   6.850   5.410
14650TIP3   OH243906   1.372   7.552   6.461
14650TIP3    H143907   1.428   7.627   6.481
14650TIP3    H243908   1.395   7.526   6.372
14651TIP3   OH243909   5.712   2.474   2.167
14651TIP3    H143910   5.746   2.429   2.090
14651TIP3    H243911   5.704   2.404   2.233
14652TIP3   OH243912   3.345   3.495   3.321
14652TIP3    H143913   3.323   3.578   3.279
14652TIP3    H243914   3.413   3.517   3.385
14653TIP3   OH243915   2.779   3.434   4.819
14653TIP3    H143916   2.690   3.452   4.790
14653TIP3    H243917   2.828   3.512   4.794
14654TIP3   OH243918   4.191   0.254   0.549
14654TIP3    H143919   4.156   0.333   0.508
14654TIP3    H243920   4.279   0.280   0.578
14655TIP3   OH243921   5.551   3.649   0.481
14655TIP3    H143922   5.484   3.608   0.536
14655TIP3    H243923   5.593   3.712   0.539
14656TIP3   OH243924   4.497   2.814  -0.006
14656TIP3    H143925   4.442   2.804   0.071
14656TIP3    H243926   4.439   2.799  -0.080
14657TIP3   OH243927   5.040   1.299   2.696
14657TIP3    H143928   5.029   1.210   2.662
14657TIP3    H243929   5.112   1.336   2.644
14658TIP3   OH243930   1.239   0.093   6.317
14658TIP3    H143931   1.170   0.033   6.346
14658TIP3    H243932   1.233   0.168   6.376
14659TIP3   OH243933   2.174   6.021   0.360
14659TIP3    H143934   2.109   5.956   0.332
14659TIP3    H243935   2.239   6.021   0.290
14660TIP3   OH243936   0.212   6.990   3.436
14660TIP3    H143937   0.201   6.965   3.528
14660TIP3    H243938   0.294   6.947   3.410
14661TIP3   OH243939   8.288   2.233   6.215
14661TIP3    H143940   8.301   2.323   6.245
14661TIP3    H243941   8.240   2.243   6.132
14662TIP3   OH243942   0.699   5.149   1.346
14662TIP3    H143943   0.708   5.075   1.286
14662TIP3    H243944   0.627   5.126   1.404
14663TIP3   OH243945   6.855   1.871   0.479
14663TIP3    H143946   6.784   1.879   0.542
14663TIP3    H243947   6.887   1.960   0.466
14664TIP3   OH243948   1.034   1.908   4.286
14664TIP3    H143949   1.005   1.830   4.239
14664TIP3    H243950   1.085   1.875   4.359
14665TIP3   OH243951   3.895   3.258   4.794
14665TIP3    H143952   3.922   3.200   4.723
14665TIP3    H243953   3.822   3.308   4.757
14666TIP3   OH243954   5.842   3.641   5.354
14666TIP3    H143955   5.913   3.588   5.391
14666TIP3    H243956   5.827   3.710   5.419
14667TIP3   OH243957   7.967   1.355   5.509
14667TIP3    H143958   8.018   1.288   5.553
14667TIP3    H243959   7.981   1.434   5.561
14668TIP3   OH243960   5.332   3.572   1.317
14668TIP3    H143961   5.341   3.665   1.334
14668TIP3    H243962   5.326   3.566   1.221
14669TIP3   OH243963   3.448   1.556   6.064
14669TIP3    H143964   3.497   1.475   6.051
14669TIP3    H243965   3.481   1.591   6.147
14670TIP3   OH243966   2.484   0.505   4.098
14670TIP3    H143967   2.501   0.430   4.042
14670TIP3    H243968   2.570   0.544   4.114
14671TIP3   OH243969   2.314   0.929   4.552
14671TIP3    H143970   2.284   0.995   4.489
14671TIP3    H243971   2.287   0.964   4.637
14672TIP3   OH243972   2.026   4.197   2.572
14672TIP3    H143973   2.077   4.150   2.639
14672TIP3    H243974   1.997   4.128   2.512
14673TIP3   OH243975   1.879   3.072   4.550
14673TIP3    H143976   1.864   3.139   4.484
14673TIP3    H243977   1.882   3.120   4.633
14674TIP3   OH243978   1.527   3.963   2.979
14674TIP3    H143979   1.492   3.958   2.890
14674TIP3    H243980   1.451   3.984   3.033
14675TIP3   OH243981   3.619   6.096   2.500
14675TIP3    H143982   3.618   6.075   2.407
14675TIP3    H243983   3.538   6.059   2.534
14676TIP3   OH243984   3.738   6.748   1.609
14676TIP3    H143985   3.830   6.756   1.634
14676TIP3    H243986   3.690   6.794   1.677
14677TIP3   OH243987   0.086   5.069   2.311
14677TIP3    H143988   0.115   4.995   2.365
14677TIP3    H243989   0.106   5.146   2.363
14678TIP3   OH243990   1.684   7.543   5.554
14678TIP3    H143991   1.771   7.580   5.572
14678TIP3    H243992   1.673   7.477   5.622
14679TIP3   OH243993   1.932   5.524   5.669
14679TIP3    H143994   2.004   5.460   5.663
14679TIP3    H243995   1.924   5.559   5.580
14680TIP3   OH243996   2.702   7.383   1.217
14680TIP3    H143997   2.788   7.417   1.194
14680TIP3    H243998   2.679   7.429   1.298
14681TIP3   OH243999   4.784   1.553   2.905
14681TIP3    H144000   4.864   1.600   2.881
14681TIP3    H244001   4.754   1.513   2.823
14682TIP3   OH244002   2.811   6.519   0.172
14682TIP3    H144003   2.898   6.559   0.175
14682TIP3    H244004   2.753   6.583   0.214
14683TIP3   OH244005   7.721   6.537   4.042
14683TIP3    H144006   7.755   6.625   4.054
14683TIP3    H244007   7.686   6.513   4.128
14684TIP3   OH244008   0.693   4.435   3.147
14684TIP3    H144009   0.747   4.377   3.201
14684TIP3    H244010   0.738   4.519   3.151
14685TIP3   OH244011   2.757   7.112   3.643
14685TIP3    H144012   2.689   7.102   3.576
14685TIP3    H244013   2.741   7.198   3.681
14686TIP3   OH244014   2.851   2.212   0.891
14686TIP3    H144015   2.935   2.257   0.885
14686TIP3    H244016   2.798   2.250   0.822
14687TIP3   OH244017   0.796   4.618   4.978
14687TIP3    H144018   0.890   4.601   4.972
14687TIP3    H244019   0.755   4.532   4.971
14688TIP3   OH244020   5.529   5.655   5.685
14688TIP3    H144021   5.543   5.747   5.662
14688TIP3    H244022   5.583   5.641   5.762
14689TIP3   OH244023   2.229   4.895   0.846
14689TIP3    H144024   2.281   4.965   0.884
14689TIP3    H244025   2.222   4.830   0.916
14690TIP3   OH244026   5.510   2.464   0.483
14690TIP3    H144027   5.528   2.505   0.398
14690TIP3    H244028   5.552   2.378   0.478
14691TIP3   OH244029   0.212   6.274   0.610
14691TIP3    H144030   0.209   6.297   0.702
14691TIP3    H244031   0.259   6.346   0.568
14692TIP3   OH244032   6.785   6.316   5.180
14692TIP3    H144033   6.879   6.337   5.178
14692TIP3    H244034   6.754   6.357   5.260
14693TIP3   OH244035   6.324   0.147   2.098
14693TIP3    H144036   6.350   0.090   2.170
14693TIP3    H244037   6.358   0.104   2.019
14694TIP3   OH244038   4.421   1.959   3.111
14694TIP3    H144039   4.348   1.919   3.158
14694TIP3    H244040   4.379   2.015   3.046
14695TIP3   OH244041   5.888   6.365   0.359
14695TIP3    H144042   5.837   6.392   0.435
14695TIP3    H244043   5.843   6.287   0.326
14696TIP3   OH244044   1.930   7.601   3.788
14696TIP3    H144045   2.011   7.640   3.754
14696TIP3    H244046   1.902   7.540   3.720
14697TIP3   OH244047   7.583   4.783   2.715
14697TIP3    H144048   7.540   4.700   2.737
14697TIP3    H244049   7.581   4.786   2.620
14698TIP3   OH244050   3.570   2.516   0.439
14698TIP3    H144051   3.537   2.430   0.465
14698TIP3    H244052   3.505   2.578   0.473
14699TIP3   OH244053   6.467   1.325   2.536
14699TIP3    H144054   6.541   1.364   2.489
14699TIP3    H244055   6.390   1.366   2.497
14700TIP3   OH244056   5.827   2.152   4.654
14700TIP3    H144057   5.902   2.174   4.598
14700TIP3    H244058   5.768   2.102   4.598
14701TIP3   OH244059   4.102   7.258   4.766
14701TIP3    H144060   4.098   7.319   4.840
14701TIP3    H244061   4.162   7.189   4.795
14702TIP3   OH244062   7.947   5.283   2.223
14702TIP3    H144063   7.959   5.316   2.312
14702TIP3    H244064   7.983   5.352   2.167
14703TIP3   OH244065   8.108   7.371   3.396
14703TIP3    H144066   8.103   7.466   3.391
14703TIP3    H244067   8.173   7.346   3.330
14704TIP3   OH244068   2.028   2.509   4.509
14704TIP3    H144069   1.981   2.531   4.429
14704TIP3    H244070   2.111   2.472   4.480
14705TIP3   OH244071   7.269   3.511   4.973
14705TIP3    H144072   7.278   3.574   4.901
14705TIP3    H244073   7.359   3.490   4.997
14706TIP3   OH244074   1.026   7.469   3.103
14706TIP3    H144075   1.097   7.532   3.090
14706TIP3    H244076   1.041   7.432   3.190
14707TIP3   OH244077   6.919   7.757   3.864
14707TIP3    H144078   6.921   7.753   3.769
14707TIP3    H244079   7.004   7.721   3.891
14708TIP3   OH244080   1.265   1.563   3.517
14708TIP3    H144081   1.291   1.502   3.586
14708TIP3    H244082   1.260   1.648   3.561
14709TIP3   OH244083   3.089   3.915   2.889
14709TIP3    H144084   3.024   3.949   2.827
14709TIP3    H244085   3.061   3.949   2.974
14710TIP3   OH244086   0.678   0.330   5.508
14710TIP3    H144087   0.700   0.258   5.449
14710TIP3    H244088   0.753   0.390   5.502
14711TIP3   OH244089   6.203   4.838   2.735
14711TIP3    H144090   6.179   4.796   2.652
14711TIP3    H244091   6.238   4.766   2.788
14712TIP3   OH244092   7.922   2.103   2.397
14712TIP3    H144093   7.968   2.174   2.441
14712TIP3    H244094   7.904   2.039   2.467
14713TIP3   OH244095   3.154   5.303   4.391
14713TIP3    H144096   3.093   5.265   4.327
14713TIP3    H244097   3.197   5.374   4.343
14714TIP3   OH244098   4.190   6.008   5.055
14714TIP3    H144099   4.241   5.961   5.121
14714TIP3    H244100   4.223   6.098   5.058
14715TIP3   OH244101   4.514   4.811   4.928
14715TIP3    H144102   4.497   4.763   4.847
14715TIP3    H244103   4.435   4.864   4.941
14716TIP3   OH244104   1.946   3.425   1.629
14716TIP3    H144105   1.897   3.388   1.703
14716TIP3    H244106   1.976   3.349   1.580
14717TIP3   OH244107   0.765   5.402   5.900
14717TIP3    H144108   0.842   5.419   5.845
14717TIP3    H244109   0.746   5.487   5.940
14718TIP3   OH244110   3.660   5.899   5.911
14718TIP3    H144111   3.608   5.907   5.990
14718TIP3    H244112   3.596   5.889   5.841
14719TIP3   OH244113   3.764   6.903   6.191
14719TIP3    H144114   3.779   6.901   6.097
14719TIP3    H244115   3.849   6.922   6.230
14720TIP3   OH244116   5.206   4.028   4.284
14720TIP3    H144117   5.254   4.103   4.319
14720TIP3    H244118   5.246   4.011   4.199
14721TIP3   OH244119   3.201   0.226   5.336
14721TIP3    H144120   3.187   0.150   5.279
14721TIP3    H244121   3.249   0.191   5.411
14722TIP3   OH244122   5.599   2.349   5.179
14722TIP3    H144123   5.536   2.405   5.224
14722TIP3    H244124   5.670   2.337   5.242
14723TIP3   OH244125   5.252   4.896   5.264
14723TIP3    H144126   5.187   4.865   5.327
14723TIP3    H244127   5.207   4.892   5.180
14724TIP3   OH244128   3.579   2.762   1.279
14724TIP3    H144129   3.508   2.788   1.221
14724TIP3    H244130   3.648   2.827   1.265
14725TIP3   OH244131   6.020   7.737   1.768
14725TIP3    H144132   6.073   7.699   1.698
14725TIP3    H244133   6.085   7.769   1.832
14726TIP3   OH244134   2.396   0.316   6.137
14726TIP3    H144135   2.339   0.329   6.061
14726TIP3    H244136   2.336   0.311   6.211
14727TIP3   OH244137   1.931   6.676   3.076
14727TIP3    H144138   1.938   6.639   3.165
14727TIP3    H244139   1.839   6.662   3.052
14728TIP3   OH244140   7.587   1.011   5.197
14728TIP3    H144141   7.578   0.930   5.247
14728TIP3    H244142   7.544   0.992   5.114
14729TIP3   OH244143   2.884   5.983   4.990
14729TIP3    H144144   2.975   5.999   5.017
14729TIP3    H244145   2.863   6.057   4.933
14730TIP3   OH244146   1.396   0.742   1.897
14730TIP3    H144147   1.422   0.679   1.830
14730TIP3    H244148   1.305   0.719   1.918
14731TIP3   OH244149   3.303   2.568   3.550
14731TIP3    H144150   3.363   2.531   3.485
14731TIP3    H244151   3.345   2.551   3.634
14732TIP3   OH244152   4.828   1.916   4.931
14732TIP3    H144153   4.916   1.929   4.966
14732TIP3    H244154   4.782   1.870   5.001
14733TIP3   OH244155   5.699   0.112   2.023
14733TIP3    H144156   5.745   0.195   2.009
14733TIP3    H244157   5.697   0.070   1.937
14734TIP3   OH244158   7.303   2.147   0.698
14734TIP3    H144159   7.283   2.117   0.786
14734TIP3    H244160   7.361   2.223   0.712
14735TIP3   OH244161   1.637   5.635   1.336
14735TIP3    H144162   1.656   5.593   1.420
14735TIP3    H244163   1.699   5.595   1.274
14736TIP3   OH244164   0.928   3.278   2.801
14736TIP3    H144165   0.993   3.346   2.786
14736TIP3    H244166   0.949   3.243   2.887
14737TIP3   OH244167   1.838   7.258   6.655
14737TIP3    H144168   1.746   7.286   6.652
14737TIP3    H244169   1.852   7.214   6.572
14738TIP3   OH244170   2.860   3.173   4.833
14738TIP3    H144171   2.784   3.154   4.888
14738TIP3    H244172   2.862   3.268   4.826
14739TIP3   OH244173   7.887   1.627   1.054
14739TIP3    H144174   7.813   1.619   1.114
14739TIP3    H244175   7.858   1.691   0.989
14740TIP3   OH244176   6.122   0.591   6.225
14740TIP3    H144177   6.176   0.645   6.282
14740TIP3    H244178   6.042   0.642   6.211
14741TIP3   OH244179   0.825   5.134   2.694
14741TIP3    H144180   0.899   5.126   2.634
14741TIP3    H244181   0.821   5.051   2.740
14742TIP3   OH244182   0.531   0.024   2.949
14742TIP3    H144183   0.620   0.023   2.915
14742TIP3    H244184   0.476   0.007   2.872
14743TIP3   OH244185   4.648   3.075   2.961
14743TIP3    H144186   4.717   3.141   2.962
14743TIP3    H244187   4.591   3.100   3.034
14744TIP3   OH244188   5.246   3.299   6.349
14744TIP3    H144189   5.249   3.387   6.311
14744TIP3    H244190   5.292   3.244   6.285
14745TIP3   OH244191   7.186   7.087   1.177
14745TIP3    H144192   7.258   7.060   1.121
14745TIP3    H244193   7.114   7.105   1.117
14746TIP3   OH244194   3.021   4.660   5.611
14746TIP3    H144195   2.985   4.740   5.649
14746TIP3    H244196   2.973   4.649   5.529
14747TIP3   OH244197   2.994   1.957   0.718
14747TIP3    H144198   3.026   1.884   0.664
14747TIP3    H244199   3.035   2.035   0.680
14748TIP3   OH244200   2.777   4.060   2.947
14748TIP3    H144201   2.813   4.147   2.962
14748TIP3    H244202   2.727   4.042   3.026
14749TIP3   OH244203   6.022   2.479   2.115
14749TIP3    H144204   6.014   2.438   2.029
14749TIP3    H244205   6.110   2.456   2.145
14750TIP3   OH244206   2.744   3.823   4.019
14750TIP3    H144207   2.656   3.861   4.025
14750TIP3    H244208   2.744   3.776   3.936
14751TIP3   OH244209   3.241   2.896   1.779
14751TIP3    H144210   3.272   2.824   1.723
14751TIP3    H244211   3.164   2.861   1.823
14752TIP3   OH244212   6.695   7.521   2.556
14752TIP3    H144213   6.782   7.494   2.586
14752TIP3    H244214   6.634   7.480   2.618
14753TIP3   OH244215   2.821   6.491   4.217
14753TIP3    H144216   2.762   6.527   4.284
14753TIP3    H244217   2.800   6.540   4.137
14754TIP3   OH244218   3.406   2.027   4.015
14754TIP3    H144219   3.407   1.972   4.093
14754TIP3    H244220   3.446   1.972   3.947
14755TIP3   OH244221   2.966   7.230   3.366
14755TIP3    H144222   2.913   7.296   3.410
14755TIP3    H244223   3.055   7.247   3.395
14756TIP3   OH244224   7.050   5.982   3.733
14756TIP3    H144225   7.090   6.023   3.809
14756TIP3    H244226   6.958   5.970   3.758
14757TIP3   OH244227   0.833   7.257   2.041
14757TIP3    H144228   0.770   7.202   1.994
14757TIP3    H244229   0.846   7.213   2.125
14758TIP3   OH244230   5.557   5.649   1.567
14758TIP3    H144231   5.578   5.581   1.504
14758TIP3    H244232   5.515   5.602   1.639
14759TIP3   OH244233   4.960   4.306   4.775
14759TIP3    H144234   4.871   4.273   4.760
14759TIP3    H244235   5.017   4.238   4.741
14760TIP3   OH244236   7.033   0.559   4.086
14760TIP3    H144237   6.990   0.565   4.171
14760TIP3    H244238   7.060   0.468   4.079
14761TIP3   OH244239   4.449   4.975   3.904
14761TIP3    H144240   4.541   4.980   3.881
14761TIP3    H244241   4.447   4.987   3.999
14762TIP3   OH244242   7.398   6.043   1.038
14762TIP3    H144243   7.366   6.072   1.124
14762TIP3    H244244   7.319   6.039   0.984
14763TIP3   OH244245   1.605   4.584   4.432
14763TIP3    H144246   1.515   4.575   4.465
14763TIP3    H244247   1.654   4.619   4.506
14764TIP3   OH244248   5.421   1.260   2.837
14764TIP3    H144249   5.500   1.226   2.795
14764TIP3    H244250   5.412   1.348   2.801
14765TIP3   OH244251   3.695   7.458   3.105
14765TIP3    H144252   3.733   7.458   3.193
14765TIP3    H244253   3.711   7.546   3.072
14766TIP3   OH244254   4.006   6.341   4.743
14766TIP3    H144255   3.937   6.348   4.677
14766TIP3    H244256   3.994   6.254   4.781
14767TIP3   OH244257   3.021   5.035   3.850
14767TIP3    H144258   2.942   5.042   3.797
14767TIP3    H244259   3.032   4.941   3.864
14768TIP3   OH244260   4.725   6.175   4.482
14768TIP3    H144261   4.635   6.154   4.509
14768TIP3    H244262   4.754   6.098   4.433
14769TIP3   OH244263   2.587   1.489   4.319
14769TIP3    H144264   2.541   1.415   4.359
14769TIP3    H244265   2.552   1.493   4.230
14770TIP3   OH244266   4.039   3.465   3.861
14770TIP3    H144267   3.954   3.500   3.888
14770TIP3    H244268   4.101   3.500   3.926
14771TIP3   OH244269   4.130   2.000   1.445
14771TIP3    H144270   4.047   2.035   1.412
14771TIP3    H244271   4.104   1.941   1.517
14772TIP3   OH244272   7.928   0.903   1.321
14772TIP3    H144273   7.844   0.944   1.301
14772TIP3    H244274   7.912   0.809   1.310
14773TIP3   OH244275   1.681   7.504   1.104
14773TIP3    H144276   1.634   7.428   1.138
14773TIP3    H244277   1.705   7.479   1.015
14774TIP3   OH244278   6.124   4.136   5.831
14774TIP3    H144279   6.098   4.203   5.894
14774TIP3    H244280   6.147   4.060   5.885
14775TIP3   OH244281   6.453   5.356   0.968
14775TIP3    H144282   6.505   5.399   0.901
14775TIP3    H244283   6.364   5.389   0.955
14776TIP3   OH244284   5.676   5.110   4.787
14776TIP3    H144285   5.585   5.098   4.815
14776TIP3    H244286   5.722   5.137   4.867
14777TIP3   OH244287   0.917   5.499   4.777
14777TIP3    H144288   0.901   5.500   4.682
14777TIP3    H244289   0.912   5.407   4.801
14778TIP3   OH244290   4.919   6.895   2.166
14778TIP3    H144291   4.950   6.889   2.256
14778TIP3    H244292   4.934   6.807   2.130
14779TIP3   OH244293   7.556   6.330   0.458
14779TIP3    H144294   7.563   6.409   0.406
14779TIP3    H244295   7.559   6.259   0.394
14780TIP3   OH244296   3.608   5.830   5.587
14780TIP3    H144297   3.580   5.750   5.542
14780TIP3    H244298   3.701   5.840   5.564
14781TIP3   OH244299   1.924   4.652   6.671
14781TIP3    H144300   1.878   4.736   6.676
14781TIP3    H244301   1.974   4.647   6.752
14782TIP3   OH244302   0.216   5.405   5.704
14782TIP3    H144303   0.235   5.336   5.641
14782TIP3    H244304   0.226   5.486   5.654
14783TIP3   OH244305   5.395   3.158   0.895
14783TIP3    H144306   5.391   3.207   0.978
14783TIP3    H244307   5.310   3.114   0.890
14784TIP3   OH244308   4.739   6.583   6.497
14784TIP3    H144309   4.705   6.562   6.584
14784TIP3    H244310   4.829   6.552   6.499
14785TIP3   OH244311   6.285   0.876   1.533
14785TIP3    H144312   6.372   0.884   1.492
14785TIP3    H244313   6.304   0.852   1.623
14786TIP3   OH244314   1.966   1.328   1.726
14786TIP3    H144315   2.042   1.299   1.776
14786TIP3    H244316   1.994   1.322   1.634
14787TIP3   OH244317   5.257   5.284   2.202
14787TIP3    H144318   5.168   5.320   2.207
14787TIP3    H244319   5.302   5.338   2.137
14788TIP3   OH244320   6.022   4.987   0.485
14788TIP3    H144321   5.985   4.971   0.398
14788TIP3    H244322   6.001   4.909   0.535
14789TIP3   OH244323   0.036   2.614   0.907
14789TIP3    H144324   0.059   2.543   0.967
14789TIP3    H244325  -0.020   2.572   0.841
14790TIP3   OH244326   2.083   2.921   5.261
14790TIP3    H144327   2.023   2.967   5.320
14790TIP3    H244328   2.148   2.987   5.236
14791TIP3   OH244329   5.017   6.186   1.074
14791TIP3    H144330   4.938   6.227   1.109
14791TIP3    H244331   5.023   6.220   0.985
14792TIP3   OH244332   2.263   4.845   4.787
14792TIP3    H144333   2.343   4.853   4.838
14792TIP3    H244334   2.285   4.881   4.701
14793TIP3   OH244335   5.766   3.398   2.143
14793TIP3    H144336   5.824   3.433   2.211
14793TIP3    H244337   5.809   3.317   2.114
14794TIP3   OH244338   5.854   6.033   1.352
14794TIP3    H144339   5.901   5.986   1.283
14794TIP3    H244340   5.847   5.970   1.424
14795TIP3   OH244341   1.395   2.331   3.583
14795TIP3    H144342   1.326   2.376   3.534
14795TIP3    H244343   1.470   2.390   3.580
14796TIP3   OH244344   5.258   7.800   3.237
14796TIP3    H144345   5.283   7.837   3.322
14796TIP3    H244346   5.339   7.801   3.186
14797TIP3   OH244347   3.462   3.938   3.592
14797TIP3    H144348   3.400   3.916   3.662
14797TIP3    H244349   3.412   3.926   3.512
14798TIP3   OH244350   4.624   4.666   0.921
14798TIP3    H144351   4.620   4.753   0.879
14798TIP3    H244352   4.536   4.630   0.909
14799TIP3   OH244353   4.019   2.932   3.811
14799TIP3    H144354   4.102   2.889   3.834
14799TIP3    H244355   3.954   2.888   3.865
14800TIP3   OH244356   1.920   6.052   2.856
14800TIP3    H144357   1.997   6.081   2.905
14800TIP3    H244358   1.947   5.969   2.815
14801TIP3   OH244359   3.710   6.248   5.292
14801TIP3    H144360   3.669   6.330   5.266
14801TIP3    H244361   3.732   6.259   5.384
14802TIP3   OH244362   7.088   0.645   0.964
14802TIP3    H144363   7.072   0.615   0.874
14802TIP3    H244364   7.177   0.616   0.983
14803TIP3   OH244365   2.233   6.661   5.690
14803TIP3    H144366   2.314   6.649   5.739
14803TIP3    H244367   2.181   6.584   5.711
14804TIP3   OH244368   6.953   3.068   1.374
14804TIP3    H144369   6.938   3.162   1.386
14804TIP3    H244370   6.954   3.056   1.279
14805TIP3   OH244371   8.152   5.312   0.889
14805TIP3    H144372   8.108   5.302   0.973
14805TIP3    H244373   8.155   5.407   0.875
14806TIP3   OH244374   1.524   6.331   4.804
14806TIP3    H144375   1.543   6.258   4.745
14806TIP3    H244376   1.452   6.377   4.762
14807TIP3   OH244377   4.331   2.891   0.238
14807TIP3    H144378   4.382   2.854   0.309
14807TIP3    H244379   4.249   2.841   0.238
14808TIP3   OH244380   7.333   3.562   0.574
14808TIP3    H144381   7.372   3.485   0.533
14808TIP3    H244382   7.387   3.635   0.546
14809TIP3   OH244383   0.126   6.089   0.066
14809TIP3    H144384   0.118   6.140   0.147
14809TIP3    H244385   0.189   6.137   0.013
14810TIP3   OH244386   6.013   1.087   3.637
14810TIP3    H144387   5.972   1.167   3.604
14810TIP3    H244388   6.089   1.074   3.581
14811TIP3   OH244389   0.982   7.490   3.825
14811TIP3    H144390   0.945   7.410   3.861
14811TIP3    H244391   0.933   7.506   3.744
14812TIP3   OH244392   6.300   3.371   5.102
14812TIP3    H144393   6.285   3.411   5.017
14812TIP3    H244394   6.219   3.324   5.121
14813TIP3   OH244395   1.039   5.594   6.196
14813TIP3    H144396   0.955   5.549   6.191
14813TIP3    H244397   1.102   5.530   6.163
14814TIP3   OH244398   1.887   4.450   0.986
14814TIP3    H144399   1.915   4.359   0.994
14814TIP3    H244400   1.902   4.471   0.894
14815TIP3   OH244401   3.188   0.476   4.631
14815TIP3    H144402   3.126   0.403   4.627
14815TIP3    H244403   3.227   0.479   4.543
14816TIP3   OH244404   4.330   1.002   1.700
14816TIP3    H144405   4.322   0.916   1.659
14816TIP3    H244406   4.423   1.022   1.696
14817TIP3   OH244407   7.236   6.801   2.792
14817TIP3    H144408   7.251   6.711   2.763
14817TIP3    H244409   7.225   6.851   2.711
14818TIP3   OH244410   3.237   7.018   5.800
14818TIP3    H144411   3.209   6.927   5.790
14818TIP3    H244412   3.263   7.025   5.891
14819TIP3   OH244413   4.191   0.976   6.389
14819TIP3    H144414   4.120   1.009   6.334
14819TIP3    H244415   4.213   1.050   6.446
14820TIP3   OH244416   8.160   2.591   5.063
14820TIP3    H144417   8.255   2.605   5.064
14820TIP3    H244418   8.130   2.626   5.146
14821TIP3   OH244419   5.254   3.966   3.624
14821TIP3    H144420   5.161   3.977   3.607
14821TIP3    H244421   5.293   3.950   3.537
14822TIP3   OH244422   6.446   0.412   1.794
14822TIP3    H144423   6.487   0.381   1.875
14822TIP3    H244424   6.372   0.466   1.824
14823TIP3   OH244425   1.267   6.305   1.171
14823TIP3    H144426   1.241   6.329   1.083
14823TIP3    H244427   1.268   6.209   1.171
14824TIP3   OH244428   7.874   1.729   4.626
14824TIP3    H144429   7.884   1.801   4.688
14824TIP3    H244430   7.828   1.767   4.552
14825TIP3   OH244431   7.822   2.332   0.923
14825TIP3    H144432   7.756   2.274   0.884
14825TIP3    H244433   7.905   2.303   0.886
14826TIP3   OH244434   4.075   2.507   5.846
14826TIP3    H144435   4.137   2.512   5.919
14826TIP3    H244436   4.010   2.574   5.865
14827TIP3   OH244437   6.441   2.972   0.434
14827TIP3    H144438   6.396   2.987   0.518
14827TIP3    H244439   6.521   3.024   0.440
14828TIP3   OH244440   0.429   0.131   3.180
14828TIP3    H144441   0.461   0.124   3.090
14828TIP3    H244442   0.336   0.151   3.171
14829TIP3   OH244443   8.290   1.733   4.703
14829TIP3    H144444   8.240   1.795   4.650
14829TIP3    H244445   8.265   1.647   4.668
14830TIP3   OH244446   6.556   0.925   1.561
14830TIP3    H144447   6.608   0.947   1.484
14830TIP3    H244448   6.620   0.918   1.632
14831TIP3   OH244449   0.368   7.375   3.831
14831TIP3    H144450   0.460   7.391   3.808
14831TIP3    H244451   0.370   7.292   3.878
14832TIP3   OH244452   0.631   2.517   0.077
14832TIP3    H144453   0.657   2.431   0.043
14832TIP3    H244454   0.558   2.543   0.021
14833TIP3   OH244455   3.255   4.908   2.299
14833TIP3    H144456   3.199   4.851   2.352
14833TIP3    H244457   3.319   4.848   2.260
14834TIP3   OH244458   1.551   4.906   4.856
14834TIP3    H144459   1.543   4.887   4.763
14834TIP3    H244460   1.646   4.908   4.872
14835TIP3   OH244461   4.682   5.886   2.766
14835TIP3    H144462   4.629   5.907   2.689
14835TIP3    H244463   4.721   5.970   2.791
14836TIP3   OH244464   0.134   3.769   5.288
14836TIP3    H144465   0.174   3.757   5.202
14836TIP3    H244466   0.060   3.826   5.272
14837TIP3   OH244467   5.556   6.979   3.069
14837TIP3    H144468   5.481   6.961   3.126
14837TIP3    H244469   5.569   7.074   3.076
   8.29256   7.81830   6.77085   0.00000   0.00000  -2.76418   0.00000  -2.76418  -3.90915
