Title t= 228.00000 step= 114000
46055
    1GLY      N    1   2.881   2.856   1.069
    1GLY    HT1    2   2.942   2.902   0.998
    1GLY    HT2    3   2.807   2.813   1.011
    1GLY    HT3    4   2.928   2.784   1.128
    1GLY     CA    5   2.819   2.964   1.156
    1GLY    HA1    6   2.745   2.916   1.219
    1GLY    HA2    7   2.782   3.042   1.092
    1GLY      C    8   2.927   3.027   1.245
    1GLY      O    9   3.043   2.998   1.220
    2PRO      N   10   2.894   3.106   1.347
    2PRO     CD   11   2.756   3.157   1.365
    2PRO    HD1   12   2.682   3.074   1.364
    2PRO    HD2   13   2.735   3.227   1.281
    2PRO     CA   14   2.976   3.125   1.465
    2PRO     HA   15   3.036   3.214   1.450
    2PRO     CB   16   2.876   3.164   1.577
    2PRO    HB1   17   2.924   3.226   1.656
    2PRO    HB2   18   2.826   3.079   1.629
    2PRO     CG   19   2.761   3.229   1.503
    2PRO    HG1   20   2.667   3.221   1.561
    2PRO    HG2   21   2.788   3.335   1.485
    2PRO      C   22   3.067   3.015   1.516
    2PRO      O   23   3.027   2.901   1.530
    3GLY      N   24   3.196   3.052   1.549
    3GLY     HN   25   3.229   3.145   1.543
    3GLY     CA   26   3.289   2.967   1.621
    3GLY    HA1   27   3.381   3.022   1.635
    3GLY    HA2   28   3.304   2.879   1.560
    3GLY      C   29   3.252   2.931   1.764
    3GLY      O   30   3.143   2.962   1.817
    4ALA      N   31   3.337   2.853   1.829
    4ALA     HN   32   3.421   2.824   1.784
    4ALA     CA   33   3.303   2.809   1.965
    4ALA     HA   34   3.215   2.747   1.953
    4ALA     CB   35   3.418   2.718   2.012
    4ALA    HB1   36   3.425   2.686   2.118
    4ALA    HB2   37   3.518   2.763   1.996
    4ALA    HB3   38   3.415   2.624   1.953
    4ALA      C   39   3.285   2.913   2.071
    4ALA      O   40   3.361   3.008   2.067
    5PRO      N   41   3.192   2.902   2.162
    5PRO     CD   42   3.107   2.794   2.178
    5PRO    HD1   43   3.161   2.700   2.202
    5PRO    HD2   44   3.045   2.780   2.087
    5PRO     CA   45   3.167   3.009   2.259
    5PRO     HA   46   3.163   3.105   2.210
    5PRO     CB   47   3.026   2.975   2.314
    5PRO    HB1   48   2.952   3.021   2.245
    5PRO    HB2   49   3.019   2.999   2.422
    5PRO     CG   50   3.016   2.824   2.299
    5PRO    HG1   51   3.068   2.774   2.383
    5PRO    HG2   52   2.913   2.784   2.296
    5PRO      C   53   3.279   3.002   2.368
    5PRO      O   54   3.333   2.893   2.401
    6GLY      N   55   3.307   3.124   2.427
    6GLY     HN   56   3.243   3.197   2.406
    6GLY     CA   57   3.395   3.150   2.545
    6GLY    HA1   58   3.408   3.257   2.539
    6GLY    HA2   59   3.488   3.097   2.530
    6GLY      C   60   3.338   3.112   2.684
    6GLY      O   61   3.228   3.058   2.700
    7PRO      N   62   3.413   3.135   2.790
    7PRO     CD   63   3.553   3.172   2.786
    7PRO    HD1   64   3.551   3.272   2.738
    7PRO    HD2   65   3.617   3.098   2.732
    7PRO     CA   66   3.357   3.139   2.930
    7PRO     HA   67   3.341   3.039   2.969
    7PRO     CB   68   3.460   3.225   3.002
    7PRO    HB1   69   3.453   3.234   3.113
    7PRO    HB2   70   3.431   3.330   2.978
    7PRO     CG   71   3.593   3.195   2.934
    7PRO    HG1   72   3.677   3.268   2.931
    7PRO    HG2   73   3.634   3.096   2.960
    7PRO      C   74   3.223   3.214   2.940
    7PRO      O   75   3.193   3.308   2.863
    8GLY      N   76   3.136   3.158   3.026
    8GLY     HN   77   3.168   3.087   3.088
    8GLY     CA   78   2.995   3.206   3.048
    8GLY    HA1   79   2.952   3.129   3.109
    8GLY    HA2   80   2.956   3.218   2.948
    8GLY      C   81   2.990   3.342   3.116
    8GLY      O   82   3.082   3.377   3.191
    9ALA      N   83   2.890   3.425   3.088
    9ALA     HN   84   2.813   3.399   3.031
    9ALA     CA   85   2.874   3.556   3.150
    9ALA     HA   86   2.969   3.599   3.124
    9ALA     CB   87   2.753   3.636   3.097
    9ALA    HB1   88   2.753   3.645   2.987
    9ALA    HB2   89   2.750   3.744   3.125
    9ALA    HB3   90   2.663   3.577   3.126
    9ALA      C   91   2.873   3.560   3.310
    9ALA      O   92   2.833   3.456   3.367
   10PRO      N   93   2.921   3.662   3.390
   10PRO     CD   94   2.998   3.778   3.340
   10PRO    HD1   95   2.934   3.844   3.277
   10PRO    HD2   96   3.081   3.742   3.275
   10PRO     CA   97   2.900   3.673   3.535
   10PRO     HA   98   2.966   3.599   3.579
   10PRO     CB   99   2.951   3.822   3.569
   10PRO    HB1  100   2.976   3.835   3.677
   10PRO    HB2  101   2.872   3.897   3.549
   10PRO     CG  102   3.058   3.845   3.462
   10PRO    HG1  103   3.101   3.945   3.442
   10PRO    HG2  104   3.143   3.788   3.506
   10PRO      C  105   2.761   3.647   3.593
   10PRO      O  106   2.662   3.668   3.530
   11GLY      N  107   2.745   3.588   3.708
   11GLY     HN  108   2.831   3.565   3.755
   11GLY     CA  109   2.609   3.581   3.774
   11GLY    HA1  110   2.627   3.513   3.856
   11GLY    HA2  111   2.538   3.544   3.703
   11GLY      C  112   2.577   3.716   3.838
   11GLY      O  113   2.664   3.800   3.846
   12PRO      N  114   2.452   3.743   3.878
   12PRO     CD  115   2.341   3.649   3.870
   12PRO    HD1  116   2.368   3.565   3.938
   12PRO    HD2  117   2.327   3.606   3.769
   12PRO     CA  118   2.419   3.869   3.948
   12PRO     HA  119   2.399   3.942   3.871
   12PRO     CB  120   2.299   3.826   4.028
   12PRO    HB1  121   2.225   3.907   4.045
   12PRO    HB2  122   2.323   3.803   4.134
   12PRO     CG  123   2.231   3.720   3.938
   12PRO    HG1  124   2.164   3.649   3.992
   12PRO    HG2  125   2.173   3.773   3.860
   12PRO      C  126   2.516   3.943   4.038
   12PRO      O  127   2.561   3.886   4.134
   13GLY      N  128   2.527   4.076   4.019
   13GLY     HN  129   2.479   4.113   3.939
   13GLY     CA  130   2.588   4.170   4.110
   13GLY    HA1  131   2.643   4.237   4.046
   13GLY    HA2  132   2.644   4.112   4.183
   13GLY      C  133   2.478   4.246   4.168
   13GLY      O  134   2.357   4.228   4.133
   14ALA      N  135   2.512   4.340   4.252
   14ALA     HN  136   2.606   4.346   4.284
   14ALA     CA  137   2.420   4.442   4.303
   14ALA     HA  138   2.349   4.455   4.224
   14ALA     CB  139   2.361   4.380   4.434
   14ALA    HB1  140   2.446   4.342   4.495
   14ALA    HB2  141   2.285   4.301   4.422
   14ALA    HB3  142   2.312   4.457   4.497
   14ALA      C  143   2.508   4.565   4.331
   14ALA      O  144   2.623   4.534   4.344
   15PRO      N  145   2.463   4.689   4.343
   15PRO     CD  146   2.327   4.728   4.310
   15PRO    HD1  147   2.255   4.658   4.357
   15PRO    HD2  148   2.323   4.730   4.199
   15PRO     CA  149   2.550   4.806   4.358
   15PRO     HA  150   2.634   4.808   4.291
   15PRO     CB  151   2.453   4.921   4.345
   15PRO    HB1  152   2.456   4.958   4.241
   15PRO    HB2  153   2.489   5.009   4.403
   15PRO     CG  154   2.313   4.858   4.375
   15PRO    HG1  155   2.287   4.856   4.484
   15PRO    HG2  156   2.235   4.928   4.338
   15PRO      C  157   2.609   4.806   4.499
   15PRO    OT1  158   2.543   4.764   4.598
   15PRO    OT2  159   2.723   4.853   4.518
   16LIT    LIT  160   5.633   4.559   2.413
   17LIT    LIT  161   3.028   6.231   3.558
   18LIT    LIT  162   2.655   2.032   1.560
   19LIT    LIT  163   4.679   5.553   1.303
   20LIT    LIT  164   2.496   5.789   2.148
   21LIT    LIT  165   2.089   5.024   1.618
   22LIT    LIT  166   2.911   1.077   4.357
   23LIT    LIT  167   6.937   4.847   3.573
   24LIT    LIT  168   4.242   5.106   3.755
   25LIT    LIT  169   4.786   0.842   5.798
   26LIT    LIT  170   5.976   2.916   5.049
   27LIT    LIT  171   0.712   4.074   3.372
   28LIT    LIT  172   0.488   6.770   5.117
   29LIT    LIT  173   5.637   0.744   2.568
   30LIT    LIT  174   3.766   5.588   3.209
   31LIT    LIT  175   7.253   2.863   5.242
   32LIT    LIT  176   0.082   3.323   6.164
   33LIT    LIT  177   5.435   6.946   2.365
   34LIT    LIT  178   7.749   5.842   0.822
   35LIT    LIT  179   4.867   7.172   3.807
   36LIT    LIT  180   7.395   6.744   3.483
   37LIT    LIT  181   2.364   6.502   2.298
   38LIT    LIT  182   0.500   4.553   0.909
   39LIT    LIT  183   2.493   1.557   5.424
   40LIT    LIT  184   7.525   6.572   6.754
   41LIT    LIT  185   1.616   2.563   5.850
   42LIT    LIT  186   7.155   3.991   1.246
   43LIT    LIT  187   2.010   7.272   0.611
   44LIT    LIT  188   7.755   0.054   1.675
   45LIT    LIT  189   0.227   7.418   1.454
   46LIT    LIT  190   2.104   4.019   4.355
   47LIT    LIT  191   1.180   0.424   1.681
   48LIT    LIT  192   1.104   6.997   2.011
   49LIT    LIT  193   5.313   7.653   4.843
   50LIT    LIT  194   4.267   5.439   2.966
   51LIT    LIT  195   3.952   7.242   0.919
   52LIT    LIT  196   4.762   7.826   5.122
   53LIT    LIT  197   4.277   7.365   4.947
   54LIT    LIT  198   6.342   1.737   6.557
   55LIT    LIT  199   3.134   0.373   3.434
   56LIT    LIT  200   6.641   5.662   3.513
   57LIT    LIT  201   3.875   4.659   1.511
   58LIT    LIT  202   2.695   4.802   4.710
   59CLA    CLA  203   4.086   5.652   2.591
   60CLA    CLA  204   3.621   5.757   3.117
   61CLA    CLA  205   5.472   6.958   1.522
   62CLA    CLA  206   1.803   7.557   4.210
   63CLA    CLA  207   8.332   6.592   2.581
   64CLA    CLA  208   2.497   6.990   5.033
   65CLA    CLA  209   1.456   3.365   6.515
   66CLA    CLA  210   0.551   6.220   0.156
   67CLA    CLA  211   7.787   4.251   3.859
   68CLA    CLA  212   7.655   5.802   3.061
   69CLA    CLA  213   6.481   6.755   4.643
   70CLA    CLA  214   8.241   2.979   6.427
   71CLA    CLA  215   1.100   2.625   1.946
   72CLA    CLA  216   6.541   5.853   3.420
   73CLA    CLA  217   0.451   6.755   4.896
   74CLA    CLA  218   5.107   7.374   1.968
   75CLA    CLA  219   2.445   3.242   0.371
   76CLA    CLA  220   4.212   6.941   6.566
   77CLA    CLA  221   2.601   1.835   5.768
   78CLA    CLA  222   7.785   0.879   5.750
   79CLA    CLA  223   7.202   5.294   1.206
   80CLA    CLA  224   6.931   6.113   0.633
   81CLA    CLA  225   2.843   1.224   1.214
   82CLA    CLA  226   4.728   4.799   2.543
   83CLA    CLA  227   8.146   5.894   5.854
   84CLA    CLA  228   8.366   6.556   1.487
   85CLA    CLA  229   0.670   6.173   2.122
   86CLA    CLA  230   7.971   2.629   6.527
   87CLA    CLA  231   8.393   1.024   6.690
   88CLA    CLA  232   5.622   4.187   2.189
   89CLA    CLA  233   1.990   2.302   1.436
   90CLA    CLA  234   4.354   6.047   0.521
   91CLA    CLA  235   5.068   7.317   0.223
   92CLA    CLA  236   5.121   4.768   1.036
   93CLA    CLA  237   3.304   1.485   4.851
   94CLA    CLA  238   5.417   6.372   3.527
   95CLA    CLA  239   3.643   0.859   1.222
   96CLA    CLA  240   6.236   1.904   4.184
   97CLA    CLA  241   1.962   1.422   5.040
   98CLA    CLA  242   7.239   2.566   5.983
   99CLA    CLA  243   2.014   5.636   2.531
  100CLA    CLA  244   5.346   0.707   5.433
  101CLA    CLA  245   2.149   0.068   2.665
  102TIP3   OH2  246   5.182   7.002   6.507
  102TIP3    H1  247   5.096   7.043   6.492
  102TIP3    H2  248   5.161   6.914   6.538
  103TIP3   OH2  249   0.276   4.835   6.065
  103TIP3    H1  250   0.343   4.870   6.123
  103TIP3    H2  251   0.199   4.890   6.080
  104TIP3   OH2  252   3.184   0.912   4.112
  104TIP3    H1  253   3.235   0.885   4.035
  104TIP3    H2  254   3.156   0.830   4.152
  105TIP3   OH2  255   2.588   4.483   5.612
  105TIP3    H1  256   2.511   4.505   5.559
  105TIP3    H2  257   2.553   4.473   5.701
  106TIP3   OH2  258   2.720   7.459   1.117
  106TIP3    H1  259   2.742   7.485   1.027
  106TIP3    H2  260   2.657   7.525   1.145
  107TIP3   OH2  261   5.692   6.187   6.814
  107TIP3    H1  262   5.784   6.212   6.813
  107TIP3    H2  263   5.654   6.239   6.885
  108TIP3   OH2  264   1.532   2.203   5.785
  108TIP3    H1  265   1.598   2.203   5.715
  108TIP3    H2  266   1.581   2.185   5.865
  109TIP3   OH2  267   6.081   5.739   3.926
  109TIP3    H1  268   6.102   5.690   3.847
  109TIP3    H2  269   6.062   5.828   3.894
  110TIP3   OH2  270   4.518   3.148   2.611
  110TIP3    H1  271   4.495   3.080   2.549
  110TIP3    H2  272   4.541   3.101   2.691
  111TIP3   OH2  273   3.459   0.834   6.397
  111TIP3    H1  274   3.398   0.869   6.332
  111TIP3    H2  275   3.438   0.881   6.478
  112TIP3   OH2  276   3.153   7.140   1.352
  112TIP3    H1  277   3.223   7.078   1.331
  112TIP3    H2  278   3.096   7.091   1.412
  113TIP3   OH2  279   6.957   3.949   6.314
  113TIP3    H1  280   7.044   3.936   6.275
  113TIP3    H2  281   6.902   3.975   6.240
  114TIP3   OH2  282   2.919   2.500   2.056
  114TIP3    H1  283   2.854   2.532   1.994
  114TIP3    H2  284   2.909   2.556   2.133
  115TIP3   OH2  285   2.620   5.043   0.090
  115TIP3    H1  286   2.590   4.952   0.091
  115TIP3    H2  287   2.687   5.045   0.021
  116TIP3   OH2  288   1.103   0.604   6.280
  116TIP3    H1  289   1.047   0.588   6.356
  116TIP3    H2  290   1.190   0.619   6.316
  117TIP3   OH2  291   7.204   7.652   0.817
  117TIP3    H1  292   7.114   7.684   0.829
  117TIP3    H2  293   7.197   7.587   0.748
  118TIP3   OH2  294   3.139   5.811   0.815
  118TIP3    H1  295   3.098   5.879   0.868
  118TIP3    H2  296   3.078   5.798   0.743
  119TIP3   OH2  297   5.581   5.275   6.789
  119TIP3    H1  298   5.671   5.298   6.767
  119TIP3    H2  299   5.587   5.232   6.874
  120TIP3   OH2  300   7.447   1.866   2.184
  120TIP3    H1  301   7.484   1.884   2.270
  120TIP3    H2  302   7.355   1.895   2.191
  121TIP3   OH2  303   0.999   7.673   5.504
  121TIP3    H1  304   1.065   7.734   5.469
  121TIP3    H2  305   1.028   7.656   5.594
  122TIP3   OH2  306   2.159   2.326   4.480
  122TIP3    H1  307   2.097   2.258   4.508
  122TIP3    H2  308   2.245   2.289   4.499
  123TIP3   OH2  309   6.237   5.967   3.098
  123TIP3    H1  310   6.280   5.896   3.051
  123TIP3    H2  311   6.263   6.046   3.052
  124TIP3   OH2  312   6.304   5.365   3.188
  124TIP3    H1  313   6.257   5.448   3.201
  124TIP3    H2  314   6.375   5.387   3.127
  125TIP3   OH2  315   2.586   5.529   6.382
  125TIP3    H1  316   2.558   5.520   6.291
  125TIP3    H2  317   2.584   5.624   6.399
  126TIP3   OH2  318   2.243   3.831   0.659
  126TIP3    H1  319   2.240   3.824   0.754
  126TIP3    H2  320   2.226   3.742   0.628
  127TIP3   OH2  321   6.248   7.349   4.997
  127TIP3    H1  322   6.249   7.286   4.924
  127TIP3    H2  323   6.280   7.299   5.072
  128TIP3   OH2  324   8.053   3.006   3.129
  128TIP3    H1  325   8.049   2.914   3.103
  128TIP3    H2  326   8.126   3.042   3.078
  129TIP3   OH2  327   5.379   7.454   0.854
  129TIP3    H1  328   5.327   7.415   0.783
  129TIP3    H2  329   5.362   7.548   0.847
  130TIP3   OH2  330   4.160   1.997   6.709
  130TIP3    H1  331   4.249   1.984   6.676
  130TIP3    H2  332   4.173   2.026   6.799
  131TIP3   OH2  333   5.442   3.072   5.125
  131TIP3    H1  334   5.459   2.980   5.148
  131TIP3    H2  335   5.504   3.121   5.179
  132TIP3   OH2  336   0.854   0.739   6.204
  132TIP3    H1  337   0.933   0.687   6.221
  132TIP3    H2  338   0.887   0.826   6.180
  133TIP3   OH2  339   3.376   7.892   3.780
  133TIP3    H1  340   3.465   7.860   3.772
  133TIP3    H2  341   3.363   7.905   3.874
  134TIP3   OH2  342   0.146   5.710   1.357
  134TIP3    H1  343   0.163   5.782   1.297
  134TIP3    H2  344   0.232   5.671   1.373
  135TIP3   OH2  345   7.004   7.036   5.518
  135TIP3    H1  346   7.024   7.008   5.607
  135TIP3    H2  347   7.079   7.007   5.466
  136TIP3   OH2  348   6.810   2.173   1.545
  136TIP3    H1  349   6.777   2.248   1.595
  136TIP3    H2  350   6.783   2.096   1.596
  137TIP3   OH2  351   7.330   4.320   3.815
  137TIP3    H1  352   7.288   4.385   3.872
  137TIP3    H2  353   7.296   4.340   3.727
  138TIP3   OH2  354   8.259   5.224   0.636
  138TIP3    H1  355   8.266   5.304   0.689
  138TIP3    H2  356   8.329   5.231   0.571
  139TIP3   OH2  357   3.495   4.463   1.956
  139TIP3    H1  358   3.548   4.518   2.014
  139TIP3    H2  359   3.548   4.451   1.878
  140TIP3   OH2  360   6.401   0.997   3.596
  140TIP3    H1  361   6.332   0.974   3.658
  140TIP3    H2  362   6.399   1.092   3.591
  141TIP3   OH2  363   7.053   7.783   0.501
  141TIP3    H1  364   7.074   7.721   0.431
  141TIP3    H2  365   7.017   7.729   0.571
  142TIP3   OH2  366   1.297   7.188   2.723
  142TIP3    H1  367   1.338   7.269   2.753
  142TIP3    H2  368   1.325   7.178   2.632
  143TIP3   OH2  369   5.203   1.044   5.489
  143TIP3    H1  370   5.247   1.017   5.409
  143TIP3    H2  371   5.156   0.967   5.519
  144TIP3   OH2  372   4.107   4.650   0.355
  144TIP3    H1  373   4.183   4.626   0.302
  144TIP3    H2  374   4.051   4.573   0.353
  145TIP3   OH2  375   2.836   6.370   4.447
  145TIP3    H1  376   2.835   6.325   4.531
  145TIP3    H2  377   2.788   6.312   4.388
  146TIP3   OH2  378   0.625   5.431   2.652
  146TIP3    H1  379   0.583   5.448   2.568
  146TIP3    H2  380   0.578   5.356   2.688
  147TIP3   OH2  381   5.060   2.939   1.173
  147TIP3    H1  382   5.129   2.901   1.228
  147TIP3    H2  383   5.072   3.034   1.182
  148TIP3   OH2  384   6.986   5.606   5.037
  148TIP3    H1  385   6.988   5.518   5.001
  148TIP3    H2  386   6.906   5.609   5.090
  149TIP3   OH2  387   4.257   4.306   3.605
  149TIP3    H1  388   4.224   4.257   3.680
  149TIP3    H2  389   4.183   4.359   3.576
  150TIP3   OH2  390   6.545   4.940   3.850
  150TIP3    H1  391   6.453   4.937   3.826
  150TIP3    H2  392   6.562   4.855   3.890
  151TIP3   OH2  393   3.654   4.331   1.515
  151TIP3    H1  394   3.651   4.236   1.502
  151TIP3    H2  395   3.599   4.366   1.445
  152TIP3   OH2  396   7.654   4.860   2.531
  152TIP3    H1  397   7.642   4.854   2.436
  152TIP3    H2  398   7.621   4.947   2.553
  153TIP3   OH2  399   5.519   3.387   0.923
  153TIP3    H1  400   5.521   3.323   0.852
  153TIP3    H2  401   5.426   3.397   0.943
  154TIP3   OH2  402   5.896   2.239   5.153
  154TIP3    H1  403   5.932   2.160   5.113
  154TIP3    H2  404   5.917   2.230   5.246
  155TIP3   OH2  405   1.350   2.456   4.301
  155TIP3    H1  406   1.295   2.489   4.230
  155TIP3    H2  407   1.337   2.361   4.301
  156TIP3   OH2  408   6.986   5.963   3.494
  156TIP3    H1  409   6.965   5.897   3.560
  156TIP3    H2  410   6.905   5.977   3.446
  157TIP3   OH2  411   0.067   0.120   2.131
  157TIP3    H1  412   0.000   0.085   2.071
  157TIP3    H2  413   0.106   0.193   2.083
  158TIP3   OH2  414   0.868   3.362   2.819
  158TIP3    H1  415   0.954   3.402   2.802
  158TIP3    H2  416   0.851   3.383   2.911
  159TIP3   OH2  417   5.481   7.358   3.513
  159TIP3    H1  418   5.536   7.399   3.446
  159TIP3    H2  419   5.518   7.271   3.525
  160TIP3   OH2  420   1.554   2.278   4.786
  160TIP3    H1  421   1.475   2.247   4.741
  160TIP3    H2  422   1.591   2.343   4.725
  161TIP3   OH2  423   2.877   4.840   2.447
  161TIP3    H1  424   2.893   4.933   2.465
  161TIP3    H2  425   2.783   4.828   2.463
  162TIP3   OH2  426   2.696   1.816   3.690
  162TIP3    H1  427   2.704   1.890   3.750
  162TIP3    H2  428   2.770   1.759   3.712
  163TIP3   OH2  429   1.762   1.130   6.871
  163TIP3    H1  430   1.808   1.125   6.787
  163TIP3    H2  431   1.766   1.041   6.905
  164TIP3   OH2  432   6.220   1.613   6.656
  164TIP3    H1  433   6.179   1.601   6.742
  164TIP3    H2  434   6.177   1.548   6.600
  165TIP3   OH2  435   1.138   2.307   3.220
  165TIP3    H1  436   1.204   2.377   3.225
  165TIP3    H2  437   1.058   2.351   3.190
  166TIP3   OH2  438   5.213   5.016   6.617
  166TIP3    H1  439   5.153   4.986   6.549
  166TIP3    H2  440   5.259   5.091   6.577
  167TIP3   OH2  441   6.193   3.778   3.389
  167TIP3    H1  442   6.192   3.831   3.309
  167TIP3    H2  443   6.286   3.758   3.402
  168TIP3   OH2  444   4.739   3.089   1.757
  168TIP3    H1  445   4.672   3.103   1.823
  168TIP3    H2  446   4.812   3.144   1.785
  169TIP3   OH2  447   1.437   4.823   3.527
  169TIP3    H1  448   1.377   4.776   3.470
  169TIP3    H2  449   1.438   4.912   3.492
  170TIP3   OH2  450   4.446   1.609   3.698
  170TIP3    H1  451   4.505   1.583   3.769
  170TIP3    H2  452   4.446   1.705   3.701
  171TIP3   OH2  453   7.031   5.685   4.611
  171TIP3    H1  454   7.086   5.672   4.534
  171TIP3    H2  455   7.081   5.744   4.667
  172TIP3   OH2  456   7.619   2.976   2.201
  172TIP3    H1  457   7.556   2.949   2.134
  172TIP3    H2  458   7.700   2.929   2.179
  173TIP3   OH2  459   3.814   1.214   4.291
  173TIP3    H1  460   3.756   1.220   4.215
  173TIP3    H2  461   3.775   1.145   4.345
  174TIP3   OH2  462   5.482   7.104   0.305
  174TIP3    H1  463   5.453   7.161   0.233
  174TIP3    H2  464   5.477   7.016   0.268
  175TIP3   OH2  465   7.457   1.080   0.487
  175TIP3    H1  466   7.480   0.987   0.480
  175TIP3    H2  467   7.513   1.123   0.422
  176TIP3   OH2  468   0.647   1.951   0.442
  176TIP3    H1  469   0.697   2.019   0.398
  176TIP3    H2  470   0.619   1.893   0.371
  177TIP3   OH2  471   2.915   0.085   2.738
  177TIP3    H1  472   2.939   0.154   2.800
  177TIP3    H2  473   2.824   0.104   2.716
  178TIP3   OH2  474   3.722   7.896   4.536
  178TIP3    H1  475   3.698   7.989   4.548
  178TIP3    H2  476   3.655   7.848   4.585
  179TIP3   OH2  477   6.334   1.397   1.143
  179TIP3    H1  478   6.306   1.403   1.051
  179TIP3    H2  479   6.295   1.474   1.185
  180TIP3   OH2  480   4.961   5.497   0.097
  180TIP3    H1  481   4.885   5.499   0.155
  180TIP3    H2  482   5.018   5.431   0.136
  181TIP3   OH2  483   7.457   3.266   4.699
  181TIP3    H1  484   7.538   3.242   4.654
  181TIP3    H2  485   7.484   3.290   4.788
  182TIP3   OH2  486   7.568   4.923   5.293
  182TIP3    H1  487   7.546   5.008   5.254
  182TIP3    H2  488   7.543   4.859   5.227
  183TIP3   OH2  489   0.777   7.397   2.697
  183TIP3    H1  490   0.737   7.372   2.613
  183TIP3    H2  491   0.857   7.345   2.702
  184TIP3   OH2  492   7.834   2.013   0.675
  184TIP3    H1  493   7.897   2.074   0.713
  184TIP3    H2  494   7.886   1.937   0.651
  185TIP3   OH2  495   2.681   0.696   5.041
  185TIP3    H1  496   2.686   0.783   5.080
  185TIP3    H2  497   2.714   0.637   5.109
  186TIP3   OH2  498   2.416   2.873   1.999
  186TIP3    H1  499   2.400   2.909   1.912
  186TIP3    H2  500   2.494   2.918   2.030
  187TIP3   OH2  501   4.946   3.799   1.949
  187TIP3    H1  502   5.033   3.836   1.942
  187TIP3    H2  503   4.957   3.719   1.999
  188TIP3   OH2  504   1.062   7.527   1.066
  188TIP3    H1  505   1.008   7.597   1.103
  188TIP3    H2  506   1.134   7.518   1.127
  189TIP3   OH2  507   3.978   3.472   3.552
  189TIP3    H1  508   3.920   3.455   3.627
  189TIP3    H2  509   4.046   3.404   3.559
  190TIP3   OH2  510   2.398   1.736   4.685
  190TIP3    H1  511   2.394   1.790   4.607
  190TIP3    H2  512   2.479   1.685   4.676
  191TIP3   OH2  513   1.343   3.434   4.140
  191TIP3    H1  514   1.270   3.457   4.198
  191TIP3    H2  515   1.409   3.500   4.159
  192TIP3   OH2  516   2.516   2.790   4.200
  192TIP3    H1  517   2.435   2.795   4.149
  192TIP3    H2  518   2.551   2.879   4.197
  193TIP3   OH2  519   6.971   1.119   3.352
  193TIP3    H1  520   6.882   1.141   3.326
  193TIP3    H2  521   6.988   1.033   3.313
  194TIP3   OH2  522   0.728   2.867   2.069
  194TIP3    H1  523   0.743   2.903   1.982
  194TIP3    H2  524   0.815   2.846   2.102
  195TIP3   OH2  525   1.353   5.553   3.068
  195TIP3    H1  526   1.282   5.544   3.131
  195TIP3    H2  527   1.418   5.607   3.113
  196TIP3   OH2  528   5.449   6.116   1.002
  196TIP3    H1  529   5.406   6.125   0.917
  196TIP3    H2  530   5.418   6.192   1.052
  197TIP3   OH2  531   3.428   1.925   2.821
  197TIP3    H1  532   3.455   1.846   2.868
  197TIP3    H2  533   3.419   1.897   2.730
  198TIP3   OH2  534   7.818   7.494   6.857
  198TIP3    H1  535   7.798   7.485   6.764
  198TIP3    H2  536   7.758   7.562   6.888
  199TIP3   OH2  537   2.523   5.692   5.482
  199TIP3    H1  538   2.433   5.687   5.513
  199TIP3    H2  539   2.533   5.781   5.449
  200TIP3   OH2  540   0.313   6.821   3.050
  200TIP3    H1  541   0.364   6.781   3.121
  200TIP3    H2  542   0.275   6.747   3.003
  201TIP3   OH2  543   2.692   7.929   2.164
  201TIP3    H1  544   2.739   7.907   2.084
  201TIP3    H2  545   2.610   7.880   2.158
  202TIP3   OH2  546   0.511   0.113   5.150
  202TIP3    H1  547   0.524   0.198   5.108
  202TIP3    H2  548   0.580   0.109   5.217
  203TIP3   OH2  549   6.614   0.082   3.068
  203TIP3    H1  550   6.693   0.028   3.071
  203TIP3    H2  551   6.543   0.021   3.087
  204TIP3   OH2  552   3.422   1.715   4.421
  204TIP3    H1  553   3.358   1.725   4.491
  204TIP3    H2  554   3.454   1.625   4.429
  205TIP3   OH2  555   6.765   4.008   6.147
  205TIP3    H1  556   6.749   4.012   6.053
  205TIP3    H2  557   6.679   3.991   6.185
  206TIP3   OH2  558   0.185   2.144   4.127
  206TIP3    H1  559   0.142   2.139   4.042
  206TIP3    H2  560   0.176   2.236   4.152
  207TIP3   OH2  561   4.006   0.724   3.279
  207TIP3    H1  562   4.035   0.636   3.252
  207TIP3    H2  563   3.938   0.747   3.216
  208TIP3   OH2  564   8.199   0.987   0.794
  208TIP3    H1  565   8.134   0.929   0.755
  208TIP3    H2  566   8.149   1.039   0.858
  209TIP3   OH2  567   6.209   6.752   6.837
  209TIP3    H1  568   6.119   6.775   6.860
  209TIP3    H2  569   6.217   6.659   6.860
  210TIP3   OH2  570   1.808   5.720   6.183
  210TIP3    H1  571   1.893   5.751   6.215
  210TIP3    H2  572   1.824   5.629   6.157
  211TIP3   OH2  573   4.487   6.571   3.034
  211TIP3    H1  574   4.415   6.537   3.088
  211TIP3    H2  575   4.557   6.506   3.044
  212TIP3   OH2  576   0.183   2.605   6.667
  212TIP3    H1  577   0.098   2.601   6.712
  212TIP3    H2  578   0.186   2.694   6.631
  213TIP3   OH2  579   4.956   1.039   0.218
  213TIP3    H1  580   4.974   0.957   0.263
  213TIP3    H2  581   4.876   1.022   0.167
  214TIP3   OH2  582   2.847   5.595   4.787
  214TIP3    H1  583   2.941   5.609   4.791
  214TIP3    H2  584   2.823   5.566   4.876
  215TIP3   OH2  585   1.241   5.886   4.266
  215TIP3    H1  586   1.316   5.894   4.208
  215TIP3    H2  587   1.165   5.892   4.209
  216TIP3   OH2  588   4.879   6.921   4.320
  216TIP3    H1  589   4.792   6.949   4.350
  216TIP3    H2  590   4.939   6.954   4.386
  217TIP3   OH2  591   2.928   5.847   1.761
  217TIP3    H1  592   2.872   5.910   1.716
  217TIP3    H2  593   2.995   5.824   1.697
  218TIP3   OH2  594   6.538   1.276   0.066
  218TIP3    H1  595   6.550   1.291  -0.028
  218TIP3    H2  596   6.578   1.352   0.107
  219TIP3   OH2  597   4.879   2.617   4.353
  219TIP3    H1  598   4.858   2.537   4.403
  219TIP3    H2  599   4.867   2.688   4.416
  220TIP3   OH2  600   8.055   1.150   5.033
  220TIP3    H1  601   8.011   1.110   4.958
  220TIP3    H2  602   7.992   1.144   5.104
  221TIP3   OH2  603   0.240   1.903   0.757
  221TIP3    H1  604   0.249   1.905   0.852
  221TIP3    H2  605   0.310   1.846   0.726
  222TIP3   OH2  606   7.258   2.966   2.788
  222TIP3    H1  607   7.250   3.054   2.751
  222TIP3    H2  608   7.168   2.940   2.807
  223TIP3   OH2  609   7.182   7.102   1.327
  223TIP3    H1  610   7.239   7.060   1.390
  223TIP3    H2  611   7.135   7.029   1.286
  224TIP3   OH2  612   8.075   4.945   1.354
  224TIP3    H1  613   8.110   5.021   1.308
  224TIP3    H2  614   7.981   4.945   1.332
  225TIP3   OH2  615   3.252   1.249   5.072
  225TIP3    H1  616   3.307   1.281   5.000
  225TIP3    H2  617   3.211   1.327   5.108
  226TIP3   OH2  618   2.784   6.845   3.359
  226TIP3    H1  619   2.778   6.760   3.403
  226TIP3    H2  620   2.875   6.873   3.375
  227TIP3   OH2  621   6.219   6.010   1.688
  227TIP3    H1  622   6.127   5.990   1.676
  227TIP3    H2  623   6.240   6.071   1.616
  228TIP3   OH2  624   0.574   6.472   2.152
  228TIP3    H1  625   0.568   6.382   2.183
  228TIP3    H2  626   0.649   6.473   2.093
  229TIP3   OH2  627   2.751   5.926   0.407
  229TIP3    H1  628   2.752   5.962   0.318
  229TIP3    H2  629   2.684   5.858   0.405
  230TIP3   OH2  630   4.483   3.846   1.539
  230TIP3    H1  631   4.472   3.756   1.508
  230TIP3    H2  632   4.479   3.839   1.635
  231TIP3   OH2  633   6.823   2.547   5.062
  231TIP3    H1  634   6.851   2.457   5.047
  231TIP3    H2  635   6.785   2.575   4.979
  232TIP3   OH2  636   0.420   7.434   6.116
  232TIP3    H1  637   0.440   7.516   6.161
  232TIP3    H2  638   0.491   7.424   6.052
  233TIP3   OH2  639   6.520   6.310   1.525
  233TIP3    H1  640   6.504   6.331   1.617
  233TIP3    H2  641   6.604   6.352   1.505
  234TIP3   OH2  642   7.881   7.071   3.036
  234TIP3    H1  643   7.931   7.153   3.037
  234TIP3    H2  644   7.928   7.015   2.974
  235TIP3   OH2  645   6.956   0.175   2.857
  235TIP3    H1  646   7.032   0.123   2.880
  235TIP3    H2  647   6.893   0.112   2.822
  236TIP3   OH2  648   5.459   3.174   2.241
  236TIP3    H1  649   5.500   3.159   2.326
  236TIP3    H2  650   5.410   3.255   2.252
  237TIP3   OH2  651   3.765   0.281   4.257
  237TIP3    H1  652   3.756   0.369   4.220
  237TIP3    H2  653   3.821   0.234   4.195
  238TIP3   OH2  654   4.617   0.267   0.007
  238TIP3    H1  655   4.603   0.354  -0.031
  238TIP3    H2  656   4.661   0.283   0.090
  239TIP3   OH2  657   2.767   7.230   3.440
  239TIP3    H1  658   2.693   7.179   3.471
  239TIP3    H2  659   2.773   7.209   3.347
  240TIP3   OH2  660   6.772   5.421   0.376
  240TIP3    H1  661   6.699   5.457   0.326
  240TIP3    H2  662   6.833   5.495   0.385
  241TIP3   OH2  663   1.533   7.082   0.889
  241TIP3    H1  664   1.610   7.037   0.924
  241TIP3    H2  665   1.556   7.100   0.797
  242TIP3   OH2  666   6.253   5.177   1.337
  242TIP3    H1  667   6.222   5.189   1.247
  242TIP3    H2  668   6.332   5.232   1.342
  243TIP3   OH2  669   5.530   0.172   0.283
  243TIP3    H1  670   5.543   0.266   0.282
  243TIP3    H2  671   5.535   0.146   0.191
  244TIP3   OH2  672   1.949   1.596   6.745
  244TIP3    H1  673   1.874   1.536   6.748
  244TIP3    H2  674   2.003   1.570   6.820
  245TIP3   OH2  675   8.306   2.746   5.175
  245TIP3    H1  676   8.269   2.726   5.089
  245TIP3    H2  677   8.240   2.803   5.216
  246TIP3   OH2  678   3.507   0.506   6.820
  246TIP3    H1  679   3.473   0.557   6.893
  246TIP3    H2  680   3.584   0.555   6.791
  247TIP3   OH2  681   4.465   3.711   0.466
  247TIP3    H1  682   4.441   3.741   0.554
  247TIP3    H2  683   4.381   3.692   0.424
  248TIP3   OH2  684   2.473   6.028   1.437
  248TIP3    H1  685   2.435   6.075   1.511
  248TIP3    H2  686   2.507   6.096   1.380
  249TIP3   OH2  687   5.608   0.379   3.822
  249TIP3    H1  688   5.674   0.358   3.756
  249TIP3    H2  689   5.545   0.308   3.817
  250TIP3   OH2  690   7.227   6.018   5.288
  250TIP3    H1  691   7.151   5.966   5.260
  250TIP3    H2  692   7.233   6.088   5.225
  251TIP3   OH2  693   4.613   4.276   4.300
  251TIP3    H1  694   4.580   4.186   4.299
  251TIP3    H2  695   4.689   4.275   4.241
  252TIP3   OH2  696   5.005   5.418   5.698
  252TIP3    H1  697   5.063   5.470   5.642
  252TIP3    H2  698   5.064   5.363   5.749
  253TIP3   OH2  699   4.258   0.274   0.498
  253TIP3    H1  700   4.192   0.205   0.490
  253TIP3    H2  701   4.215   0.352   0.465
  254TIP3   OH2  702   7.112   5.371   5.235
  254TIP3    H1  703   7.126   5.320   5.156
  254TIP3    H2  704   7.136   5.461   5.210
  255TIP3   OH2  705   4.321   2.099   2.761
  255TIP3    H1  706   4.372   2.056   2.830
  255TIP3    H2  707   4.347   2.054   2.681
  256TIP3   OH2  708   2.107   6.326   5.732
  256TIP3    H1  709   2.052   6.252   5.755
  256TIP3    H2  710   2.081   6.396   5.792
  257TIP3   OH2  711   0.302   0.705   6.783
  257TIP3    H1  712   0.253   0.683   6.704
  257TIP3    H2  713   0.392   0.716   6.754
  258TIP3   OH2  714   7.123   4.079   4.232
  258TIP3    H1  715   7.098   4.129   4.154
  258TIP3    H2  716   7.073   4.120   4.303
  259TIP3   OH2  717   5.385   5.624   4.758
  259TIP3    H1  718   5.450   5.684   4.722
  259TIP3    H2  719   5.311   5.628   4.697
  260TIP3   OH2  720   4.719   7.627   2.520
  260TIP3    H1  721   4.634   7.592   2.548
  260TIP3    H2  722   4.699   7.679   2.443
  261TIP3   OH2  723   3.493   0.359   4.722
  261TIP3    H1  724   3.498   0.401   4.636
  261TIP3    H2  725   3.572   0.306   4.728
  262TIP3   OH2  726   6.579   1.301   4.308
  262TIP3    H1  727   6.507   1.344   4.262
  262TIP3    H2  728   6.561   1.317   4.401
  263TIP3   OH2  729   4.459   5.456   3.583
  263TIP3    H1  730   4.554   5.469   3.588
  263TIP3    H2  731   4.422   5.540   3.608
  264TIP3   OH2  732   2.461   3.278   0.912
  264TIP3    H1  733   2.422   3.205   0.960
  264TIP3    H2  734   2.520   3.236   0.849
  265TIP3   OH2  735   2.471   4.285   1.979
  265TIP3    H1  736   2.415   4.264   1.905
  265TIP3    H2  737   2.436   4.232   2.051
  266TIP3   OH2  738   0.041   1.628   0.796
  266TIP3    H1  739   0.123   1.590   0.826
  266TIP3    H2  740  -0.024   1.559   0.810
  267TIP3   OH2  741   2.691   2.016   2.420
  267TIP3    H1  742   2.725   1.962   2.492
  267TIP3    H2  743   2.598   1.993   2.414
  268TIP3   OH2  744   5.185   1.047   4.050
  268TIP3    H1  745   5.188   1.036   3.955
  268TIP3    H2  746   5.101   1.010   4.076
  269TIP3   OH2  747   7.679   0.235   0.170
  269TIP3    H1  748   7.590   0.243   0.134
  269TIP3    H2  749   7.722   0.171   0.114
  270TIP3   OH2  750   0.232   7.068   5.531
  270TIP3    H1  751   0.161   7.078   5.468
  270TIP3    H2  752   0.304   7.030   5.480
  271TIP3   OH2  753   1.086   7.858   3.918
  271TIP3    H1  754   1.009   7.806   3.943
  271TIP3    H2  755   1.089   7.850   3.822
  272TIP3   OH2  756   4.526   5.217   1.169
  272TIP3    H1  757   4.600   5.276   1.182
  272TIP3    H2  758   4.539   5.181   1.082
  273TIP3   OH2  759   3.960   6.666   1.903
  273TIP3    H1  760   3.899   6.671   1.830
  273TIP3    H2  761   3.905   6.674   1.981
  274TIP3   OH2  762   1.279   0.065   0.450
  274TIP3    H1  763   1.337  -0.004   0.420
  274TIP3    H2  764   1.331   0.145   0.440
  275TIP3   OH2  765   0.666   7.067   1.955
  275TIP3    H1  766   0.682   7.085   1.862
  275TIP3    H2  767   0.620   7.144   1.987
  276TIP3   OH2  768   5.873   0.845   2.884
  276TIP3    H1  769   5.875   0.938   2.907
  276TIP3    H2  770   5.959   0.827   2.846
  277TIP3   OH2  771   1.056   6.318   1.987
  277TIP3    H1  772   1.101   6.346   1.907
  277TIP3    H2  773   1.031   6.400   2.030
  278TIP3   OH2  774   7.205   5.037   4.856
  278TIP3    H1  775   7.156   5.013   4.777
  278TIP3    H2  776   7.297   5.026   4.831
  279TIP3   OH2  777   3.182   6.747   6.175
  279TIP3    H1  778   3.189   6.776   6.084
  279TIP3    H2  779   3.219   6.819   6.226
  280TIP3   OH2  780   7.019   3.871   3.245
  280TIP3    H1  781   7.083   3.801   3.230
  280TIP3    H2  782   7.050   3.944   3.192
  281TIP3   OH2  783   0.786   3.537   2.338
  281TIP3    H1  784   0.807   3.566   2.426
  281TIP3    H2  785   0.710   3.480   2.349
  282TIP3   OH2  786   5.433   2.529   6.358
  282TIP3    H1  787   5.460   2.468   6.289
  282TIP3    H2  788   5.515   2.563   6.394
  283TIP3   OH2  789   8.267   5.552   5.461
  283TIP3    H1  790   8.306   5.607   5.529
  283TIP3    H2  791   8.200   5.502   5.506
  284TIP3   OH2  792   5.907   7.461   4.063
  284TIP3    H1  793   5.941   7.464   4.153
  284TIP3    H2  794   5.862   7.376   4.058
  285TIP3   OH2  795   0.691   5.726   5.490
  285TIP3    H1  796   0.609   5.702   5.446
  285TIP3    H2  797   0.739   5.777   5.425
  286TIP3   OH2  798   1.861   4.558   6.229
  286TIP3    H1  799   1.955   4.570   6.216
  286TIP3    H2  800   1.843   4.469   6.198
  287TIP3   OH2  801   4.972   3.945   1.418
  287TIP3    H1  802   4.927   3.931   1.501
  287TIP3    H2  803   5.021   4.026   1.430
  288TIP3   OH2  804   7.396   4.779   4.712
  288TIP3    H1  805   7.358   4.765   4.799
  288TIP3    H2  806   7.422   4.871   4.712
  289TIP3   OH2  807   4.762   1.097   5.418
  289TIP3    H1  808   4.825   1.124   5.352
  289TIP3    H2  809   4.686   1.068   5.368
  290TIP3   OH2  810   5.627   4.661   1.620
  290TIP3    H1  811   5.553   4.710   1.657
  290TIP3    H2  812   5.601   4.643   1.530
  291TIP3   OH2  813   6.738   4.721   2.813
  291TIP3    H1  814   6.716   4.693   2.902
  291TIP3    H2  815   6.698   4.808   2.804
  292TIP3   OH2  816   6.111   3.597   1.045
  292TIP3    H1  817   6.190   3.587   1.099
  292TIP3    H2  818   6.042   3.621   1.107
  293TIP3   OH2  819   5.721   1.090   1.034
  293TIP3    H1  820   5.774   1.122   0.961
  293TIP3    H2  821   5.664   1.023   0.994
  294TIP3   OH2  822   3.873   6.970   4.918
  294TIP3    H1  823   3.889   6.909   4.991
  294TIP3    H2  824   3.783   7.000   4.931
  295TIP3   OH2  825   2.663   6.089   3.564
  295TIP3    H1  826   2.670   6.171   3.614
  295TIP3    H2  827   2.651   6.118   3.473
  296TIP3   OH2  828   4.882   7.794   6.466
  296TIP3    H1  829   4.976   7.809   6.482
  296TIP3    H2  830   4.848   7.880   6.439
  297TIP3   OH2  831   0.655   2.847   4.346
  297TIP3    H1  832   0.611   2.805   4.272
  297TIP3    H2  833   0.746   2.859   4.316
  298TIP3   OH2  834   3.486   0.389   0.490
  298TIP3    H1  835   3.522   0.328   0.426
  298TIP3    H2  836   3.486   0.474   0.445
  299TIP3   OH2  837   6.103   0.494   4.827
  299TIP3    H1  838   6.028   0.553   4.821
  299TIP3    H2  839   6.119   0.483   4.921
  300TIP3   OH2  840   2.683   5.384   1.040
  300TIP3    H1  841   2.694   5.322   1.111
  300TIP3    H2  842   2.590   5.379   1.017
  301TIP3   OH2  843   5.655   5.482   3.566
  301TIP3    H1  844   5.565   5.449   3.565
  301TIP3    H2  845   5.700   5.428   3.631
  302TIP3   OH2  846   3.037   7.160   6.655
  302TIP3    H1  847   3.055   7.252   6.635
  302TIP3    H2  848   3.076   7.146   6.741
  303TIP3   OH2  849   5.184   0.021   6.389
  303TIP3    H1  850   5.140  -0.004   6.470
  303TIP3    H2  851   5.146   0.105   6.366
  304TIP3   OH2  852   1.204   6.039   3.802
  304TIP3    H1  853   1.159   6.039   3.718
  304TIP3    H2  854   1.138   6.067   3.865
  305TIP3   OH2  855   4.347   7.874   4.966
  305TIP3    H1  856   4.292   7.877   4.888
  305TIP3    H2  857   4.298   7.819   5.028
  306TIP3   OH2  858   4.625   2.140   5.754
  306TIP3    H1  859   4.676   2.218   5.776
  306TIP3    H2  860   4.656   2.114   5.667
  307TIP3   OH2  861   2.720   5.250   2.406
  307TIP3    H1  862   2.700   5.279   2.317
  307TIP3    H2  863   2.637   5.217   2.439
  308TIP3   OH2  864   6.548   6.437   5.953
  308TIP3    H1  865   6.546   6.525   5.990
  308TIP3    H2  866   6.496   6.442   5.873
  309TIP3   OH2  867   4.275   2.436   2.091
  309TIP3    H1  868   4.222   2.373   2.043
  309TIP3    H2  869   4.360   2.435   2.045
  310TIP3   OH2  870   5.999   5.424   3.423
  310TIP3    H1  871   6.094   5.415   3.434
  310TIP3    H2  872   5.971   5.476   3.499
  311TIP3   OH2  873   1.308   4.939   6.047
  311TIP3    H1  874   1.309   4.967   6.138
  311TIP3    H2  875   1.371   4.997   6.004
  312TIP3   OH2  876   5.952   0.619   3.625
  312TIP3    H1  877   5.858   0.607   3.615
  312TIP3    H2  878   5.963   0.655   3.713
  313TIP3   OH2  879   5.510   2.999   3.565
  313TIP3    H1  880   5.578   3.064   3.545
  313TIP3    H2  881   5.428   3.045   3.549
  314TIP3   OH2  882   5.552   0.258   5.082
  314TIP3    H1  883   5.540   0.218   5.168
  314TIP3    H2  884   5.551   0.352   5.100
  315TIP3   OH2  885   4.845   6.507   5.255
  315TIP3    H1  886   4.905   6.445   5.213
  315TIP3    H2  887   4.796   6.455   5.318
  316TIP3   OH2  888   4.172   6.704   3.324
  316TIP3    H1  889   4.092   6.714   3.273
  316TIP3    H2  890   4.213   6.790   3.323
  317TIP3   OH2  891   2.834   2.942   0.337
  317TIP3    H1  892   2.831   2.853   0.304
  317TIP3    H2  893   2.919   2.977   0.308
  318TIP3   OH2  894   8.093   1.828   5.267
  318TIP3    H1  895   8.150   1.753   5.247
  318TIP3    H2  896   8.073   1.818   5.360
  319TIP3   OH2  897   2.195   6.993   1.319
  319TIP3    H1  898   2.250   6.932   1.270
  319TIP3    H2  899   2.236   6.998   1.406
  320TIP3   OH2  900   5.494   4.919   0.525
  320TIP3    H1  901   5.497   4.845   0.465
  320TIP3    H2  902   5.586   4.937   0.546
  321TIP3   OH2  903   6.315   7.433   6.584
  321TIP3    H1  904   6.317   7.483   6.502
  321TIP3    H2  905   6.259   7.358   6.566
  322TIP3   OH2  906   5.550   5.881   0.768
  322TIP3    H1  907   5.630   5.866   0.718
  322TIP3    H2  908   5.577   5.937   0.841
  323TIP3   OH2  909   7.882   5.224   1.036
  323TIP3    H1  910   7.917   5.207   0.949
  323TIP3    H2  911   7.819   5.295   1.023
  324TIP3   OH2  912   2.203   3.795   3.570
  324TIP3    H1  913   2.200   3.702   3.590
  324TIP3    H2  914   2.112   3.820   3.556
  325TIP3   OH2  915   2.004   5.386   0.112
  325TIP3    H1  916   1.914   5.394   0.083
  325TIP3    H2  917   2.055   5.376   0.031
  326TIP3   OH2  918   1.135   0.293   6.040
  326TIP3    H1  919   1.113   0.258   6.126
  326TIP3    H2  920   1.093   0.379   6.037
  327TIP3   OH2  921   2.504   7.644   1.181
  327TIP3    H1  922   2.423   7.597   1.166
  327TIP3    H2  923   2.495   7.725   1.130
  328TIP3   OH2  924   5.718   7.724   0.160
  328TIP3    H1  925   5.776   7.748   0.232
  328TIP3    H2  926   5.748   7.636   0.135
  329TIP3   OH2  927   2.536   6.002   3.865
  329TIP3    H1  928   2.586   6.083   3.877
  329TIP3    H2  929   2.584   5.937   3.916
  330TIP3   OH2  930   4.543   2.662   0.322
  330TIP3    H1  931   4.606   2.723   0.361
  330TIP3    H2  932   4.458   2.692   0.352
  331TIP3   OH2  933   1.488   7.070   2.215
  331TIP3    H1  934   1.482   7.036   2.126
  331TIP3    H2  935   1.580   7.060   2.238
  332TIP3   OH2  936   5.290   2.071   6.028
  332TIP3    H1  937   5.375   2.085   6.071
  332TIP3    H2  938   5.292   2.128   5.952
  333TIP3   OH2  939   4.149   6.146   1.875
  333TIP3    H1  940   4.153   6.088   1.951
  333TIP3    H2  941   4.238   6.145   1.840
  334TIP3   OH2  942   0.393   5.659   1.885
  334TIP3    H1  943   0.329   5.723   1.854
  334TIP3    H2  944   0.478   5.695   1.860
  335TIP3   OH2  945   7.858   0.547   6.567
  335TIP3    H1  946   7.944   0.586   6.549
  335TIP3    H2  947   7.868   0.455   6.544
  336TIP3   OH2  948   6.035   4.119   3.267
  336TIP3    H1  949   6.127   4.095   3.266
  336TIP3    H2  950   6.023   4.172   3.188
  337TIP3   OH2  951   7.494   2.840   3.672
  337TIP3    H1  952   7.461   2.849   3.583
  337TIP3    H2  953   7.435   2.892   3.725
  338TIP3   OH2  954   6.183   1.658   1.212
  338TIP3    H1  955   6.111   1.642   1.152
  338TIP3    H2  956   6.160   1.741   1.255
  339TIP3   OH2  957   5.109   4.937   4.738
  339TIP3    H1  958   5.034   4.972   4.787
  339TIP3    H2  959   5.179   5.001   4.751
  340TIP3   OH2  960   6.585   4.156   5.100
  340TIP3    H1  961   6.563   4.076   5.051
  340TIP3    H2  962   6.595   4.223   5.033
  341TIP3   OH2  963   0.019   0.439   0.434
  341TIP3    H1  964  -0.010   0.399   0.352
  341TIP3    H2  965   0.095   0.491   0.410
  342TIP3   OH2  966   6.766   5.619   1.338
  342TIP3    H1  967   6.838   5.617   1.401
  342TIP3    H2  968   6.689   5.594   1.389
  343TIP3   OH2  969   5.651   5.304   0.427
  343TIP3    H1  970   5.621   5.385   0.386
  343TIP3    H2  971   5.742   5.293   0.398
  344TIP3   OH2  972   0.987   5.125   1.035
  344TIP3    H1  973   1.076   5.150   1.063
  344TIP3    H2  974   1.000   5.085   0.949
  345TIP3   OH2  975   7.270   6.071   4.732
  345TIP3    H1  976   7.329   6.102   4.663
  345TIP3    H2  977   7.264   5.977   4.717
  346TIP3   OH2  978   6.497   3.680   5.137
  346TIP3    H1  979   6.489   3.736   5.215
  346TIP3    H2  980   6.587   3.693   5.108
  347TIP3   OH2  981   5.608   3.611   0.362
  347TIP3    H1  982   5.605   3.550   0.436
  347TIP3    H2  983   5.691   3.591   0.318
  348TIP3   OH2  984   3.791   1.900   0.189
  348TIP3    H1  985   3.840   1.827   0.151
  348TIP3    H2  986   3.707   1.862   0.214
  349TIP3   OH2  987   0.128   2.853   6.501
  349TIP3    H1  988   0.045   2.878   6.460
  349TIP3    H2  989   0.147   2.925   6.561
  350TIP3   OH2  990   1.987   3.860   4.688
  350TIP3    H1  991   1.912   3.906   4.650
  350TIP3    H2  992   2.059   3.922   4.679
  351TIP3   OH2  993   7.682   4.693   1.313
  351TIP3    H1  994   7.740   4.638   1.261
  351TIP3    H2  995   7.609   4.713   1.254
  352TIP3   OH2  996   4.551   7.121   3.027
  352TIP3    H1  997   4.493   7.173   2.972
  352TIP3    H2  998   4.634   7.119   2.978
  353TIP3   OH2  999   1.961   0.750   2.892
  353TIP3    H1 1000   1.984   0.784   2.805
  353TIP3    H2 1001   1.876   0.788   2.912
  354TIP3   OH2 1002   5.148   1.158   5.065
  354TIP3    H1 1003   5.067   1.124   5.026
  354TIP3    H2 1004   5.207   1.170   4.991
  355TIP3   OH2 1005   1.813   0.511   4.707
  355TIP3    H1 1006   1.782   0.464   4.630
  355TIP3    H2 1007   1.872   0.450   4.750
  356TIP3   OH2 1008   2.195   0.931   0.397
  356TIP3    H1 1009   2.215   1.023   0.415
  356TIP3    H2 1010   2.277   0.885   0.412
  357TIP3   OH2 1011   7.247   7.481   6.689
  357TIP3    H1 1012   7.187   7.419   6.730
  357TIP3    H2 1013   7.191   7.551   6.657
  358TIP3   OH2 1014   1.319   6.211   1.460
  358TIP3    H1 1015   1.355   6.127   1.431
  358TIP3    H2 1016   1.361   6.276   1.404
  359TIP3   OH2 1017   0.362   6.726   5.902
  359TIP3    H1 1018   0.411   6.730   5.984
  359TIP3    H2 1019   0.300   6.654   5.914
  360TIP3   OH2 1020   3.438   0.968   4.206
  360TIP3    H1 1021   3.455   0.958   4.300
  360TIP3    H2 1022   3.343   0.973   4.199
  361TIP3   OH2 1023   2.488   2.223   4.793
  361TIP3    H1 1024   2.548   2.216   4.868
  361TIP3    H2 1025   2.456   2.134   4.780
  362TIP3   OH2 1026   4.209   7.470   0.925
  362TIP3    H1 1027   4.135   7.476   0.986
  362TIP3    H2 1028   4.212   7.556   0.883
  363TIP3   OH2 1029   0.209   2.147   3.010
  363TIP3    H1 1030   0.190   2.053   3.008
  363TIP3    H2 1031   0.194   2.172   3.101
  364TIP3   OH2 1032   2.643   3.614   6.449
  364TIP3    H1 1033   2.572   3.655   6.399
  364TIP3    H2 1034   2.693   3.688   6.484
  365TIP3   OH2 1035   2.814   2.044   5.643
  365TIP3    H1 1036   2.739   1.990   5.667
  365TIP3    H2 1037   2.777   2.131   5.629
  366TIP3   OH2 1038   6.347   0.931   2.159
  366TIP3    H1 1039   6.372   1.014   2.120
  366TIP3    H2 1040   6.367   0.866   2.091
  367TIP3   OH2 1041   2.473   4.002   2.660
  367TIP3    H1 1042   2.519   4.086   2.670
  367TIP3    H2 1043   2.541   3.941   2.633
  368TIP3   OH2 1044   1.607   6.069   1.342
  368TIP3    H1 1045   1.572   5.990   1.384
  368TIP3    H2 1046   1.531   6.113   1.306
  369TIP3   OH2 1047   7.284   6.462   3.012
  369TIP3    H1 1048   7.271   6.406   3.089
  369TIP3    H2 1049   7.314   6.401   2.944
  370TIP3   OH2 1050   3.267   5.973   2.597
  370TIP3    H1 1051   3.351   5.936   2.622
  370TIP3    H2 1052   3.212   5.897   2.579
  371TIP3   OH2 1053   1.769   6.784   3.185
  371TIP3    H1 1054   1.806   6.872   3.195
  371TIP3    H2 1055   1.787   6.741   3.269
  372TIP3   OH2 1056   1.630   5.506   4.331
  372TIP3    H1 1057   1.598   5.470   4.414
  372TIP3    H2 1058   1.624   5.601   4.342
  373TIP3   OH2 1059   3.034   3.419   1.235
  373TIP3    H1 1060   3.116   3.412   1.284
  373TIP3    H2 1061   2.983   3.484   1.284
  374TIP3   OH2 1062   3.192   7.656   0.687
  374TIP3    H1 1063   3.209   7.692   0.774
  374TIP3    H2 1064   3.275   7.617   0.660
  375TIP3   OH2 1065   1.252   4.870   2.746
  375TIP3    H1 1066   1.348   4.870   2.742
  375TIP3    H2 1067   1.230   4.956   2.782
  376TIP3   OH2 1068   4.496   5.877   1.560
  376TIP3    H1 1069   4.417   5.916   1.524
  376TIP3    H2 1070   4.490   5.892   1.654
  377TIP3   OH2 1071   5.363   3.891   6.609
  377TIP3    H1 1072   5.425   3.908   6.538
  377TIP3    H2 1073   5.347   3.797   6.605
  378TIP3   OH2 1074   2.974   0.621   2.413
  378TIP3    H1 1075   2.910   0.566   2.368
  378TIP3    H2 1076   2.982   0.698   2.357
  379TIP3   OH2 1077   2.186   7.517   2.820
  379TIP3    H1 1078   2.153   7.606   2.825
  379TIP3    H2 1079   2.197   7.490   2.912
  380TIP3   OH2 1080   0.428   1.080   6.306
  380TIP3    H1 1081   0.443   1.122   6.222
  380TIP3    H2 1082   0.438   1.151   6.370
  381TIP3   OH2 1083   4.380   5.269   2.467
  381TIP3    H1 1084   4.427   5.201   2.515
  381TIP3    H2 1085   4.407   5.258   2.376
  382TIP3   OH2 1086   1.038   4.156   0.175
  382TIP3    H1 1087   1.103   4.218   0.210
  382TIP3    H2 1088   1.013   4.103   0.251
  383TIP3   OH2 1089   8.091   6.554   4.655
  383TIP3    H1 1090   8.144   6.595   4.586
  383TIP3    H2 1091   8.001   6.575   4.631
  384TIP3   OH2 1092   3.970   4.227   5.365
  384TIP3    H1 1093   3.914   4.163   5.321
  384TIP3    H2 1094   3.998   4.183   5.446
  385TIP3   OH2 1095   6.063   2.599   2.636
  385TIP3    H1 1096   5.975   2.628   2.658
  385TIP3    H2 1097   6.070   2.614   2.542
  386TIP3   OH2 1098   0.599   2.859   3.658
  386TIP3    H1 1099   0.593   2.765   3.670
  386TIP3    H2 1100   0.677   2.885   3.707
  387TIP3   OH2 1101   3.294   3.315   1.077
  387TIP3    H1 1102   3.271   3.310   1.170
  387TIP3    H2 1103   3.306   3.409   1.061
  388TIP3   OH2 1104   3.975   1.060   6.522
  388TIP3    H1 1105   3.922   1.012   6.458
  388TIP3    H2 1106   3.922   1.136   6.545
  389TIP3   OH2 1107   3.678   4.617   4.111
  389TIP3    H1 1108   3.713   4.634   4.023
  389TIP3    H2 1109   3.630   4.697   4.133
  390TIP3   OH2 1110   0.820   3.234   3.102
  390TIP3    H1 1111   0.833   3.329   3.101
  390TIP3    H2 1112   0.885   3.202   3.165
  391TIP3   OH2 1113   7.004   2.173   0.527
  391TIP3    H1 1114   7.067   2.195   0.595
  391TIP3    H2 1115   7.051   2.192   0.445
  392TIP3   OH2 1116   4.562   6.281   5.224
  392TIP3    H1 1117   4.653   6.286   5.254
  392TIP3    H2 1118   4.510   6.281   5.304
  393TIP3   OH2 1119   2.157   4.554   5.493
  393TIP3    H1 1120   2.206   4.542   5.575
  393TIP3    H2 1121   2.116   4.469   5.477
  394TIP3   OH2 1122   2.756   6.668   3.809
  394TIP3    H1 1123   2.748   6.615   3.889
  394TIP3    H2 1124   2.821   6.735   3.832
  395TIP3   OH2 1125   7.091   1.485   1.721
  395TIP3    H1 1126   7.154   1.456   1.788
  395TIP3    H2 1127   7.071   1.406   1.671
  396TIP3   OH2 1128   4.630   1.271   0.751
  396TIP3    H1 1129   4.591   1.288   0.837
  396TIP3    H2 1130   4.721   1.247   0.770
  397TIP3   OH2 1131   6.718   4.408   0.295
  397TIP3    H1 1132   6.666   4.330   0.272
  397TIP3    H2 1133   6.808   4.382   0.277
  398TIP3   OH2 1134   2.838   0.463   0.530
  398TIP3    H1 1135   2.911   0.486   0.474
  398TIP3    H2 1136   2.865   0.490   0.618
  399TIP3   OH2 1137   5.043   1.072   3.576
  399TIP3    H1 1138   5.022   0.995   3.523
  399TIP3    H2 1139   5.116   1.113   3.531
  400TIP3   OH2 1140   0.550   4.472   4.428
  400TIP3    H1 1141   0.597   4.475   4.345
  400TIP3    H2 1142   0.605   4.416   4.484
  401TIP3   OH2 1143   7.604   4.963   5.691
  401TIP3    H1 1144   7.615   4.873   5.661
  401TIP3    H2 1145   7.595   4.956   5.786
  402TIP3   OH2 1146   4.442   3.698   0.760
  402TIP3    H1 1147   4.399   3.765   0.813
  402TIP3    H2 1148   4.507   3.659   0.818
  403TIP3   OH2 1149   4.080   6.947   5.801
  403TIP3    H1 1150   3.991   6.966   5.832
  403TIP3    H2 1151   4.084   6.988   5.714
  404TIP3   OH2 1152   1.933   5.536   6.425
  404TIP3    H1 1153   1.943   5.626   6.456
  404TIP3    H2 1154   1.993   5.485   6.479
  405TIP3   OH2 1155   0.393   7.517   1.532
  405TIP3    H1 1156   0.384   7.572   1.609
  405TIP3    H2 1157   0.486   7.492   1.530
  406TIP3   OH2 1158   4.307   5.080   2.984
  406TIP3    H1 1159   4.394   5.112   3.006
  406TIP3    H2 1160   4.314   4.985   2.988
  407TIP3   OH2 1161   4.044   1.762   0.927
  407TIP3    H1 1162   4.042   1.762   0.832
  407TIP3    H2 1163   4.080   1.847   0.951
  408TIP3   OH2 1164   5.418   1.201   5.188
  408TIP3    H1 1165   5.440   1.115   5.225
  408TIP3    H2 1166   5.331   1.189   5.150
  409TIP3   OH2 1167   7.877   0.490   0.360
  409TIP3    H1 1168   7.840   0.425   0.301
  409TIP3    H2 1169   7.956   0.522   0.315
  410TIP3   OH2 1170   2.705   6.931   6.380
  410TIP3    H1 1171   2.640   6.925   6.450
  410TIP3    H2 1172   2.654   6.933   6.300
  411TIP3   OH2 1173   3.946   2.113   6.545
  411TIP3    H1 1174   3.894   2.122   6.625
  411TIP3    H2 1175   4.033   2.085   6.576
  412TIP3   OH2 1176   7.836   0.030   1.495
  412TIP3    H1 1177   7.866  -0.023   1.421
  412TIP3    H2 1178   7.821   0.117   1.458
  413TIP3   OH2 1179   3.674   7.309   2.290
  413TIP3    H1 1180   3.766   7.320   2.264
  413TIP3    H2 1181   3.638   7.249   2.224
  414TIP3   OH2 1182   5.549   1.344   3.251
  414TIP3    H1 1183   5.521   1.257   3.221
  414TIP3    H2 1184   5.554   1.396   3.171
  415TIP3   OH2 1185   2.797   0.842   0.076
  415TIP3    H1 1186   2.748   0.896   0.013
  415TIP3    H2 1187   2.830   0.769   0.024
  416TIP3   OH2 1188   1.038   4.098   5.202
  416TIP3    H1 1189   1.113   4.132   5.251
  416TIP3    H2 1190   1.061   4.114   5.110
  417TIP3   OH2 1191   5.462   5.335   1.351
  417TIP3    H1 1192   5.415   5.280   1.415
  417TIP3    H2 1193   5.402   5.407   1.334
  418TIP3   OH2 1194   1.514   2.732   0.075
  418TIP3    H1 1195   1.589   2.776   0.035
  418TIP3    H2 1196   1.454   2.803   0.098
  419TIP3   OH2 1197   4.971   2.710   1.630
  419TIP3    H1 1198   5.049   2.765   1.617
  419TIP3    H2 1199   5.005   2.631   1.673
  420TIP3   OH2 1200   1.769   7.037   2.265
  420TIP3    H1 1201   1.757   7.036   2.360
  420TIP3    H2 1202   1.802   6.950   2.244
  421TIP3   OH2 1203   7.509   7.680   1.202
  421TIP3    H1 1204   7.600   7.657   1.181
  421TIP3    H2 1205   7.516   7.754   1.261
  422TIP3   OH2 1206   0.200   5.770   0.361
  422TIP3    H1 1207   0.248   5.845   0.396
  422TIP3    H2 1208   0.151   5.736   0.436
  423TIP3   OH2 1209   2.325   4.940   6.261
  423TIP3    H1 1210   2.275   4.901   6.333
  423TIP3    H2 1211   2.262   4.946   6.189
  424TIP3   OH2 1212   3.696   1.113   1.379
  424TIP3    H1 1213   3.674   1.033   1.332
  424TIP3    H2 1214   3.728   1.083   1.465
  425TIP3   OH2 1215   0.234   4.153   6.458
  425TIP3    H1 1216   0.277   4.085   6.406
  425TIP3    H2 1217   0.203   4.107   6.536
  426TIP3   OH2 1218   1.102   6.736   6.388
  426TIP3    H1 1219   1.091   6.646   6.356
  426TIP3    H2 1220   1.190   6.737   6.427
  427TIP3   OH2 1221   3.401   5.311   6.397
  427TIP3    H1 1222   3.385   5.373   6.325
  427TIP3    H2 1223   3.316   5.268   6.410
  428TIP3   OH2 1224   7.908   3.207   2.195
  428TIP3    H1 1225   7.967   3.219   2.269
  428TIP3    H2 1226   7.955   3.243   2.120
  429TIP3   OH2 1227   8.398   5.736   6.373
  429TIP3    H1 1228   8.411   5.744   6.468
  429TIP3    H2 1229   8.342   5.810   6.350
  430TIP3   OH2 1230   7.331   0.273   1.081
  430TIP3    H1 1231   7.259   0.330   1.110
  430TIP3    H2 1232   7.315   0.260   0.988
  431TIP3   OH2 1233   5.834   6.419   1.410
  431TIP3    H1 1234   5.882   6.453   1.334
  431TIP3    H2 1235   5.744   6.448   1.395
  432TIP3   OH2 1236   1.318   3.417   3.713
  432TIP3    H1 1237   1.245   3.434   3.772
  432TIP3    H2 1238   1.317   3.323   3.699
  433TIP3   OH2 1239   6.492   7.229   6.345
  433TIP3    H1 1240   6.441   7.306   6.317
  433TIP3    H2 1241   6.493   7.172   6.268
  434TIP3   OH2 1242   3.077   5.221   0.839
  434TIP3    H1 1243   3.006   5.285   0.834
  434TIP3    H2 1244   3.080   5.196   0.931
  435TIP3   OH2 1245   4.041   6.046   4.247
  435TIP3    H1 1246   3.960   6.044   4.297
  435TIP3    H2 1247   4.055   6.138   4.226
  436TIP3   OH2 1248   4.099   7.818   2.542
  436TIP3    H1 1249   4.188   7.847   2.521
  436TIP3    H2 1250   4.094   7.728   2.509
  437TIP3   OH2 1251   2.183   2.507   1.805
  437TIP3    H1 1252   2.110   2.507   1.743
  437TIP3    H2 1253   2.198   2.600   1.824
  438TIP3   OH2 1254   6.379   7.420   6.859
  438TIP3    H1 1255   6.374   7.449   6.768
  438TIP3    H2 1256   6.391   7.325   6.853
  439TIP3   OH2 1257   2.792   7.883   0.612
  439TIP3    H1 1258   2.840   7.800   0.610
  439TIP3    H2 1259   2.705   7.861   0.578
  440TIP3   OH2 1260   1.010   6.716   2.973
  440TIP3    H1 1261   1.099   6.732   2.940
  440TIP3    H2 1262   0.956   6.710   2.895
  441TIP3   OH2 1263   3.809   4.736   2.912
  441TIP3    H1 1264   3.829   4.661   2.857
  441TIP3    H2 1265   3.714   4.730   2.928
  442TIP3   OH2 1266   3.107   4.916   3.443
  442TIP3    H1 1267   3.025   4.869   3.425
  442TIP3    H2 1268   3.110   4.922   3.538
  443TIP3   OH2 1269   2.075   6.809   5.257
  443TIP3    H1 1270   2.167   6.837   5.260
  443TIP3    H2 1271   2.037   6.847   5.336
  444TIP3   OH2 1272   6.725   1.284   3.729
  444TIP3    H1 1273   6.738   1.308   3.637
  444TIP3    H2 1274   6.715   1.189   3.727
  445TIP3   OH2 1275   3.142   2.070   3.945
  445TIP3    H1 1276   3.199   2.022   3.886
  445TIP3    H2 1277   3.184   2.063   4.031
  446TIP3   OH2 1278   4.365   1.022   3.137
  446TIP3    H1 1279   4.389   1.076   3.212
  446TIP3    H2 1280   4.378   1.078   3.061
  447TIP3   OH2 1281   5.484   2.204   3.635
  447TIP3    H1 1282   5.486   2.110   3.618
  447TIP3    H2 1283   5.566   2.223   3.679
  448TIP3   OH2 1284   3.133   3.496   1.687
  448TIP3    H1 1285   3.104   3.545   1.610
  448TIP3    H2 1286   3.077   3.527   1.758
  449TIP3   OH2 1287   3.205   7.126   0.355
  449TIP3    H1 1288   3.257   7.054   0.390
  449TIP3    H2 1289   3.177   7.175   0.433
  450TIP3   OH2 1290   4.579   1.503   3.902
  450TIP3    H1 1291   4.554   1.412   3.885
  450TIP3    H2 1292   4.675   1.502   3.902
  451TIP3   OH2 1293   3.453   2.827   3.668
  451TIP3    H1 1294   3.516   2.899   3.679
  451TIP3    H2 1295   3.423   2.808   3.756
  452TIP3   OH2 1296   0.033   4.401   3.772
  452TIP3    H1 1297   0.069   4.469   3.715
  452TIP3    H2 1298  -0.062   4.406   3.757
  453TIP3   OH2 1299   0.702   6.130   6.734
  453TIP3    H1 1300   0.785   6.160   6.771
  453TIP3    H2 1301   0.724   6.050   6.687
  454TIP3   OH2 1302   0.544   2.189   5.643
  454TIP3    H1 1303   0.541   2.157   5.733
  454TIP3    H2 1304   0.635   2.212   5.628
  455TIP3   OH2 1305   8.316   0.449   4.587
  455TIP3    H1 1306   8.351   0.361   4.576
  455TIP3    H2 1307   8.369   0.503   4.529
  456TIP3   OH2 1308   1.270   1.934   6.434
  456TIP3    H1 1309   1.252   2.028   6.434
  456TIP3    H2 1310   1.184   1.893   6.424
  457TIP3   OH2 1311   0.899   3.712   3.279
  457TIP3    H1 1312   0.809   3.721   3.310
  457TIP3    H2 1313   0.911   3.787   3.221
  458TIP3   OH2 1314   0.056   0.922   2.487
  458TIP3    H1 1315   0.067   0.876   2.404
  458TIP3    H2 1316   0.117   0.878   2.547
  459TIP3   OH2 1317   6.977   3.857   5.130
  459TIP3    H1 1318   6.922   3.933   5.115
  459TIP3    H2 1319   7.058   3.875   5.081
  460TIP3   OH2 1320   0.193   2.301   6.002
  460TIP3    H1 1321   0.233   2.384   5.973
  460TIP3    H2 1322   0.255   2.234   5.972
  461TIP3   OH2 1323   5.168   0.727   1.290
  461TIP3    H1 1324   5.080   0.764   1.280
  461TIP3    H2 1325   5.158   0.635   1.267
  462TIP3   OH2 1326   6.707   4.606   3.063
  462TIP3    H1 1327   6.641   4.632   3.128
  462TIP3    H2 1328   6.769   4.553   3.113
  463TIP3   OH2 1329   2.033   1.704   2.677
  463TIP3    H1 1330   1.954   1.678   2.631
  463TIP3    H2 1331   2.005   1.777   2.733
  464TIP3   OH2 1332   1.071   3.587   6.515
  464TIP3    H1 1333   1.124   3.509   6.526
  464TIP3    H2 1334   1.082   3.636   6.596
  465TIP3   OH2 1335   0.651   0.226   1.352
  465TIP3    H1 1336   0.689   0.297   1.300
  465TIP3    H2 1337   0.632   0.157   1.289
  466TIP3   OH2 1338   5.641   0.823   4.000
  466TIP3    H1 1339   5.646   0.755   4.067
  466TIP3    H2 1340   5.615   0.902   4.047
  467TIP3   OH2 1341   3.466   4.502   5.785
  467TIP3    H1 1342   3.545   4.533   5.740
  467TIP3    H2 1343   3.486   4.411   5.808
  468TIP3   OH2 1344   7.748   3.488   2.261
  468TIP3    H1 1345   7.752   3.403   2.216
  468TIP3    H2 1346   7.819   3.539   2.222
  469TIP3   OH2 1347   4.251   4.530   3.404
  469TIP3    H1 1348   4.171   4.579   3.424
  469TIP3    H2 1349   4.220   4.449   3.363
  470TIP3   OH2 1350   5.146   0.822   6.574
  470TIP3    H1 1351   5.105   0.832   6.660
  470TIP3    H2 1352   5.094   0.756   6.529
  471TIP3   OH2 1353   7.531   4.420   1.153
  471TIP3    H1 1354   7.626   4.421   1.168
  471TIP3    H2 1355   7.516   4.494   1.093
  472TIP3   OH2 1356   1.571   0.412   2.534
  472TIP3    H1 1357   1.610   0.455   2.611
  472TIP3    H2 1358   1.497   0.468   2.511
  473TIP3   OH2 1359   5.241   5.461   1.733
  473TIP3    H1 1360   5.275   5.421   1.653
  473TIP3    H2 1361   5.309   5.523   1.760
  474TIP3   OH2 1362   3.838   2.196   0.106
  474TIP3    H1 1363   3.821   2.200   0.200
  474TIP3    H2 1364   3.837   2.103   0.085
  475TIP3   OH2 1365   5.171   1.837   5.954
  475TIP3    H1 1366   5.219   1.759   5.983
  475TIP3    H2 1367   5.229   1.910   5.977
  476TIP3   OH2 1368   5.580   6.392   4.416
  476TIP3    H1 1369   5.593   6.314   4.362
  476TIP3    H2 1370   5.541   6.457   4.356
  477TIP3   OH2 1371   6.592   7.777   4.475
  477TIP3    H1 1372   6.591   7.866   4.440
  477TIP3    H2 1373   6.503   7.763   4.508
  478TIP3   OH2 1374   6.592   2.236   5.069
  478TIP3    H1 1375   6.644   2.247   4.989
  478TIP3    H2 1376   6.533   2.163   5.049
  479TIP3   OH2 1377   4.678   7.353   1.546
  479TIP3    H1 1378   4.737   7.297   1.495
  479TIP3    H2 1379   4.698   7.332   1.638
  480TIP3   OH2 1380   0.820   5.295   2.828
  480TIP3    H1 1381   0.881   5.259   2.763
  480TIP3    H2 1382   0.738   5.250   2.811
  481TIP3   OH2 1383   8.145   6.497   5.036
  481TIP3    H1 1384   8.137   6.450   5.119
  481TIP3    H2 1385   8.181   6.433   4.976
  482TIP3   OH2 1386   2.299   3.233   0.640
  482TIP3    H1 1387   2.331   3.237   0.549
  482TIP3    H2 1388   2.233   3.165   0.639
  483TIP3   OH2 1389   6.993   0.039   5.844
  483TIP3    H1 1390   6.970  -0.006   5.926
  483TIP3    H2 1391   6.967  -0.022   5.775
  484TIP3   OH2 1392   3.684   7.513   4.544
  484TIP3    H1 1393   3.659   7.595   4.586
  484TIP3    H2 1394   3.608   7.488   4.492
  485TIP3   OH2 1395   7.107   7.068   2.258
  485TIP3    H1 1396   7.146   7.112   2.183
  485TIP3    H2 1397   7.073   6.986   2.222
  486TIP3   OH2 1398   1.813   6.285   2.900
  486TIP3    H1 1399   1.848   6.208   2.855
  486TIP3    H2 1400   1.720   6.267   2.911
  487TIP3   OH2 1401   6.394   7.648   2.767
  487TIP3    H1 1402   6.470   7.617   2.717
  487TIP3    H2 1403   6.321   7.645   2.706
  488TIP3   OH2 1404   0.052   5.753   2.089
  488TIP3    H1 1405   0.039   5.845   2.113
  488TIP3    H2 1406   0.010   5.745   2.003
  489TIP3   OH2 1407   5.333   3.330   1.237
  489TIP3    H1 1408   5.427   3.313   1.225
  489TIP3    H2 1409   5.329   3.388   1.313
  490TIP3   OH2 1410   1.198   1.633   6.616
  490TIP3    H1 1411   1.266   1.596   6.672
  490TIP3    H2 1412   1.171   1.713   6.661
  491TIP3   OH2 1413   2.281   6.520   6.615
  491TIP3    H1 1414   2.346   6.574   6.571
  491TIP3    H2 1415   2.208   6.515   6.554
  492TIP3   OH2 1416   4.128   2.633   3.218
  492TIP3    H1 1417   4.176   2.693   3.275
  492TIP3    H2 1418   4.051   2.682   3.190
  493TIP3   OH2 1419   1.405   6.014   0.564
  493TIP3    H1 1420   1.461   6.074   0.514
  493TIP3    H2 1421   1.420   6.037   0.655
  494TIP3   OH2 1422   1.823   1.422   4.765
  494TIP3    H1 1423   1.824   1.327   4.755
  494TIP3    H2 1424   1.837   1.436   4.859
  495TIP3   OH2 1425   6.121   0.054   6.301
  495TIP3    H1 1426   6.116   0.129   6.241
  495TIP3    H2 1427   6.214   0.047   6.322
  496TIP3   OH2 1428   3.821   2.174   3.598
  496TIP3    H1 1429   3.769   2.106   3.640
  496TIP3    H2 1430   3.795   2.255   3.643
  497TIP3   OH2 1431   1.951   7.651   4.704
  497TIP3    H1 1432   1.905   7.718   4.753
  497TIP3    H2 1433   1.897   7.572   4.715
  498TIP3   OH2 1434   2.114   0.763   1.648
  498TIP3    H1 1435   2.166   0.843   1.657
  498TIP3    H2 1436   2.145   0.707   1.719
  499TIP3   OH2 1437   2.170   3.129   2.402
  499TIP3    H1 1438   2.127   3.200   2.451
  499TIP3    H2 1439   2.190   3.063   2.468
  500TIP3   OH2 1440   8.212   2.575   5.527
  500TIP3    H1 1441   8.172   2.528   5.599
  500TIP3    H2 1442   8.265   2.643   5.569
  501TIP3   OH2 1443   2.676   5.122   4.531
  501TIP3    H1 1444   2.679   5.026   4.530
  501TIP3    H2 1445   2.645   5.143   4.619
  502TIP3   OH2 1446   4.255   4.821   1.503
  502TIP3    H1 1447   4.266   4.792   1.412
  502TIP3    H2 1448   4.338   4.863   1.524
  503TIP3   OH2 1449   3.445   6.340   4.892
  503TIP3    H1 1450   3.472   6.294   4.813
  503TIP3    H2 1451   3.350   6.329   4.896
  504TIP3   OH2 1452   4.819   0.897   2.062
  504TIP3    H1 1453   4.760   0.837   2.107
  504TIP3    H2 1454   4.785   0.984   2.083
  505TIP3   OH2 1455   4.180   7.632   3.479
  505TIP3    H1 1456   4.105   7.597   3.432
  505TIP3    H2 1457   4.256   7.588   3.439
  506TIP3   OH2 1458   2.415   0.270   4.330
  506TIP3    H1 1459   2.503   0.305   4.313
  506TIP3    H2 1460   2.376   0.262   4.243
  507TIP3   OH2 1461   2.671   4.267   6.449
  507TIP3    H1 1462   2.674   4.201   6.380
  507TIP3    H2 1463   2.579   4.288   6.459
  508TIP3   OH2 1464   1.426   6.554   4.615
  508TIP3    H1 1465   1.340   6.595   4.605
  508TIP3    H2 1466   1.416   6.497   4.692
  509TIP3   OH2 1467   2.739   4.068   2.942
  509TIP3    H1 1468   2.729   4.159   2.912
  509TIP3    H2 1469   2.653   4.028   2.929
  510TIP3   OH2 1470   1.300   7.180   0.959
  510TIP3    H1 1471   1.286   7.253   0.899
  510TIP3    H2 1472   1.377   7.135   0.924
  511TIP3   OH2 1473   7.861   0.161   1.805
  511TIP3    H1 1474   7.926   0.221   1.768
  511TIP3    H2 1475   7.865   0.176   1.899
  512TIP3   OH2 1476   7.723   7.611   2.085
  512TIP3    H1 1477   7.780   7.678   2.122
  512TIP3    H2 1478   7.696   7.558   2.160
  513TIP3   OH2 1479   6.118   5.043   1.014
  513TIP3    H1 1480   6.035   5.010   0.980
  513TIP3    H2 1481   6.176   4.967   1.011
  514TIP3   OH2 1482   7.729   2.587   1.581
  514TIP3    H1 1483   7.723   2.642   1.503
  514TIP3    H2 1484   7.684   2.506   1.556
  515TIP3   OH2 1485   1.195   4.187   0.584
  515TIP3    H1 1486   1.230   4.098   0.581
  515TIP3    H2 1487   1.271   4.243   0.567
  516TIP3   OH2 1488   2.386  -0.011   4.120
  516TIP3    H1 1489   2.374   0.080   4.092
  516TIP3    H2 1490   2.310  -0.029   4.176
  517TIP3   OH2 1491   1.342   5.324   6.272
  517TIP3    H1 1492   1.411   5.384   6.243
  517TIP3    H2 1493   1.350   5.321   6.367
  518TIP3   OH2 1494   1.228   4.754   1.999
  518TIP3    H1 1495   1.188   4.714   2.076
  518TIP3    H2 1496   1.269   4.834   2.033
  519TIP3   OH2 1497   4.564   3.968   4.160
  519TIP3    H1 1498   4.605   3.882   4.164
  519TIP3    H2 1499   4.485   3.960   4.214
  520TIP3   OH2 1500   4.253   5.883   1.753
  520TIP3    H1 1501   4.291   5.851   1.836
  520TIP3    H2 1502   4.188   5.817   1.730
  521TIP3   OH2 1503   1.374   1.400   0.479
  521TIP3    H1 1504   1.442   1.450   0.433
  521TIP3    H2 1505   1.315   1.466   0.514
  522TIP3   OH2 1506   1.434   4.337   0.523
  522TIP3    H1 1507   1.485   4.334   0.604
  522TIP3    H2 1508   1.482   4.398   0.467
  523TIP3   OH2 1509   0.058   5.918   2.465
  523TIP3    H1 1510   0.050   5.942   2.557
  523TIP3    H2 1511   0.077   5.825   2.465
  524TIP3   OH2 1512   5.644   2.099   1.659
  524TIP3    H1 1513   5.642   2.125   1.751
  524TIP3    H2 1514   5.597   2.016   1.657
  525TIP3   OH2 1515   2.942   6.663   1.524
  525TIP3    H1 1516   2.993   6.606   1.582
  525TIP3    H2 1517   2.925   6.741   1.577
  526TIP3   OH2 1518   7.823   6.461   2.920
  526TIP3    H1 1519   7.911   6.461   2.957
  526TIP3    H2 1520   7.833   6.500   2.833
  527TIP3   OH2 1521   1.359   1.438   2.579
  527TIP3    H1 1522   1.298   1.368   2.605
  527TIP3    H2 1523   1.310   1.490   2.516
  528TIP3   OH2 1524   6.984   3.771   1.571
  528TIP3    H1 1525   7.010   3.795   1.660
  528TIP3    H2 1526   6.921   3.838   1.545
  529TIP3   OH2 1527   0.650   0.924   3.515
  529TIP3    H1 1528   0.607   0.998   3.557
  529TIP3    H2 1529   0.608   0.917   3.429
  530TIP3   OH2 1530   1.384   3.435   1.998
  530TIP3    H1 1531   1.459   3.385   2.031
  530TIP3    H2 1532   1.308   3.379   2.014
  531TIP3   OH2 1533   6.135   2.689   0.952
  531TIP3    H1 1534   6.045   2.713   0.974
  531TIP3    H2 1535   6.135   2.682   0.856
  532TIP3   OH2 1536   6.757   5.589   5.213
  532TIP3    H1 1537   6.680   5.541   5.244
  532TIP3    H2 1538   6.721   5.667   5.171
  533TIP3   OH2 1539   6.505   0.410   4.960
  533TIP3    H1 1540   6.596   0.387   4.942
  533TIP3    H2 1541   6.472   0.445   4.876
  534TIP3   OH2 1542   6.504   3.357   3.270
  534TIP3    H1 1543   6.481   3.291   3.336
  534TIP3    H2 1544   6.552   3.424   3.318
  535TIP3   OH2 1545   4.612   2.782   4.419
  535TIP3    H1 1546   4.704   2.804   4.433
  535TIP3    H2 1547   4.566   2.825   4.491
  536TIP3   OH2 1548   4.146   1.169   5.697
  536TIP3    H1 1549   4.239   1.180   5.712
  536TIP3    H2 1550   4.137   1.081   5.661
  537TIP3   OH2 1551   4.923   7.857   4.409
  537TIP3    H1 1552   4.976   7.868   4.488
  537TIP3    H2 1553   4.985   7.869   4.337
  538TIP3   OH2 1554   4.935   7.689   0.653
  538TIP3    H1 1555   5.020   7.661   0.621
  538TIP3    H2 1556   4.899   7.613   0.699
  539TIP3   OH2 1557   7.082   2.405   2.318
  539TIP3    H1 1558   7.000   2.411   2.270
  539TIP3    H2 1559   7.138   2.471   2.278
  540TIP3   OH2 1560   6.048   6.277   4.313
  540TIP3    H1 1561   6.025   6.222   4.388
  540TIP3    H2 1562   6.141   6.259   4.297
  541TIP3   OH2 1563   7.193   5.262   5.467
  541TIP3    H1 1564   7.170   5.318   5.393
  541TIP3    H2 1565   7.284   5.237   5.450
  542TIP3   OH2 1566   0.619   6.418   0.394
  542TIP3    H1 1567   0.597   6.358   0.465
  542TIP3    H2 1568   0.570   6.384   0.319
  543TIP3   OH2 1569   5.401   7.474   2.981
  543TIP3    H1 1570   5.488   7.457   2.945
  543TIP3    H2 1571   5.408   7.561   3.020
  544TIP3   OH2 1572   7.397   2.520   4.878
  544TIP3    H1 1573   7.397   2.542   4.785
  544TIP3    H2 1574   7.317   2.559   4.912
  545TIP3   OH2 1575   0.369   2.343   6.671
  545TIP3    H1 1576   0.295   2.401   6.651
  545TIP3    H2 1577   0.442   2.403   6.686
  546TIP3   OH2 1578   0.592   6.374   5.850
  546TIP3    H1 1579   0.594   6.468   5.832
  546TIP3    H2 1580   0.606   6.332   5.765
  547TIP3   OH2 1581   2.094   3.160   3.634
  547TIP3    H1 1582   2.137   3.202   3.559
  547TIP3    H2 1583   2.078   3.070   3.604
  548TIP3   OH2 1584   4.057   1.775   4.975
  548TIP3    H1 1585   4.033   1.689   5.009
  548TIP3    H2 1586   4.153   1.772   4.967
  549TIP3   OH2 1587   7.696   4.073   5.230
  549TIP3    H1 1588   7.628   4.131   5.197
  549TIP3    H2 1589   7.705   4.005   5.163
  550TIP3   OH2 1590   2.965   6.995   2.428
  550TIP3    H1 1591   2.995   6.958   2.345
  550TIP3    H2 1592   2.890   7.050   2.404
  551TIP3   OH2 1593   2.332   5.862   6.183
  551TIP3    H1 1594   2.423   5.833   6.170
  551TIP3    H2 1595   2.282   5.812   6.118
  552TIP3   OH2 1596   8.175   3.485   5.548
  552TIP3    H1 1597   8.158   3.476   5.642
  552TIP3    H2 1598   8.088   3.490   5.508
  553TIP3   OH2 1599   1.135   5.840   1.765
  553TIP3    H1 1600   1.227   5.813   1.772
  553TIP3    H2 1601   1.106   5.851   1.856
  554TIP3   OH2 1602   7.757   2.913   5.368
  554TIP3    H1 1603   7.677   2.862   5.381
  554TIP3    H2 1604   7.815   2.885   5.440
  555TIP3   OH2 1605   0.015   0.930   5.480
  555TIP3    H1 1606   0.106   0.936   5.506
  555TIP3    H2 1607  -0.005   1.016   5.442
  556TIP3   OH2 1608   7.089   0.492   2.078
  556TIP3    H1 1609   7.164   0.521   2.025
  556TIP3    H2 1610   7.022   0.558   2.061
  557TIP3   OH2 1611   3.061   0.686   3.678
  557TIP3    H1 1612   3.146   0.724   3.658
  557TIP3    H2 1613   3.003   0.721   3.609
  558TIP3   OH2 1614   6.541   7.131   0.578
  558TIP3    H1 1615   6.539   7.217   0.620
  558TIP3    H2 1616   6.608   7.082   0.626
  559TIP3   OH2 1617   2.534   1.409   5.541
  559TIP3    H1 1618   2.579   1.326   5.551
  559TIP3    H2 1619   2.455   1.399   5.594
  560TIP3   OH2 1620   5.660   0.668   1.818
  560TIP3    H1 1621   5.700   0.740   1.867
  560TIP3    H2 1622   5.716   0.593   1.836
  561TIP3   OH2 1623   2.781   0.379   3.197
  561TIP3    H1 1624   2.746   0.468   3.196
  561TIP3    H2 1625   2.804   0.361   3.106
  562TIP3   OH2 1626   3.032   1.691   5.773
  562TIP3    H1 1627   2.965   1.622   5.773
  562TIP3    H2 1628   2.983   1.771   5.789
  563TIP3   OH2 1629   3.153   7.445   5.199
  563TIP3    H1 1630   3.075   7.430   5.253
  563TIP3    H2 1631   3.129   7.519   5.143
  564TIP3   OH2 1632   6.151   0.428   3.537
  564TIP3    H1 1633   6.124   0.339   3.561
  564TIP3    H2 1634   6.088   0.485   3.581
  565TIP3   OH2 1635   3.300   7.883   2.459
  565TIP3    H1 1636   3.302   7.798   2.415
  565TIP3    H2 1637   3.356   7.872   2.536
  566TIP3   OH2 1638   6.738   2.361   6.668
  566TIP3    H1 1639   6.751   2.456   6.671
  566TIP3    H2 1640   6.817   2.325   6.708
  567TIP3   OH2 1641   5.897   3.276   0.853
  567TIP3    H1 1642   5.857   3.298   0.769
  567TIP3    H2 1643   5.846   3.326   0.917
  568TIP3   OH2 1644   2.447   0.282   1.006
  568TIP3    H1 1645   2.366   0.234   1.020
  568TIP3    H2 1646   2.513   0.215   0.990
  569TIP3   OH2 1647   1.424   4.069   5.900
  569TIP3    H1 1648   1.475   4.064   5.981
  569TIP3    H2 1649   1.451   3.992   5.850
  570TIP3   OH2 1650   3.138   2.179   4.340
  570TIP3    H1 1651   3.072   2.114   4.364
  570TIP3    H2 1652   3.101   2.262   4.370
  571TIP3   OH2 1653   1.412   2.001   6.142
  571TIP3    H1 1654   1.505   2.021   6.129
  571TIP3    H2 1655   1.370   2.087   6.145
  572TIP3   OH2 1656   0.839   7.871   6.100
  572TIP3    H1 1657   0.785   7.804   6.057
  572TIP3    H2 1658   0.920   7.873   6.049
  573TIP3   OH2 1659   6.201   3.169   3.978
  573TIP3    H1 1660   6.111   3.203   3.974
  573TIP3    H2 1661   6.255   3.247   3.988
  574TIP3   OH2 1662   6.765   5.916   0.490
  574TIP3    H1 1663   6.827   5.975   0.534
  574TIP3    H2 1664   6.681   5.935   0.532
  575TIP3   OH2 1665   5.155   1.978   6.251
  575TIP3    H1 1666   5.152   2.055   6.308
  575TIP3    H2 1667   5.183   2.012   6.166
  576TIP3   OH2 1668   4.703   3.833   4.772
  576TIP3    H1 1669   4.645   3.782   4.716
  576TIP3    H2 1670   4.791   3.807   4.746
  577TIP3   OH2 1671   5.446   4.125   0.766
  577TIP3    H1 1672   5.517   4.101   0.826
  577TIP3    H2 1673   5.419   4.212   0.794
  578TIP3   OH2 1674   1.600   4.815   5.183
  578TIP3    H1 1675   1.607   4.846   5.274
  578TIP3    H2 1676   1.647   4.881   5.132
  579TIP3   OH2 1677   7.529   4.816   0.047
  579TIP3    H1 1678   7.433   4.815   0.046
  579TIP3    H2 1679   7.554   4.793  -0.042
  580TIP3   OH2 1680   4.226   2.959   2.492
  580TIP3    H1 1681   4.229   3.013   2.571
  580TIP3    H2 1682   4.304   2.985   2.442
  581TIP3   OH2 1683   5.236   3.864   3.436
  581TIP3    H1 1684   5.195   3.781   3.459
  581TIP3    H2 1685   5.313   3.839   3.383
  582TIP3   OH2 1686   2.180   4.159   3.492
  582TIP3    H1 1687   2.238   4.177   3.418
  582TIP3    H2 1688   2.239   4.140   3.565
  583TIP3   OH2 1689   8.149   4.224   0.647
  583TIP3    H1 1690   8.130   4.143   0.693
  583TIP3    H2 1691   8.222   4.202   0.588
  584TIP3   OH2 1692   0.825   5.900   6.641
  584TIP3    H1 1693   0.915   5.926   6.618
  584TIP3    H2 1694   0.807   5.826   6.583
  585TIP3   OH2 1695   8.356   6.382   3.904
  585TIP3    H1 1696   8.395   6.425   3.980
  585TIP3    H2 1697   8.429   6.365   3.845
  586TIP3   OH2 1698   7.415   0.957   6.425
  586TIP3    H1 1699   7.430   0.981   6.333
  586TIP3    H2 1700   7.494   0.986   6.470
  587TIP3   OH2 1701   1.355   7.388   6.536
  587TIP3    H1 1702   1.282   7.408   6.478
  587TIP3    H2 1703   1.337   7.438   6.616
  588TIP3   OH2 1704   0.887   2.883   0.273
  588TIP3    H1 1705   0.886   2.978   0.274
  588TIP3    H2 1706   0.961   2.859   0.330
  589TIP3   OH2 1707   1.157   0.614   4.104
  589TIP3    H1 1708   1.192   0.529   4.131
  589TIP3    H2 1709   1.166   0.615   4.009
  590TIP3   OH2 1710   0.123   3.205   2.286
  590TIP3    H1 1711   0.194   3.201   2.350
  590TIP3    H2 1712   0.126   3.294   2.252
  591TIP3   OH2 1713   4.228   2.645   4.099
  591TIP3    H1 1714   4.305   2.678   4.145
  591TIP3    H2 1715   4.195   2.575   4.155
  592TIP3   OH2 1716   1.039   4.257   1.913
  592TIP3    H1 1717   0.948   4.245   1.943
  592TIP3    H2 1718   1.030   4.289   1.824
  593TIP3   OH2 1719   2.094   6.128   1.770
  593TIP3    H1 1720   2.109   6.135   1.864
  593TIP3    H2 1721   2.097   6.035   1.751
  594TIP3   OH2 1722   0.048   7.460   5.502
  594TIP3    H1 1723   0.067   7.553   5.511
  594TIP3    H2 1724  -0.020   7.455   5.435
  595TIP3   OH2 1725   1.918   7.257   2.198
  595TIP3    H1 1726   1.875   7.173   2.215
  595TIP3    H2 1727   1.949   7.250   2.108
  596TIP3   OH2 1728   6.525   1.090   5.895
  596TIP3    H1 1729   6.442   1.044   5.906
  596TIP3    H2 1730   6.586   1.043   5.950
  597TIP3   OH2 1731   3.290   3.366   0.346
  597TIP3    H1 1732   3.327   3.291   0.392
  597TIP3    H2 1733   3.366   3.421   0.324
  598TIP3   OH2 1734   1.366   1.241   3.616
  598TIP3    H1 1735   1.410   1.193   3.686
  598TIP3    H2 1736   1.436   1.276   3.562
  599TIP3   OH2 1737   5.898   6.198   5.053
  599TIP3    H1 1738   5.945   6.247   4.985
  599TIP3    H2 1739   5.879   6.114   5.013
  600TIP3   OH2 1740   1.069   3.046   1.457
  600TIP3    H1 1741   1.096   2.978   1.519
  600TIP3    H2 1742   1.044   3.120   1.513
  601TIP3   OH2 1743   1.836   5.705   5.893
  601TIP3    H1 1744   1.758   5.723   5.841
  601TIP3    H2 1745   1.810   5.720   5.983
  602TIP3   OH2 1746   6.702   5.509   5.711
  602TIP3    H1 1747   6.667   5.468   5.632
  602TIP3    H2 1748   6.625   5.545   5.755
  603TIP3   OH2 1749   3.134   3.708   6.046
  603TIP3    H1 1750   3.048   3.744   6.066
  603TIP3    H2 1751   3.195   3.760   6.099
  604TIP3   OH2 1752   4.892   6.500   3.820
  604TIP3    H1 1753   4.924   6.574   3.873
  604TIP3    H2 1754   4.966   6.479   3.763
  605TIP3   OH2 1755   7.691   2.645   4.242
  605TIP3    H1 1756   7.617   2.625   4.299
  605TIP3    H2 1757   7.655   2.639   4.154
  606TIP3   OH2 1758   1.227   7.014   4.585
  606TIP3    H1 1759   1.164   6.943   4.581
  606TIP3    H2 1760   1.255   7.026   4.494
  607TIP3   OH2 1761   6.667   2.479   5.682
  607TIP3    H1 1762   6.629   2.554   5.637
  607TIP3    H2 1763   6.679   2.510   5.772
  608TIP3   OH2 1764   2.398   6.366   0.205
  608TIP3    H1 1765   2.469   6.355   0.141
  608TIP3    H2 1766   2.354   6.281   0.208
  609TIP3   OH2 1767   4.503   0.965   4.143
  609TIP3    H1 1768   4.529   0.909   4.217
  609TIP3    H2 1769   4.586   1.001   4.110
  610TIP3   OH2 1770   5.840   3.924   5.726
  610TIP3    H1 1771   5.760   3.873   5.715
  610TIP3    H2 1772   5.867   3.908   5.817
  611TIP3   OH2 1773   4.727   6.485   4.896
  611TIP3    H1 1774   4.643   6.527   4.918
  611TIP3    H2 1775   4.711   6.392   4.911
  612TIP3   OH2 1776   5.669   2.115   0.529
  612TIP3    H1 1777   5.625   2.049   0.476
  612TIP3    H2 1778   5.642   2.199   0.493
  613TIP3   OH2 1779   7.335   5.198   5.890
  613TIP3    H1 1780   7.393   5.256   5.841
  613TIP3    H2 1781   7.315   5.126   5.829
  614TIP3   OH2 1782   1.630   7.469   5.864
  614TIP3    H1 1783   1.572   7.405   5.907
  614TIP3    H2 1784   1.682   7.417   5.803
  615TIP3   OH2 1785   0.539   0.601   3.327
  615TIP3    H1 1786   0.505   0.542   3.395
  615TIP3    H2 1787   0.511   0.688   3.354
  616TIP3   OH2 1788   6.618   2.394   2.554
  616TIP3    H1 1789   6.682   2.463   2.540
  616TIP3    H2 1790   6.652   2.346   2.630
  617TIP3   OH2 1791   1.157   5.636   3.268
  617TIP3    H1 1792   1.086   5.690   3.301
  617TIP3    H2 1793   1.212   5.618   3.344
  618TIP3   OH2 1794   3.193   7.710   4.293
  618TIP3    H1 1795   3.185   7.794   4.337
  618TIP3    H2 1796   3.112   7.702   4.242
  619TIP3   OH2 1797   1.526   5.528   5.921
  619TIP3    H1 1798   1.590   5.549   5.853
  619TIP3    H2 1799   1.444   5.565   5.888
  620TIP3   OH2 1800   4.482   6.595   4.720
  620TIP3    H1 1801   4.484   6.506   4.757
  620TIP3    H2 1802   4.427   6.645   4.779
  621TIP3   OH2 1803   4.018   6.159   3.455
  621TIP3    H1 1804   4.107   6.138   3.426
  621TIP3    H2 1805   4.026   6.245   3.496
  622TIP3   OH2 1806   5.729   5.584   5.164
  622TIP3    H1 1807   5.687   5.612   5.245
  622TIP3    H2 1808   5.731   5.489   5.170
  623TIP3   OH2 1809   5.222   2.822   5.086
  623TIP3    H1 1810   5.313   2.824   5.116
  623TIP3    H2 1811   5.195   2.914   5.086
  624TIP3   OH2 1812   4.654   3.548   3.604
  624TIP3    H1 1813   4.705   3.593   3.536
  624TIP3    H2 1814   4.717   3.491   3.647
  625TIP3   OH2 1815   1.840   5.431   6.139
  625TIP3    H1 1816   1.877   5.391   6.219
  625TIP3    H2 1817   1.908   5.418   6.073
  626TIP3   OH2 1818   7.107   6.682   6.125
  626TIP3    H1 1819   7.116   6.609   6.186
  626TIP3    H2 1820   7.147   6.756   6.170
  627TIP3   OH2 1821   8.256   4.687   4.681
  627TIP3    H1 1822   8.230   4.605   4.638
  627TIP3    H2 1823   8.237   4.672   4.774
  628TIP3   OH2 1824   3.395   1.676   1.672
  628TIP3    H1 1825   3.335   1.751   1.671
  628TIP3    H2 1826   3.402   1.653   1.764
  629TIP3   OH2 1827   1.586   5.990   4.359
  629TIP3    H1 1828   1.549   5.917   4.409
  629TIP3    H2 1829   1.533   5.994   4.279
  630TIP3   OH2 1830   4.369   1.720   1.854
  630TIP3    H1 1831   4.277   1.730   1.828
  630TIP3    H2 1832   4.376   1.630   1.885
  631TIP3   OH2 1833   5.520   3.973   6.402
  631TIP3    H1 1834   5.571   4.053   6.390
  631TIP3    H2 1835   5.523   3.929   6.317
  632TIP3   OH2 1836   3.159   2.941   4.718
  632TIP3    H1 1837   3.254   2.930   4.729
  632TIP3    H2 1838   3.122   2.858   4.747
  633TIP3   OH2 1839   3.462   7.056   1.681
  633TIP3    H1 1840   3.473   7.007   1.762
  633TIP3    H2 1841   3.504   7.140   1.697
  634TIP3   OH2 1842   8.235   1.631   2.587
  634TIP3    H1 1843   8.214   1.538   2.574
  634TIP3    H2 1844   8.182   1.677   2.522
  635TIP3   OH2 1845   7.855   1.538   2.707
  635TIP3    H1 1846   7.786   1.573   2.763
  635TIP3    H2 1847   7.892   1.614   2.663
  636TIP3   OH2 1848   6.027   4.488   4.462
  636TIP3    H1 1849   5.950   4.543   4.473
  636TIP3    H2 1850   6.040   4.447   4.548
  637TIP3   OH2 1851   0.765   6.428   3.674
  637TIP3    H1 1852   0.852   6.408   3.707
  637TIP3    H2 1853   0.765   6.524   3.665
  638TIP3   OH2 1854   3.530   7.186   0.164
  638TIP3    H1 1855   3.502   7.239   0.239
  638TIP3    H2 1856   3.599   7.238   0.122
  639TIP3   OH2 1857   6.717   1.838   5.030
  639TIP3    H1 1858   6.759   1.922   5.010
  639TIP3    H2 1859   6.789   1.778   5.048
  640TIP3   OH2 1860   1.221   3.383   4.823
  640TIP3    H1 1861   1.289   3.450   4.823
  640TIP3    H2 1862   1.147   3.423   4.777
  641TIP3   OH2 1863   3.981   2.835   5.173
  641TIP3    H1 1864   4.019   2.783   5.244
  641TIP3    H2 1865   4.013   2.924   5.190
  642TIP3   OH2 1866   4.915   7.300   3.156
  642TIP3    H1 1867   4.965   7.293   3.074
  642TIP3    H2 1868   4.953   7.375   3.201
  643TIP3   OH2 1869   6.539   5.342   5.158
  643TIP3    H1 1870   6.524   5.248   5.172
  643TIP3    H2 1871   6.586   5.347   5.075
  644TIP3   OH2 1872   1.267   1.003   5.101
  644TIP3    H1 1873   1.180   0.982   5.068
  644TIP3    H2 1874   1.275   1.097   5.090
  645TIP3   OH2 1875   4.072   5.146   6.168
  645TIP3    H1 1876   3.995   5.181   6.124
  645TIP3    H2 1877   4.071   5.188   6.254
  646TIP3   OH2 1878   1.499   4.235   3.267
  646TIP3    H1 1879   1.545   4.192   3.340
  646TIP3    H2 1880   1.453   4.163   3.223
  647TIP3   OH2 1881   0.751   5.684   4.851
  647TIP3    H1 1882   0.689   5.703   4.781
  647TIP3    H2 1883   0.769   5.591   4.843
  648TIP3   OH2 1884   2.903   1.381   6.832
  648TIP3    H1 1885   2.976   1.404   6.774
  648TIP3    H2 1886   2.942   1.320   6.894
  649TIP3   OH2 1887   5.608   7.136   6.110
  649TIP3    H1 1888   5.558   7.128   6.191
  649TIP3    H2 1889   5.678   7.071   6.118
  650TIP3   OH2 1890   1.708   5.526   0.923
  650TIP3    H1 1891   1.774   5.471   0.881
  650TIP3    H2 1892   1.625   5.481   0.907
  651TIP3   OH2 1893   4.200   0.321   5.984
  651TIP3    H1 1894   4.257   0.276   5.922
  651TIP3    H2 1895   4.129   0.259   6.002
  652TIP3   OH2 1896   2.685   4.064   4.833
  652TIP3    H1 1897   2.615   4.000   4.847
  652TIP3    H2 1898   2.698   4.066   4.739
  653TIP3   OH2 1899   7.492   1.945   5.467
  653TIP3    H1 1900   7.584   1.954   5.442
  653TIP3    H2 1901   7.474   1.851   5.459
  654TIP3   OH2 1902   1.653   7.823   1.549
  654TIP3    H1 1903   1.611   7.907   1.529
  654TIP3    H2 1904   1.744   7.835   1.523
  655TIP3   OH2 1905   6.683   2.319   3.887
  655TIP3    H1 1906   6.702   2.253   3.819
  655TIP3    H2 1907   6.737   2.394   3.863
  656TIP3   OH2 1908   4.357   0.105   0.702
  656TIP3    H1 1909   4.291   0.127   0.768
  656TIP3    H2 1910   4.329   0.150   0.623
  657TIP3   OH2 1911   1.494   2.233   2.851
  657TIP3    H1 1912   1.506   2.158   2.792
  657TIP3    H2 1913   1.457   2.302   2.796
  658TIP3   OH2 1914   5.803   0.036   4.228
  658TIP3    H1 1915   5.720   0.081   4.212
  658TIP3    H2 1916   5.778  -0.053   4.251
  659TIP3   OH2 1917   3.846   4.702   0.094
  659TIP3    H1 1918   3.759   4.719   0.132
  659TIP3    H2 1919   3.864   4.779   0.041
  660TIP3   OH2 1920   4.205   1.443   4.197
  660TIP3    H1 1921   4.149   1.367   4.217
  660TIP3    H2 1922   4.292   1.405   4.182
  661TIP3   OH2 1923   6.393   7.341   1.643
  661TIP3    H1 1924   6.370   7.255   1.611
  661TIP3    H2 1925   6.310   7.380   1.671
  662TIP3   OH2 1926   5.361   1.939   2.312
  662TIP3    H1 1927   5.410   2.012   2.275
  662TIP3    H2 1928   5.416   1.862   2.296
  663TIP3   OH2 1929   0.854   6.920   5.043
  663TIP3    H1 1930   0.937   6.940   5.000
  663TIP3    H2 1931   0.860   6.827   5.066
  664TIP3   OH2 1932   4.317   4.163   2.705
  664TIP3    H1 1933   4.275   4.245   2.732
  664TIP3    H2 1934   4.258   4.094   2.736
  665TIP3   OH2 1935   6.942   2.730   3.083
  665TIP3    H1 1936   7.016   2.720   3.024
  665TIP3    H2 1937   6.868   2.692   3.036
  666TIP3   OH2 1938   6.156   1.235   5.985
  666TIP3    H1 1939   6.193   1.226   5.897
  666TIP3    H2 1940   6.094   1.307   5.978
  667TIP3   OH2 1941   5.764   4.558   4.263
  667TIP3    H1 1942   5.778   4.603   4.179
  667TIP3    H2 1943   5.725   4.625   4.319
  668TIP3   OH2 1944   6.328   3.000   1.831
  668TIP3    H1 1945   6.264   3.070   1.842
  668TIP3    H2 1946   6.344   2.968   1.919
  669TIP3   OH2 1947   2.786   7.567   6.645
  669TIP3    H1 1948   2.836   7.556   6.564
  669TIP3    H2 1949   2.699   7.594   6.617
  670TIP3   OH2 1950   4.086   5.795   3.710
  670TIP3    H1 1951   4.011   5.806   3.769
  670TIP3    H2 1952   4.050   5.755   3.632
  671TIP3   OH2 1953   7.084   5.970   1.648
  671TIP3    H1 1954   7.022   5.947   1.579
  671TIP3    H2 1955   7.151   6.022   1.604
  672TIP3   OH2 1956   0.388   3.631   5.008
  672TIP3    H1 1957   0.300   3.666   4.997
  672TIP3    H2 1958   0.390   3.597   5.098
  673TIP3   OH2 1959   6.039   4.365   3.416
  673TIP3    H1 1960   6.022   4.274   3.391
  673TIP3    H2 1961   6.023   4.415   3.336
  674TIP3   OH2 1962   4.319   6.125   0.816
  674TIP3    H1 1963   4.252   6.066   0.849
  674TIP3    H2 1964   4.335   6.095   0.726
  675TIP3   OH2 1965   5.783   5.668   6.721
  675TIP3    H1 1966   5.760   5.649   6.812
  675TIP3    H2 1967   5.759   5.760   6.709
  676TIP3   OH2 1968   6.196   7.764   1.987
  676TIP3    H1 1969   6.262   7.737   1.923
  676TIP3    H2 1970   6.207   7.859   1.994
  677TIP3   OH2 1971   0.701   7.498   6.537
  677TIP3    H1 1972   0.733   7.445   6.464
  677TIP3    H2 1973   0.707   7.440   6.613
  678TIP3   OH2 1974   6.899   3.208   0.450
  678TIP3    H1 1975   6.808   3.218   0.478
  678TIP3    H2 1976   6.950   3.245   0.522
  679TIP3   OH2 1977   0.910   5.581   5.587
  679TIP3    H1 1978   0.824   5.603   5.551
  679TIP3    H2 1979   0.892   5.512   5.652
  680TIP3   OH2 1980   1.485   7.619   3.858
  680TIP3    H1 1981   1.446   7.703   3.883
  680TIP3    H2 1982   1.451   7.602   3.770
  681TIP3   OH2 1983   0.871   6.945   5.951
  681TIP3    H1 1984   0.880   6.912   6.040
  681TIP3    H2 1985   0.874   6.866   5.896
  682TIP3   OH2 1986   4.093   6.157   3.725
  682TIP3    H1 1987   4.077   6.093   3.795
  682TIP3    H2 1988   4.085   6.106   3.644
  683TIP3   OH2 1989   0.512   0.193   5.717
  683TIP3    H1 1990   0.460   0.157   5.645
  683TIP3    H2 1991   0.524   0.119   5.777
  684TIP3   OH2 1992   0.242   0.774   1.362
  684TIP3    H1 1993   0.163   0.721   1.370
  684TIP3    H2 1994   0.261   0.775   1.268
  685TIP3   OH2 1995   5.482   4.356   5.295
  685TIP3    H1 1996   5.387   4.354   5.293
  685TIP3    H2 1997   5.507   4.277   5.344
  686TIP3   OH2 1998   0.165   0.052   2.842
  686TIP3    H1 1999   0.196  -0.039   2.853
  686TIP3    H2 2000   0.244   0.105   2.849
  687TIP3   OH2 2001   8.208   7.660   1.554
  687TIP3    H1 2002   8.135   7.648   1.616
  687TIP3    H2 2003   8.241   7.748   1.574
  688TIP3   OH2 2004   5.343   4.849   6.396
  688TIP3    H1 2005   5.385   4.936   6.395
  688TIP3    H2 2006   5.279   4.853   6.326
  689TIP3   OH2 2007   6.251   6.683   1.277
  689TIP3    H1 2008   6.285   6.597   1.254
  689TIP3    H2 2009   6.217   6.672   1.366
  690TIP3   OH2 2010   1.429   1.658   4.509
  690TIP3    H1 2011   1.458   1.586   4.566
  690TIP3    H2 2012   1.507   1.711   4.496
  691TIP3   OH2 2013   4.480   4.647   1.723
  691TIP3    H1 2014   4.388   4.621   1.721
  691TIP3    H2 2015   4.482   4.726   1.776
  692TIP3   OH2 2016   7.735   1.107   3.458
  692TIP3    H1 2017   7.680   1.029   3.462
  692TIP3    H2 2018   7.792   1.092   3.382
  693TIP3   OH2 2019   1.068   1.512   1.441
  693TIP3    H1 2020   1.017   1.438   1.473
  693TIP3    H2 2021   1.159   1.482   1.444
  694TIP3   OH2 2022   6.377   3.649   5.712
  694TIP3    H1 2023   6.324   3.678   5.638
  694TIP3    H2 2024   6.431   3.725   5.734
  695TIP3   OH2 2025   3.141   7.666   3.009
  695TIP3    H1 2026   3.192   7.585   3.001
  695TIP3    H2 2027   3.187   7.717   3.075
  696TIP3   OH2 2028   3.693   2.969   5.736
  696TIP3    H1 2029   3.658   3.040   5.683
  696TIP3    H2 2030   3.717   2.901   5.673
  697TIP3   OH2 2031   0.025   6.475   2.001
  697TIP3    H1 2032   0.090   6.450   1.935
  697TIP3    H2 2033   0.029   6.406   2.066
  698TIP3   OH2 2034   8.217   7.386   1.669
  698TIP3    H1 2035   8.138   7.439   1.660
  698TIP3    H2 2036   8.193   7.300   1.635
  699TIP3   OH2 2037   7.237   5.144   2.781
  699TIP3    H1 2038   7.217   5.194   2.860
  699TIP3    H2 2039   7.190   5.061   2.793
  700TIP3   OH2 2040   6.329   1.604   2.155
  700TIP3    H1 2041   6.241   1.619   2.121
  700TIP3    H2 2042   6.349   1.683   2.206
  701TIP3   OH2 2043   2.301   4.020   4.320
  701TIP3    H1 2044   2.383   3.973   4.338
  701TIP3    H2 2045   2.326   4.091   4.262
  702TIP3   OH2 2046   6.230   3.936   2.924
  702TIP3    H1 2047   6.287   3.955   2.850
  702TIP3    H2 2048   6.226   3.840   2.927
  703TIP3   OH2 2049   8.408   6.251   2.648
  703TIP3    H1 2050   8.336   6.306   2.618
  703TIP3    H2 2051   8.405   6.175   2.590
  704TIP3   OH2 2052   6.970   3.765   4.793
  704TIP3    H1 2053   6.970   3.856   4.763
  704TIP3    H2 2054   7.045   3.759   4.852
  705TIP3   OH2 2055   7.538   3.625   4.060
  705TIP3    H1 2056   7.563   3.567   4.132
  705TIP3    H2 2057   7.512   3.707   4.102
  706TIP3   OH2 2058   7.670   1.333   5.336
  706TIP3    H1 2059   7.744   1.392   5.321
  706TIP3    H2 2060   7.690   1.256   5.283
  707TIP3   OH2 2061   0.055   1.821   3.389
  707TIP3    H1 2062   0.135   1.806   3.439
  707TIP3    H2 2063  -0.013   1.829   3.456
  708TIP3   OH2 2064   5.489   5.499   0.684
  708TIP3    H1 2065   5.479   5.404   0.694
  708TIP3    H2 2066   5.583   5.512   0.672
  709TIP3   OH2 2067   6.922   0.856   0.290
  709TIP3    H1 2068   6.944   0.770   0.327
  709TIP3    H2 2069   6.980   0.865   0.215
  710TIP3   OH2 2070   0.017   3.678   5.893
  710TIP3    H1 2071  -0.002   3.681   5.986
  710TIP3    H2 2072   0.091   3.737   5.881
  711TIP3   OH2 2073   7.821   6.534   6.228
  711TIP3    H1 2074   7.763   6.511   6.155
  711TIP3    H2 2075   7.891   6.585   6.188
  712TIP3   OH2 2076   4.881   3.997   4.369
  712TIP3    H1 2077   4.883   4.075   4.424
  712TIP3    H2 2078   4.798   3.954   4.392
  713TIP3   OH2 2079   8.148   7.711   6.521
  713TIP3    H1 2080   8.153   7.634   6.463
  713TIP3    H2 2081   8.114   7.676   6.603
  714TIP3   OH2 2082   0.803   3.263   4.695
  714TIP3    H1 2083   0.746   3.188   4.709
  714TIP3    H2 2084   0.780   3.324   4.766
  715TIP3   OH2 2085   2.312   3.312   5.256
  715TIP3    H1 2086   2.347   3.291   5.169
  715TIP3    H2 2087   2.243   3.376   5.239
  716TIP3   OH2 2088   7.839   1.973   6.252
  716TIP3    H1 2089   7.902   2.030   6.297
  716TIP3    H2 2090   7.758   2.023   6.251
  717TIP3   OH2 2091   5.559   5.336   4.222
  717TIP3    H1 2092   5.542   5.326   4.316
  717TIP3    H2 2093   5.527   5.423   4.201
  718TIP3   OH2 2094   4.158   4.036   6.560
  718TIP3    H1 2095   4.119   4.076   6.482
  718TIP3    H2 2096   4.148   4.102   6.629
  719TIP3   OH2 2097   7.437   4.671   4.219
  719TIP3    H1 2098   7.461   4.706   4.305
  719TIP3    H2 2099   7.520   4.665   4.171
  720TIP3   OH2 2100   3.060   2.174   3.343
  720TIP3    H1 2101   3.034   2.159   3.434
  720TIP3    H2 2102   3.027   2.097   3.296
  721TIP3   OH2 2103   2.176   1.451   6.322
  721TIP3    H1 2104   2.180   1.383   6.390
  721TIP3    H2 2105   2.088   1.487   6.329
  722TIP3   OH2 2106   5.135   2.242   2.724
  722TIP3    H1 2107   5.040   2.251   2.725
  722TIP3    H2 2108   5.151   2.152   2.695
  723TIP3   OH2 2109   0.357   1.814   5.771
  723TIP3    H1 2110   0.271   1.857   5.776
  723TIP3    H2 2111   0.339   1.724   5.795
  724TIP3   OH2 2112   0.406   0.772   1.608
  724TIP3    H1 2113   0.338   0.751   1.543
  724TIP3    H2 2114   0.411   0.868   1.608
  725TIP3   OH2 2115   0.879   3.040   5.106
  725TIP3    H1 2116   0.955   3.097   5.121
  725TIP3    H2 2117   0.829   3.046   5.188
  726TIP3   OH2 2118   3.846   4.119   5.850
  726TIP3    H1 2119   3.937   4.104   5.825
  726TIP3    H2 2120   3.850   4.138   5.944
  727TIP3   OH2 2121   3.543   0.015   5.496
  727TIP3    H1 2122   3.618   0.060   5.534
  727TIP3    H2 2123   3.511   0.073   5.427
  728TIP3   OH2 2124   2.853   0.071   2.390
  728TIP3    H1 2125   2.925   0.032   2.341
  728TIP3    H2 2126   2.883   0.073   2.481
  729TIP3   OH2 2127   1.073   4.410   1.239
  729TIP3    H1 2128   1.167   4.426   1.232
  729TIP3    H2 2129   1.034   4.498   1.246
  730TIP3   OH2 2130   3.762   4.975   3.869
  730TIP3    H1 2131   3.791   5.066   3.873
  730TIP3    H2 2132   3.727   4.958   3.956
  731TIP3   OH2 2133   8.390   4.411   2.234
  731TIP3    H1 2134   8.371   4.459   2.315
  731TIP3    H2 2135   8.408   4.321   2.263
  732TIP3   OH2 2136   1.246   2.961   2.193
  732TIP3    H1 2137   1.302   2.896   2.151
  732TIP3    H2 2138   1.169   2.965   2.136
  733TIP3   OH2 2139   0.121   0.592   1.184
  733TIP3    H1 2140   0.048   0.546   1.141
  733TIP3    H2 2141   0.196   0.534   1.173
  734TIP3   OH2 2142   3.270   7.262   3.365
  734TIP3    H1 2143   3.187   7.224   3.392
  734TIP3    H2 2144   3.261   7.356   3.384
  735TIP3   OH2 2145   2.929   4.978   1.363
  735TIP3    H1 2146   2.942   5.064   1.402
  735TIP3    H2 2147   2.940   4.991   1.269
  736TIP3   OH2 2148   6.768   4.943   5.404
  736TIP3    H1 2149   6.808   5.029   5.394
  736TIP3    H2 2150   6.830   4.883   5.360
  737TIP3   OH2 2151   5.080   3.490   3.039
  737TIP3    H1 2152   4.989   3.472   3.015
  737TIP3    H2 2153   5.112   3.408   3.077
  738TIP3   OH2 2154   1.821   5.781   3.107
  738TIP3    H1 2155   1.877   5.826   3.170
  738TIP3    H2 2156   1.849   5.815   3.022
  739TIP3   OH2 2157   4.762   0.507   5.514
  739TIP3    H1 2158   4.844   0.532   5.472
  739TIP3    H2 2159   4.697   0.509   5.443
  740TIP3   OH2 2160   1.385   0.726   6.188
  740TIP3    H1 2161   1.394   0.794   6.254
  740TIP3    H2 2162   1.458   0.667   6.204
  741TIP3   OH2 2163   1.400   6.204   0.314
  741TIP3    H1 2164   1.444   6.123   0.339
  741TIP3    H2 2165   1.443   6.231   0.233
  742TIP3   OH2 2166   0.156   5.677   4.889
  742TIP3    H1 2167   0.193   5.761   4.918
  742TIP3    H2 2168   0.199   5.612   4.943
  743TIP3   OH2 2169   6.908   7.627   0.696
  743TIP3    H1 2170   6.877   7.574   0.622
  743TIP3    H2 2171   6.852   7.601   0.769
  744TIP3   OH2 2172   6.944   1.068   1.127
  744TIP3    H1 2173   6.978   1.137   1.070
  744TIP3    H2 2174   6.911   1.115   1.204
  745TIP3   OH2 2175   3.659   1.837   1.200
  745TIP3    H1 2176   3.700   1.792   1.126
  745TIP3    H2 2177   3.721   1.827   1.272
  746TIP3   OH2 2178   7.085   4.220   4.495
  746TIP3    H1 2179   7.070   4.278   4.421
  746TIP3    H2 2180   7.180   4.220   4.507
  747TIP3   OH2 2181   3.813   4.077   2.584
  747TIP3    H1 2182   3.782   4.007   2.526
  747TIP3    H2 2183   3.882   4.036   2.636
  748TIP3   OH2 2184   7.591   0.382   2.574
  748TIP3    H1 2185   7.657   0.430   2.624
  748TIP3    H2 2186   7.634   0.299   2.552
  749TIP3   OH2 2187   2.287   1.738   2.977
  749TIP3    H1 2188   2.367   1.717   3.024
  749TIP3    H2 2189   2.295   1.831   2.956
  750TIP3   OH2 2190   0.710   6.473   6.793
  750TIP3    H1 2191   0.637   6.534   6.800
  750TIP3    H2 2192   0.727   6.445   6.883
  751TIP3   OH2 2193   5.967   7.629   1.888
  751TIP3    H1 2194   6.040   7.683   1.919
  751TIP3    H2 2195   5.919   7.686   1.828
  752TIP3   OH2 2196   4.520   3.409   2.693
  752TIP3    H1 2197   4.436   3.441   2.661
  752TIP3    H2 2198   4.532   3.325   2.649
  753TIP3   OH2 2199   6.876   1.521   3.781
  753TIP3    H1 2200   6.798   1.557   3.824
  753TIP3    H2 2201   6.851   1.431   3.760
  754TIP3   OH2 2202   6.285   0.486   5.346
  754TIP3    H1 2203   6.203   0.533   5.360
  754TIP3    H2 2204   6.309   0.452   5.433
  755TIP3   OH2 2205   7.669   1.733   4.216
  755TIP3    H1 2206   7.751   1.710   4.173
  755TIP3    H2 2207   7.616   1.654   4.211
  756TIP3   OH2 2208   7.333   7.823   3.084
  756TIP3    H1 2209   7.338   7.831   2.989
  756TIP3    H2 2210   7.308   7.911   3.114
  757TIP3   OH2 2211   4.879   4.760   5.248
  757TIP3    H1 2212   4.946   4.765   5.317
  757TIP3    H2 2213   4.808   4.711   5.287
  758TIP3   OH2 2214   0.589   1.988   3.839
  758TIP3    H1 2215   0.601   1.897   3.815
  758TIP3    H2 2216   0.666   2.009   3.893
  759TIP3   OH2 2217   2.373   2.504   2.917
  759TIP3    H1 2218   2.434   2.549   2.976
  759TIP3    H2 2219   2.430   2.455   2.858
  760TIP3   OH2 2220   5.420   6.069   3.533
  760TIP3    H1 2221   5.327   6.065   3.553
  760TIP3    H2 2222   5.441   6.162   3.529
  761TIP3   OH2 2223   3.917   3.231   2.761
  761TIP3    H1 2224   3.898   3.305   2.818
  761TIP3    H2 2225   3.875   3.253   2.678
  762TIP3   OH2 2226   2.697   3.449   4.734
  762TIP3    H1 2227   2.606   3.460   4.707
  762TIP3    H2 2228   2.705   3.355   4.753
  763TIP3   OH2 2229   2.275   4.597   0.412
  763TIP3    H1 2230   2.300   4.599   0.504
  763TIP3    H2 2231   2.310   4.514   0.379
  764TIP3   OH2 2232   2.615   0.040   5.502
  764TIP3    H1 2233   2.531   0.012   5.538
  764TIP3    H2 2234   2.604   0.031   5.407
  765TIP3   OH2 2235   1.772   7.316   5.256
  765TIP3    H1 2236   1.742   7.403   5.280
  765TIP3    H2 2237   1.801   7.324   5.165
  766TIP3   OH2 2238   5.086   6.509   1.473
  766TIP3    H1 2239   4.991   6.499   1.475
  766TIP3    H2 2240   5.103   6.587   1.526
  767TIP3   OH2 2241   1.944   2.677   3.112
  767TIP3    H1 2242   1.878   2.721   3.059
  767TIP3    H2 2243   1.961   2.595   3.067
  768TIP3   OH2 2244   4.867   1.511   3.155
  768TIP3    H1 2245   4.850   1.605   3.155
  768TIP3    H2 2246   4.811   1.477   3.225
  769TIP3   OH2 2247   1.046   0.347   5.118
  769TIP3    H1 2248   0.983   0.275   5.115
  769TIP3    H2 2249   1.036   0.383   5.207
  770TIP3   OH2 2250   6.095   2.567   3.588
  770TIP3    H1 2251   6.003   2.543   3.573
  770TIP3    H2 2252   6.093   2.619   3.668
  771TIP3   OH2 2253   7.000   0.464   4.767
  771TIP3    H1 2254   7.090   0.442   4.792
  771TIP3    H2 2255   6.990   0.556   4.792
  772TIP3   OH2 2256   1.676   1.538   4.033
  772TIP3    H1 2257   1.671   1.523   4.128
  772TIP3    H2 2258   1.768   1.526   4.011
  773TIP3   OH2 2259   1.500   7.386   0.466
  773TIP3    H1 2260   1.443   7.446   0.514
  773TIP3    H2 2261   1.443   7.347   0.399
  774TIP3   OH2 2262   3.844   3.703   1.334
  774TIP3    H1 2263   3.862   3.648   1.258
  774TIP3    H2 2264   3.756   3.678   1.362
  775TIP3   OH2 2265   1.156   6.248   1.694
  775TIP3    H1 2266   1.226   6.230   1.631
  775TIP3    H2 2267   1.092   6.177   1.680
  776TIP3   OH2 2268   7.010   6.700   0.201
  776TIP3    H1 2269   6.958   6.753   0.261
  776TIP3    H2 2270   6.980   6.611   0.214
  777TIP3   OH2 2271   4.714   4.176   5.138
  777TIP3    H1 2272   4.746   4.142   5.054
  777TIP3    H2 2273   4.771   4.135   5.203
  778TIP3   OH2 2274   2.059   5.703   1.456
  778TIP3    H1 2275   2.003   5.632   1.488
  778TIP3    H2 2276   2.001   5.757   1.402
  779TIP3   OH2 2277   8.209   4.775   2.521
  779TIP3    H1 2278   8.217   4.871   2.527
  779TIP3    H2 2279   8.116   4.760   2.505
  780TIP3   OH2 2280   5.878   5.355   1.642
  780TIP3    H1 2281   5.875   5.265   1.610
  780TIP3    H2 2282   5.791   5.369   1.681
  781TIP3   OH2 2283   0.099   0.438   5.164
  781TIP3    H1 2284   0.151   0.361   5.144
  781TIP3    H2 2285   0.020   0.404   5.206
  782TIP3   OH2 2286   0.033   0.658   3.013
  782TIP3    H1 2287  -0.026   0.596   3.055
  782TIP3    H2 2288  -0.002   0.668   2.924
  783TIP3   OH2 2289   1.082   2.766   6.667
  783TIP3    H1 2290   1.097   2.804   6.580
  783TIP3    H2 2291   0.989   2.778   6.684
  784TIP3   OH2 2292   7.579   4.817   3.355
  784TIP3    H1 2293   7.671   4.793   3.344
  784TIP3    H2 2294   7.564   4.887   3.291
  785TIP3   OH2 2295   0.058   4.858   6.586
  785TIP3    H1 2296  -0.013   4.817   6.538
  785TIP3    H2 2297   0.136   4.807   6.563
  786TIP3   OH2 2298   4.088   6.770   2.450
  786TIP3    H1 2299   4.177   6.803   2.460
  786TIP3    H2 2300   4.049   6.779   2.537
  787TIP3   OH2 2301   3.170   1.744   2.909
  787TIP3    H1 2302   3.076   1.741   2.928
  787TIP3    H2 2303   3.196   1.832   2.936
  788TIP3   OH2 2304   0.487   6.285   5.318
  788TIP3    H1 2305   0.496   6.190   5.326
  788TIP3    H2 2306   0.503   6.303   5.225
  789TIP3   OH2 2307   2.154   2.042   5.756
  789TIP3    H1 2308   2.244   2.018   5.778
  789TIP3    H2 2309   2.123   1.972   5.699
  790TIP3   OH2 2310   3.085   4.796   5.408
  790TIP3    H1 2311   3.020   4.727   5.420
  790TIP3    H2 2312   3.137   4.767   5.333
  791TIP3   OH2 2313   5.590   6.357   1.789
  791TIP3    H1 2314   5.514   6.415   1.799
  791TIP3    H2 2315   5.665   6.416   1.792
  792TIP3   OH2 2316   6.589   4.857   2.220
  792TIP3    H1 2317   6.556   4.867   2.309
  792TIP3    H2 2318   6.510   4.863   2.165
  793TIP3   OH2 2319   4.594   4.517   3.330
  793TIP3    H1 2320   4.545   4.435   3.322
  793TIP3    H2 2321   4.630   4.532   3.242
  794TIP3   OH2 2322   0.493   4.685   3.020
  794TIP3    H1 2323   0.575   4.665   2.976
  794TIP3    H2 2324   0.519   4.715   3.107
  795TIP3   OH2 2325   5.884   5.096   1.576
  795TIP3    H1 2326   5.816   5.031   1.556
  795TIP3    H2 2327   5.912   5.127   1.490
  796TIP3   OH2 2328   0.529   1.244   2.940
  796TIP3    H1 2329   0.448   1.279   2.903
  796TIP3    H2 2330   0.544   1.296   3.018
  797TIP3   OH2 2331   4.971   2.436   0.605
  797TIP3    H1 2332   4.961   2.381   0.683
  797TIP3    H2 2333   4.883   2.467   0.586
  798TIP3   OH2 2334   8.245   4.984   5.508
  798TIP3    H1 2335   8.203   4.898   5.508
  798TIP3    H2 2336   8.298   4.985   5.428
  799TIP3   OH2 2337   5.488   6.892   5.680
  799TIP3    H1 2338   5.396   6.895   5.708
  799TIP3    H2 2339   5.484   6.887   5.585
  800TIP3   OH2 2340   0.844   4.296   5.184
  800TIP3    H1 2341   0.861   4.350   5.106
  800TIP3    H2 2342   0.917   4.234   5.186
  801TIP3   OH2 2343   6.070   6.090   0.384
  801TIP3    H1 2344   6.122   6.023   0.428
  801TIP3    H2 2345   6.077   6.167   0.440
  802TIP3   OH2 2346   3.917   5.803   5.615
  802TIP3    H1 2347   3.868   5.766   5.541
  802TIP3    H2 2348   3.863   5.784   5.691
  803TIP3   OH2 2349   4.781   0.975   0.770
  803TIP3    H1 2350   4.876   0.972   0.765
  803TIP3    H2 2351   4.751   0.917   0.699
  804TIP3   OH2 2352   6.803   2.553   1.505
  804TIP3    H1 2353   6.754   2.495   1.562
  804TIP3    H2 2354   6.792   2.516   1.417
  805TIP3   OH2 2355   3.893   5.987   1.950
  805TIP3    H1 2356   3.800   5.979   1.932
  805TIP3    H2 2357   3.932   5.906   1.918
  806TIP3   OH2 2358   6.474   6.690   0.922
  806TIP3    H1 2359   6.494   6.600   0.897
  806TIP3    H2 2360   6.465   6.687   1.017
  807TIP3   OH2 2361   2.502   0.382   2.194
  807TIP3    H1 2362   2.502   0.390   2.099
  807TIP3    H2 2363   2.514   0.289   2.211
  808TIP3   OH2 2364   6.690   3.242   6.736
  808TIP3    H1 2365   6.747   3.246   6.659
  808TIP3    H2 2366   6.624   3.310   6.720
  809TIP3   OH2 2367   5.337   6.286   2.531
  809TIP3    H1 2368   5.315   6.216   2.593
  809TIP3    H2 2369   5.350   6.241   2.448
  810TIP3   OH2 2370   7.266   3.854   5.635
  810TIP3    H1 2371   7.188   3.873   5.582
  810TIP3    H2 2372   7.257   3.909   5.712
  811TIP3   OH2 2373   4.892   0.837   6.168
  811TIP3    H1 2374   4.934   0.884   6.096
  811TIP3    H2 2375   4.838   0.903   6.212
  812TIP3   OH2 2376   3.711   3.598   5.111
  812TIP3    H1 2377   3.730   3.594   5.017
  812TIP3    H2 2378   3.706   3.506   5.137
  813TIP3   OH2 2379   2.050   1.439   2.454
  813TIP3    H1 2380   1.982   1.405   2.512
  813TIP3    H2 2381   2.003   1.470   2.377
  814TIP3   OH2 2382   7.705   6.014   5.176
  814TIP3    H1 2383   7.625   5.979   5.215
  814TIP3    H2 2384   7.675   6.061   5.098
  815TIP3   OH2 2385   3.351   6.420   6.695
  815TIP3    H1 2386   3.327   6.431   6.787
  815TIP3    H2 2387   3.269   6.391   6.653
  816TIP3   OH2 2388   0.045   5.528   3.093
  816TIP3    H1 2389   0.061   5.572   3.177
  816TIP3    H2 2390   0.053   5.596   3.027
  817TIP3   OH2 2391   3.137   2.416   2.257
  817TIP3    H1 2392   3.083   2.447   2.185
  817TIP3    H2 2393   3.080   2.357   2.306
  818TIP3   OH2 2394   5.805   5.031   2.649
  818TIP3    H1 2395   5.845   4.949   2.677
  818TIP3    H2 2396   5.747   5.006   2.577
  819TIP3   OH2 2397   3.873   1.107   5.012
  819TIP3    H1 2398   3.837   1.088   4.926
  819TIP3    H2 2399   3.901   1.022   5.046
  820TIP3   OH2 2400   3.599   2.082   1.300
  820TIP3    H1 2401   3.613   2.006   1.244
  820TIP3    H2 2402   3.562   2.046   1.380
  821TIP3   OH2 2403   3.777   0.760  -0.004
  821TIP3    H1 2404   3.855   0.752   0.050
  821TIP3    H2 2405   3.756   0.670  -0.031
  822TIP3   OH2 2406   1.995   2.402   6.343
  822TIP3    H1 2407   2.009   2.378   6.435
  822TIP3    H2 2408   1.917   2.354   6.317
  823TIP3   OH2 2409   7.823   1.710   1.317
  823TIP3    H1 2410   7.803   1.692   1.225
  823TIP3    H2 2411   7.825   1.624   1.359
  824TIP3   OH2 2412   4.709   6.712   3.702
  824TIP3    H1 2413   4.742   6.772   3.770
  824TIP3    H2 2414   4.761   6.632   3.713
  825TIP3   OH2 2415   7.248   7.105   3.317
  825TIP3    H1 2416   7.333   7.148   3.316
  825TIP3    H2 2417   7.194   7.162   3.373
  826TIP3   OH2 2418   5.830   6.388   4.511
  826TIP3    H1 2419   5.857   6.302   4.480
  826TIP3    H2 2420   5.737   6.394   4.489
  827TIP3   OH2 2421   1.567   1.188   4.946
  827TIP3    H1 2422   1.657   1.221   4.939
  827TIP3    H2 2423   1.543   1.164   4.857
  828TIP3   OH2 2424   7.847   6.715   4.603
  828TIP3    H1 2425   7.849   6.729   4.698
  828TIP3    H2 2426   7.891   6.792   4.566
  829TIP3   OH2 2427   4.796   1.654   1.750
  829TIP3    H1 2428   4.773   1.737   1.710
  829TIP3    H2 2429   4.855   1.678   1.822
  830TIP3   OH2 2430   8.402   1.378   5.025
  830TIP3    H1 2431   8.311   1.408   5.019
  830TIP3    H2 2432   8.454   1.458   5.025
  831TIP3   OH2 2433   7.231   1.008   1.573
  831TIP3    H1 2434   7.301   0.943   1.564
  831TIP3    H2 2435   7.240   1.064   1.496
  832TIP3   OH2 2436   4.994   5.281   2.348
  832TIP3    H1 2437   4.936   5.356   2.334
  832TIP3    H2 2438   4.935   5.207   2.361
  833TIP3   OH2 2439   3.036   4.079   5.655
  833TIP3    H1 2440   3.086   4.058   5.734
  833TIP3    H2 2441   2.992   3.997   5.632
  834TIP3   OH2 2442   8.160   7.352   0.310
  834TIP3    H1 2443   8.117   7.283   0.258
  834TIP3    H2 2444   8.253   7.339   0.294
  835TIP3   OH2 2445   2.849   4.655   4.736
  835TIP3    H1 2446   2.852   4.571   4.691
  835TIP3    H2 2447   2.924   4.654   4.795
  836TIP3   OH2 2448   0.845   5.304   1.933
  836TIP3    H1 2449   0.830   5.233   1.995
  836TIP3    H2 2450   0.897   5.368   1.983
  837TIP3   OH2 2451   5.562   0.686   6.360
  837TIP3    H1 2452   5.498   0.628   6.319
  837TIP3    H2 2453   5.510   0.736   6.424
  838TIP3   OH2 2454   5.398   5.112   6.211
  838TIP3    H1 2455   5.447   5.189   6.182
  838TIP3    H2 2456   5.450   5.037   6.183
  839TIP3   OH2 2457   7.585   2.039   2.750
  839TIP3    H1 2458   7.630   2.113   2.710
  839TIP3    H2 2459   7.650   2.002   2.811
  840TIP3   OH2 2460   7.886   6.760   6.459
  840TIP3    H1 2461   7.881   6.665   6.467
  840TIP3    H2 2462   7.932   6.788   6.538
  841TIP3   OH2 2463   5.815   2.219   2.115
  841TIP3    H1 2464   5.792   2.126   2.110
  841TIP3    H2 2465   5.852   2.229   2.203
  842TIP3   OH2 2466   3.888   5.158   4.138
  842TIP3    H1 2467   3.850   5.206   4.065
  842TIP3    H2 2468   3.838   5.076   4.141
  843TIP3   OH2 2469   4.665   4.482   0.966
  843TIP3    H1 2470   4.672   4.387   0.970
  843TIP3    H2 2471   4.612   4.499   0.887
  844TIP3   OH2 2472   6.835   3.209   0.950
  844TIP3    H1 2473   6.810   3.231   0.860
  844TIP3    H2 2474   6.895   3.135   0.942
  845TIP3   OH2 2475   6.756   4.823   1.312
  845TIP3    H1 2476   6.796   4.765   1.247
  845TIP3    H2 2477   6.765   4.910   1.274
  846TIP3   OH2 2478   4.355   0.217   5.794
  846TIP3    H1 2479   4.378   0.247   5.706
  846TIP3    H2 2480   4.439   0.188   5.831
  847TIP3   OH2 2481   3.431   2.788   4.722
  847TIP3    H1 2482   3.501   2.827   4.774
  847TIP3    H2 2483   3.418   2.850   4.650
  848TIP3   OH2 2484   3.030   0.377   5.211
  848TIP3    H1 2485   2.961   0.435   5.178
  848TIP3    H2 2486   2.990   0.333   5.286
  849TIP3   OH2 2487   4.697   2.030   6.579
  849TIP3    H1 2488   4.658   1.943   6.575
  849TIP3    H2 2489   4.721   2.050   6.488
  850TIP3   OH2 2490   1.629   6.223   0.975
  850TIP3    H1 2491   1.588   6.258   1.054
  850TIP3    H2 2492   1.559   6.221   0.910
  851TIP3   OH2 2493   0.816   6.407   5.192
  851TIP3    H1 2494   0.739   6.367   5.152
  851TIP3    H2 2495   0.819   6.370   5.280
  852TIP3   OH2 2496   5.949   6.429   2.976
  852TIP3    H1 2497   6.026   6.405   2.926
  852TIP3    H2 2498   5.983   6.465   3.058
  853TIP3   OH2 2499   2.704   6.012   0.133
  853TIP3    H1 2500   2.733   6.059   0.054
  853TIP3    H2 2501   2.748   5.928   0.128
  854TIP3   OH2 2502   1.196   7.161   5.215
  854TIP3    H1 2503   1.283   7.196   5.194
  854TIP3    H2 2504   1.135   7.222   5.173
  855TIP3   OH2 2505   6.329   2.447   4.314
  855TIP3    H1 2506   6.327   2.363   4.360
  855TIP3    H2 2507   6.392   2.434   4.243
  856TIP3   OH2 2508   8.228   5.381   6.196
  856TIP3    H1 2509   8.308   5.413   6.238
  856TIP3    H2 2510   8.184   5.331   6.264
  857TIP3   OH2 2511   8.176   0.601   6.864
  857TIP3    H1 2512   8.257   0.610   6.914
  857TIP3    H2 2513   8.203   0.564   6.780
  858TIP3   OH2 2514   6.708   2.139   4.108
  858TIP3    H1 2515   6.659   2.187   4.041
  858TIP3    H2 2516   6.750   2.067   4.061
  859TIP3   OH2 2517   2.783   0.772   1.360
  859TIP3    H1 2518   2.771   0.866   1.350
  859TIP3    H2 2519   2.699   0.734   1.334
  860TIP3   OH2 2520   5.575   2.346   0.447
  860TIP3    H1 2521   5.512   2.384   0.508
  860TIP3    H2 2522   5.631   2.420   0.421
  861TIP3   OH2 2523   0.735   2.342   3.351
  861TIP3    H1 2524   0.694   2.321   3.435
  861TIP3    H2 2525   0.665   2.331   3.286
  862TIP3   OH2 2526   4.261   0.165   4.952
  862TIP3    H1 2527   4.216   0.170   4.867
  862TIP3    H2 2528   4.300   0.077   4.952
  863TIP3   OH2 2529   1.193   1.962   1.686
  863TIP3    H1 2530   1.182   1.981   1.593
  863TIP3    H2 2531   1.154   2.037   1.730
  864TIP3   OH2 2532   0.051   0.733   4.361
  864TIP3    H1 2533  -0.007   0.758   4.433
  864TIP3    H2 2534  -0.007   0.693   4.296
  865TIP3   OH2 2535   1.500   7.288   3.350
  865TIP3    H1 2536   1.486   7.380   3.371
  865TIP3    H2 2537   1.499   7.244   3.435
  866TIP3   OH2 2538   4.365   4.590   1.025
  866TIP3    H1 2539   4.415   4.659   0.981
  866TIP3    H2 2540   4.281   4.630   1.044
  867TIP3   OH2 2541   4.686   2.266   2.101
  867TIP3    H1 2542   4.754   2.276   2.167
  867TIP3    H2 2543   4.605   2.255   2.151
  868TIP3   OH2 2544   2.744   4.436   4.620
  868TIP3    H1 2545   2.734   4.351   4.577
  868TIP3    H2 2546   2.733   4.500   4.550
  869TIP3   OH2 2547   8.137   6.213   0.221
  869TIP3    H1 2548   8.141   6.132   0.272
  869TIP3    H2 2549   8.199   6.271   0.264
  870TIP3   OH2 2550   6.331   4.410   0.463
  870TIP3    H1 2551   6.274   4.394   0.388
  870TIP3    H2 2552   6.387   4.331   0.467
  871TIP3   OH2 2553   5.983   6.018   2.768
  871TIP3    H1 2554   5.894   5.984   2.766
  871TIP3    H2 2555   6.021   5.982   2.848
  872TIP3   OH2 2556   5.280   1.445   2.832
  872TIP3    H1 2557   5.355   1.502   2.849
  872TIP3    H2 2558   5.208   1.505   2.815
  873TIP3   OH2 2559   3.637   1.679   6.833
  873TIP3    H1 2560   3.611   1.770   6.847
  873TIP3    H2 2561   3.565   1.641   6.782
  874TIP3   OH2 2562   2.249   7.020   1.569
  874TIP3    H1 2563   2.245   7.062   1.655
  874TIP3    H2 2564   2.175   6.960   1.568
  875TIP3   OH2 2565   1.543   6.798   0.750
  875TIP3    H1 2566   1.522   6.847   0.829
  875TIP3    H2 2567   1.633   6.821   0.729
  876TIP3   OH2 2568   3.495   7.759   2.990
  876TIP3    H1 2569   3.548   7.808   3.054
  876TIP3    H2 2570   3.508   7.667   3.013
  877TIP3   OH2 2571   1.980   4.725   4.886
  877TIP3    H1 2572   2.034   4.701   4.961
  877TIP3    H2 2573   1.978   4.821   4.888
  878TIP3   OH2 2574   4.671   1.043   1.038
  878TIP3    H1 2575   4.717   1.123   1.064
  878TIP3    H2 2576   4.676   1.042   0.943
  879TIP3   OH2 2577   2.163   7.247   1.224
  879TIP3    H1 2578   2.180   7.161   1.262
  879TIP3    H2 2579   2.107   7.292   1.287
  880TIP3   OH2 2580   5.220   7.380   0.647
  880TIP3    H1 2581   5.143   7.415   0.602
  880TIP3    H2 2582   5.263   7.325   0.582
  881TIP3   OH2 2583   1.246   4.528   5.727
  881TIP3    H1 2584   1.336   4.526   5.694
  881TIP3    H2 2585   1.243   4.604   5.785
  882TIP3   OH2 2586   0.481   6.815   0.290
  882TIP3    H1 2587   0.511   6.765   0.365
  882TIP3    H2 2588   0.392   6.842   0.313
  883TIP3   OH2 2589   7.782   7.630   1.172
  883TIP3    H1 2590   7.828   7.669   1.246
  883TIP3    H2 2591   7.849   7.623   1.103
  884TIP3   OH2 2592   2.466   2.949   2.461
  884TIP3    H1 2593   2.447   3.018   2.524
  884TIP3    H2 2594   2.531   2.894   2.503
  885TIP3   OH2 2595   7.484   4.769   2.853
  885TIP3    H1 2596   7.544   4.838   2.828
  885TIP3    H2 2597   7.416   4.771   2.785
  886TIP3   OH2 2598   4.855   2.584   1.415
  886TIP3    H1 2599   4.824   2.671   1.394
  886TIP3    H2 2600   4.912   2.596   1.491
  887TIP3   OH2 2601   3.085   1.943   6.774
  887TIP3    H1 2602   3.039   1.879   6.719
  887TIP3    H2 2603   3.063   1.918   6.863
  888TIP3   OH2 2604   2.564   4.883   6.146
  888TIP3    H1 2605   2.493   4.903   6.206
  888TIP3    H2 2606   2.624   4.829   6.198
  889TIP3   OH2 2607   7.678   5.697   6.808
  889TIP3    H1 2608   7.743   5.661   6.869
  889TIP3    H2 2609   7.599   5.709   6.861
  890TIP3   OH2 2610   3.227   6.178   6.317
  890TIP3    H1 2611   3.309   6.193   6.362
  890TIP3    H2 2612   3.171   6.251   6.343
  891TIP3   OH2 2613   0.967   1.515   1.772
  891TIP3    H1 2614   0.875   1.493   1.781
  891TIP3    H2 2615   0.968   1.597   1.723
  892TIP3   OH2 2616   1.001   6.887   1.228
  892TIP3    H1 2617   1.081   6.908   1.180
  892TIP3    H2 2618   0.977   6.969   1.270
  893TIP3   OH2 2619   8.058   6.196   1.635
  893TIP3    H1 2620   7.994   6.262   1.660
  893TIP3    H2 2621   8.138   6.222   1.680
  894TIP3   OH2 2622   0.099   2.680   2.660
  894TIP3    H1 2623   0.031   2.731   2.705
  894TIP3    H2 2624   0.180   2.728   2.676
  895TIP3   OH2 2625   4.729   1.819   1.194
  895TIP3    H1 2626   4.649   1.814   1.141
  895TIP3    H2 2627   4.759   1.909   1.185
  896TIP3   OH2 2628   8.296   5.803   1.841
  896TIP3    H1 2629   8.352   5.778   1.766
  896TIP3    H2 2630   8.297   5.899   1.841
  897TIP3   OH2 2631   7.652   6.231   2.920
  897TIP3    H1 2632   7.715   6.298   2.894
  897TIP3    H2 2633   7.575   6.279   2.949
  898TIP3   OH2 2634   6.301   1.012   4.340
  898TIP3    H1 2635   6.259   1.095   4.363
  898TIP3    H2 2636   6.394   1.033   4.331
  899TIP3   OH2 2637   1.895   1.907   4.412
  899TIP3    H1 2638   1.971   1.849   4.417
  899TIP3    H2 2639   1.820   1.850   4.423
  900TIP3   OH2 2640   5.000   2.919   2.051
  900TIP3    H1 2641   4.992   2.997   1.996
  900TIP3    H2 2642   4.940   2.856   2.011
  901TIP3   OH2 2643   0.753   7.852   2.008
  901TIP3    H1 2644   0.799   7.808   1.937
  901TIP3    H2 2645   0.762   7.792   2.083
  902TIP3   OH2 2646   5.368   2.600   4.797
  902TIP3    H1 2647   5.398   2.565   4.881
  902TIP3    H2 2648   5.405   2.540   4.732
  903TIP3   OH2 2649   4.155   0.744   2.385
  903TIP3    H1 2650   4.137   0.656   2.416
  903TIP3    H2 2651   4.085   0.798   2.423
  904TIP3   OH2 2652   7.485   3.395   3.115
  904TIP3    H1 2653   7.471   3.449   3.037
  904TIP3    H2 2654   7.477   3.305   3.084
  905TIP3   OH2 2655   7.689   6.881   1.754
  905TIP3    H1 2656   7.769   6.879   1.806
  905TIP3    H2 2657   7.631   6.818   1.798
  906TIP3   OH2 2658   5.167   0.387   6.152
  906TIP3    H1 2659   5.125   0.363   6.235
  906TIP3    H2 2660   5.098   0.378   6.086
  907TIP3   OH2 2661   8.318   6.942   1.411
  907TIP3    H1 2662   8.367   7.013   1.369
  907TIP3    H2 2663   8.347   6.863   1.367
  908TIP3   OH2 2664   3.241   1.624   5.132
  908TIP3    H1 2665   3.241   1.587   5.044
  908TIP3    H2 2666   3.300   1.700   5.126
  909TIP3   OH2 2667   2.754   5.873   1.388
  909TIP3    H1 2668   2.673   5.862   1.339
  909TIP3    H2 2669   2.815   5.812   1.347
  910TIP3   OH2 2670   5.447   5.077   3.663
  910TIP3    H1 2671   5.446   4.985   3.635
  910TIP3    H2 2672   5.528   5.112   3.627
  911TIP3   OH2 2673   2.583   3.998   5.635
  911TIP3    H1 2674   2.564   3.904   5.631
  911TIP3    H2 2675   2.565   4.031   5.547
  912TIP3   OH2 2676   2.140   1.079   1.441
  912TIP3    H1 2677   2.126   1.089   1.346
  912TIP3    H2 2678   2.069   1.021   1.469
  913TIP3   OH2 2679   1.401   2.514   1.206
  913TIP3    H1 2680   1.473   2.559   1.161
  913TIP3    H2 2681   1.388   2.433   1.157
  914TIP3   OH2 2682   8.340   0.796   5.980
  914TIP3    H1 2683   8.422   0.750   5.962
  914TIP3    H2 2684   8.311   0.828   5.894
  915TIP3   OH2 2685   6.887   7.105   6.485
  915TIP3    H1 2686   6.841   7.077   6.406
  915TIP3    H2 2687   6.963   7.153   6.452
  916TIP3   OH2 2688   4.023   4.708   5.821
  916TIP3    H1 2689   3.975   4.651   5.881
  916TIP3    H2 2690   4.098   4.656   5.793
  917TIP3   OH2 2691   1.846   4.910   0.812
  917TIP3    H1 2692   1.782   4.868   0.754
  917TIP3    H2 2693   1.812   4.999   0.824
  918TIP3   OH2 2694   3.865   6.463   3.078
  918TIP3    H1 2695   3.809   6.396   3.038
  918TIP3    H2 2696   3.932   6.414   3.125
  919TIP3   OH2 2697   0.595   5.189   2.128
  919TIP3    H1 2698   0.562   5.279   2.130
  919TIP3    H2 2699   0.583   5.158   2.218
  920TIP3   OH2 2700   4.727   7.819   3.319
  920TIP3    H1 2701   4.768   7.744   3.277
  920TIP3    H2 2702   4.772   7.827   3.403
  921TIP3   OH2 2703   6.112   5.666   2.341
  921TIP3    H1 2704   6.130   5.598   2.276
  921TIP3    H2 2705   6.080   5.740   2.290
  922TIP3   OH2 2706   0.472   2.278   6.442
  922TIP3    H1 2707   0.423   2.252   6.520
  922TIP3    H2 2708   0.496   2.369   6.458
  923TIP3   OH2 2709   5.055   1.776   0.685
  923TIP3    H1 2710   5.010   1.854   0.717
  923TIP3    H2 2711   5.062   1.789   0.591
  924TIP3   OH2 2712   6.363   4.929   2.991
  924TIP3    H1 2713   6.433   4.991   2.973
  924TIP3    H2 2714   6.312   4.928   2.909
  925TIP3   OH2 2715   1.949   7.360   2.586
  925TIP3    H1 2716   1.917   7.447   2.611
  925TIP3    H2 2717   1.991   7.373   2.501
  926TIP3   OH2 2718   7.169   7.131   1.996
  926TIP3    H1 2719   7.230   7.066   1.960
  926TIP3    H2 2720   7.203   7.215   1.965
  927TIP3   OH2 2721   5.609   1.292   1.506
  927TIP3    H1 2722   5.611   1.226   1.576
  927TIP3    H2 2723   5.574   1.245   1.430
  928TIP3   OH2 2724   3.216   3.563   4.973
  928TIP3    H1 2725   3.165   3.530   5.047
  928TIP3    H2 2726   3.303   3.580   5.009
  929TIP3   OH2 2727   0.789   5.379   5.736
  929TIP3    H1 2728   0.832   5.309   5.785
  929TIP3    H2 2729   0.729   5.420   5.799
  930TIP3   OH2 2730   5.912   4.676   3.436
  930TIP3    H1 2731   5.991   4.695   3.485
  930TIP3    H2 2732   5.880   4.762   3.408
  931TIP3   OH2 2733   7.420   6.370   0.900
  931TIP3    H1 2734   7.359   6.411   0.839
  931TIP3    H2 2735   7.449   6.442   0.956
  932TIP3   OH2 2736   3.934   5.662   1.148
  932TIP3    H1 2737   3.881   5.582   1.147
  932TIP3    H2 2738   3.903   5.712   1.072
  933TIP3   OH2 2739   4.720   3.741   4.173
  933TIP3    H1 2740   4.681   3.658   4.146
  933TIP3    H2 2741   4.803   3.716   4.214
  934TIP3   OH2 2742   0.866   3.699   1.265
  934TIP3    H1 2743   0.918   3.671   1.190
  934TIP3    H2 2744   0.864   3.795   1.259
  935TIP3   OH2 2745   1.560   3.982   4.890
  935TIP3    H1 2746   1.644   4.026   4.878
  935TIP3    H2 2747   1.505   4.015   4.818
  936TIP3   OH2 2748   4.192   3.483   5.059
  936TIP3    H1 2749   4.165   3.492   5.151
  936TIP3    H2 2750   4.287   3.497   5.061
  937TIP3   OH2 2751   0.785   3.601   6.388
  937TIP3    H1 2752   0.878   3.617   6.406
  937TIP3    H2 2753   0.761   3.529   6.447
  938TIP3   OH2 2754   7.952   3.652   3.270
  938TIP3    H1 2755   7.893   3.708   3.220
  938TIP3    H2 2756   7.904   3.570   3.279
  939TIP3   OH2 2757   1.469   5.535   2.137
  939TIP3    H1 2758   1.562   5.554   2.129
  939TIP3    H2 2759   1.460   5.443   2.111
  940TIP3   OH2 2760   5.741   1.480   5.797
  940TIP3    H1 2761   5.809   1.455   5.860
  940TIP3    H2 2762   5.779   1.458   5.712
  941TIP3   OH2 2763   3.830   7.733   1.473
  941TIP3    H1 2764   3.869   7.660   1.521
  941TIP3    H2 2765   3.892   7.805   1.483
  942TIP3   OH2 2766   1.381   6.984   4.321
  942TIP3    H1 2767   1.315   6.971   4.253
  942TIP3    H2 2768   1.407   6.895   4.346
  943TIP3   OH2 2769   0.907   5.479   3.841
  943TIP3    H1 2770   0.990   5.432   3.848
  943TIP3    H2 2771   0.928   5.570   3.861
  944TIP3   OH2 2772   5.547   6.480   2.526
  944TIP3    H1 2773   5.467   6.431   2.509
  944TIP3    H2 2774   5.522   6.542   2.595
  945TIP3   OH2 2775   7.767   2.020   0.278
  945TIP3    H1 2776   7.749   1.956   0.348
  945TIP3    H2 2777   7.862   2.016   0.267
  946TIP3   OH2 2778   1.640   7.738   6.627
  946TIP3    H1 2779   1.719   7.752   6.679
  946TIP3    H2 2780   1.568   7.753   6.689
  947TIP3   OH2 2781   3.650   0.992   0.273
  947TIP3    H1 2782   3.621   0.931   0.206
  947TIP3    H2 2783   3.679   0.937   0.346
  948TIP3   OH2 2784   3.973   4.256   6.591
  948TIP3    H1 2785   3.902   4.252   6.528
  948TIP3    H2 2786   3.954   4.187   6.654
  949TIP3   OH2 2787   7.377   2.986   3.862
  949TIP3    H1 2788   7.426   2.959   3.940
  949TIP3    H2 2789   7.416   3.069   3.837
  950TIP3   OH2 2790   6.463   0.254   3.429
  950TIP3    H1 2791   6.413   0.247   3.347
  950TIP3    H2 2792   6.463   0.347   3.450
  951TIP3   OH2 2793   3.199   6.120   4.331
  951TIP3    H1 2794   3.214   6.070   4.251
  951TIP3    H2 2795   3.271   6.095   4.389
  952TIP3   OH2 2796   6.727   5.297   3.548
  952TIP3    H1 2797   6.789   5.292   3.621
  952TIP3    H2 2798   6.776   5.339   3.477
  953TIP3   OH2 2799   7.835   3.021   1.128
  953TIP3    H1 2800   7.770   2.958   1.098
  953TIP3    H2 2801   7.846   3.082   1.055
  954TIP3   OH2 2802   6.082   4.012   4.450
  954TIP3    H1 2803   6.152   4.050   4.504
  954TIP3    H2 2804   6.127   3.972   4.376
  955TIP3   OH2 2805   5.703   6.052   0.933
  955TIP3    H1 2806   5.749   6.078   1.012
  955TIP3    H2 2807   5.616   6.090   0.942
  956TIP3   OH2 2808   6.199   7.781   6.588
  956TIP3    H1 2809   6.178   7.724   6.662
  956TIP3    H2 2810   6.132   7.849   6.590
  957TIP3   OH2 2811   6.002   0.455   5.083
  957TIP3    H1 2812   5.973   0.543   5.107
  957TIP3    H2 2813   6.052   0.425   5.158
  958TIP3   OH2 2814   8.040   3.727   3.521
  958TIP3    H1 2815   7.997   3.725   3.435
  958TIP3    H2 2816   7.976   3.687   3.581
  959TIP3   OH2 2817   5.491   3.193   2.751
  959TIP3    H1 2818   5.453   3.206   2.837
  959TIP3    H2 2819   5.509   3.099   2.746
  960TIP3   OH2 2820   0.904   3.924   1.514
  960TIP3    H1 2821   0.903   3.987   1.442
  960TIP3    H2 2822   0.980   3.869   1.496
  961TIP3   OH2 2823   0.797   5.421   5.157
  961TIP3    H1 2824   0.819   5.399   5.248
  961TIP3    H2 2825   0.838   5.507   5.142
  962TIP3   OH2 2826   2.591   0.734   3.432
  962TIP3    H1 2827   2.539   0.744   3.511
  962TIP3    H2 2828   2.543   0.671   3.379
  963TIP3   OH2 2829   4.540   3.138   5.500
  963TIP3    H1 2830   4.454   3.168   5.472
  963TIP3    H2 2831   4.544   3.046   5.472
  964TIP3   OH2 2832   4.093   0.595   0.771
  964TIP3    H1 2833   4.091   0.571   0.863
  964TIP3    H2 2834   4.111   0.513   0.724
  965TIP3   OH2 2835   8.126   7.138   5.426
  965TIP3    H1 2836   8.091   7.072   5.366
  965TIP3    H2 2837   8.098   7.109   5.513
  966TIP3   OH2 2838   8.092   6.361   1.147
  966TIP3    H1 2839   8.080   6.380   1.240
  966TIP3    H2 2840   8.008   6.327   1.118
  967TIP3   OH2 2841   3.786   0.788   2.296
  967TIP3    H1 2842   3.875   0.776   2.264
  967TIP3    H2 2843   3.734   0.807   2.218
  968TIP3   OH2 2844   1.310   2.507   5.471
  968TIP3    H1 2845   1.395   2.477   5.503
  968TIP3    H2 2846   1.276   2.561   5.543
  969TIP3   OH2 2847   2.293   1.820   5.612
  969TIP3    H1 2848   2.328   1.744   5.658
  969TIP3    H2 2849   2.369   1.874   5.594
  970TIP3   OH2 2850   0.215   6.956   2.511
  970TIP3    H1 2851   0.299   6.993   2.536
  970TIP3    H2 2852   0.236   6.872   2.472
  971TIP3   OH2 2853   5.662   4.284   4.299
  971TIP3    H1 2854   5.747   4.244   4.319
  971TIP3    H2 2855   5.683   4.351   4.234
  972TIP3   OH2 2856   6.397   4.770   3.655
  972TIP3    H1 2857   6.408   4.675   3.644
  972TIP3    H2 2858   6.446   4.808   3.582
  973TIP3   OH2 2859   3.615   6.547   5.295
  973TIP3    H1 2860   3.607   6.457   5.324
  973TIP3    H2 2861   3.622   6.541   5.200
  974TIP3   OH2 2862   2.493   4.578   1.078
  974TIP3    H1 2863   2.567   4.602   1.134
  974TIP3    H2 2864   2.520   4.497   1.035
  975TIP3   OH2 2865   3.272   7.050   3.590
  975TIP3    H1 2866   3.352   7.036   3.539
  975TIP3    H2 2867   3.242   7.137   3.562
  976TIP3   OH2 2868   0.525   7.650   4.552
  976TIP3    H1 2869   0.470   7.606   4.488
  976TIP3    H2 2870   0.465   7.701   4.606
  977TIP3   OH2 2871   3.700   3.710   2.621
  977TIP3    H1 2872   3.660   3.640   2.569
  977TIP3    H2 2873   3.734   3.772   2.556
  978TIP3   OH2 2874   1.028   6.099   6.622
  978TIP3    H1 2875   1.102   6.041   6.608
  978TIP3    H2 2876   1.030   6.118   6.716
  979TIP3   OH2 2877   2.443   2.813   6.236
  979TIP3    H1 2878   2.510   2.880   6.251
  979TIP3    H2 2879   2.425   2.817   6.143
  980TIP3   OH2 2880   7.367   7.459   0.909
  980TIP3    H1 2881   7.461   7.464   0.926
  980TIP3    H2 2882   7.338   7.550   0.910
  981TIP3   OH2 2883   7.013   6.480   6.281
  981TIP3    H1 2884   7.051   6.395   6.259
  981TIP3    H2 2885   6.929   6.482   6.236
  982TIP3   OH2 2886   0.673   4.366   4.810
  982TIP3    H1 2887   0.657   4.442   4.754
  982TIP3    H2 2888   0.586   4.334   4.832
  983TIP3   OH2 2889   4.456   2.423   3.589
  983TIP3    H1 2890   4.545   2.394   3.611
  983TIP3    H2 2891   4.465   2.517   3.573
  984TIP3   OH2 2892   0.334   5.726   1.077
  984TIP3    H1 2893   0.403   5.791   1.087
  984TIP3    H2 2894   0.253   5.777   1.083
  985TIP3   OH2 2895   2.783   1.387   4.664
  985TIP3    H1 2896   2.847   1.392   4.735
  985TIP3    H2 2897   2.758   1.294   4.660
  986TIP3   OH2 2898   5.745   3.633   4.874
  986TIP3    H1 2899   5.699   3.604   4.953
  986TIP3    H2 2900   5.694   3.596   4.802
  987TIP3   OH2 2901   8.356   3.641   6.557
  987TIP3    H1 2902   8.287   3.660   6.494
  987TIP3    H2 2903   8.402   3.566   6.521
  988TIP3   OH2 2904   6.296   7.688   6.015
  988TIP3    H1 2905   6.284   7.608   5.964
  988TIP3    H2 2906   6.224   7.687   6.079
  989TIP3   OH2 2907   5.270   3.430   2.815
  989TIP3    H1 2908   5.189   3.481   2.820
  989TIP3    H2 2909   5.264   3.367   2.886
  990TIP3   OH2 2910   2.311   1.634   5.383
  990TIP3    H1 2911   2.276   1.696   5.447
  990TIP3    H2 2912   2.264   1.653   5.302
  991TIP3   OH2 2913   7.596   0.200   3.423
  991TIP3    H1 2914   7.626   0.162   3.341
  991TIP3    H2 2915   7.590   0.126   3.483
  992TIP3   OH2 2916   7.364   3.665   1.135
  992TIP3    H1 2917   7.331   3.753   1.117
  992TIP3    H2 2918   7.286   3.610   1.138
  993TIP3   OH2 2919   5.237   4.185   3.410
  993TIP3    H1 2920   5.253   4.090   3.408
  993TIP3    H2 2921   5.321   4.222   3.436
  994TIP3   OH2 2922   8.120   6.811   5.518
  994TIP3    H1 2923   8.025   6.818   5.512
  994TIP3    H2 2924   8.137   6.790   5.610
  995TIP3   OH2 2925   2.701   5.372   3.003
  995TIP3    H1 2926   2.791   5.343   2.987
  995TIP3    H2 2927   2.655   5.356   2.921
  996TIP3   OH2 2928   6.939   6.974   4.948
  996TIP3    H1 2929   6.939   6.986   5.043
  996TIP3    H2 2930   7.022   7.012   4.919
  997TIP3   OH2 2931   2.606   3.702   0.094
  997TIP3    H1 2932   2.555   3.624   0.114
  997TIP3    H2 2933   2.550   3.775   0.122
  998TIP3   OH2 2934   6.473   4.537   2.489
  998TIP3    H1 2935   6.548   4.592   2.465
  998TIP3    H2 2936   6.494   4.451   2.452
  999TIP3   OH2 2937   7.351   5.470   6.266
  999TIP3    H1 2938   7.259   5.452   6.283
  999TIP3    H2 2939   7.355   5.490   6.172
 1000TIP3   OH2 2940   7.922   6.300   3.885
 1000TIP3    H1 2941   7.950   6.306   3.977
 1000TIP3    H2 2942   7.827   6.295   3.889
 1001TIP3   OH2 2943   3.158   1.410   3.522
 1001TIP3    H1 2944   3.219   1.474   3.559
 1001TIP3    H2 2945   3.136   1.353   3.596
 1002TIP3   OH2 2946   4.928   1.200   5.734
 1002TIP3    H1 2947   4.998   1.179   5.795
 1002TIP3    H2 2948   4.972   1.243   5.660
 1003TIP3   OH2 2949   2.454   2.799   0.720
 1003TIP3    H1 2950   2.524   2.838   0.667
 1003TIP3    H2 2951   2.490   2.716   0.751
 1004TIP3   OH2 2952   4.405   2.616   4.727
 1004TIP3    H1 2953   4.438   2.624   4.638
 1004TIP3    H2 2954   4.458   2.546   4.766
 1005TIP3   OH2 2955   1.963   5.241   2.884
 1005TIP3    H1 2956   1.879   5.234   2.930
 1005TIP3    H2 2957   1.955   5.322   2.833
 1006TIP3   OH2 2958   7.716   7.636   0.834
 1006TIP3    H1 2959   7.809   7.647   0.851
 1006TIP3    H2 2960   7.698   7.545   0.860
 1007TIP3   OH2 2961   1.720   0.489   6.211
 1007TIP3    H1 2962   1.747   0.454   6.296
 1007TIP3    H2 2963   1.686   0.413   6.163
 1008TIP3   OH2 2964   7.505   2.382   0.711
 1008TIP3    H1 2965   7.465   2.441   0.647
 1008TIP3    H2 2966   7.557   2.321   0.657
 1009TIP3   OH2 2967   6.317   5.683   6.030
 1009TIP3    H1 2968   6.352   5.759   5.984
 1009TIP3    H2 2969   6.386   5.659   6.092
 1010TIP3   OH2 2970   5.883   1.072   5.114
 1010TIP3    H1 2971   5.937   1.110   5.045
 1010TIP3    H2 2972   5.796   1.109   5.100
 1011TIP3   OH2 2973   4.343   3.646   3.322
 1011TIP3    H1 2974   4.357   3.672   3.231
 1011TIP3    H2 2975   4.253   3.672   3.341
 1012TIP3   OH2 2976   0.246   0.209   5.199
 1012TIP3    H1 2977   0.226   0.188   5.108
 1012TIP3    H2 2978   0.313   0.145   5.224
 1013TIP3   OH2 2979   5.646   3.010   3.036
 1013TIP3    H1 2980   5.708   2.961   2.982
 1013TIP3    H2 2981   5.695   3.087   3.064
 1014TIP3   OH2 2982   4.126   1.191   4.565
 1014TIP3    H1 2983   4.095   1.232   4.647
 1014TIP3    H2 2984   4.102   1.253   4.497
 1015TIP3   OH2 2985   1.888   4.887   5.151
 1015TIP3    H1 2986   1.931   4.844   5.226
 1015TIP3    H2 2987   1.958   4.896   5.086
 1016TIP3   OH2 2988   0.174   3.603   1.930
 1016TIP3    H1 2989   0.230   3.583   2.005
 1016TIP3    H2 2990   0.109   3.664   1.965
 1017TIP3   OH2 2991   5.979   0.568   6.265
 1017TIP3    H1 2992   6.067   0.596   6.239
 1017TIP3    H2 2993   5.921   0.607   6.200
 1018TIP3   OH2 2994   4.220   2.964   5.768
 1018TIP3    H1 2995   4.191   2.938   5.681
 1018TIP3    H2 2996   4.149   2.936   5.826
 1019TIP3   OH2 2997   7.744   4.763   2.045
 1019TIP3    H1 2998   7.733   4.848   2.087
 1019TIP3    H2 2999   7.658   4.746   2.005
 1020TIP3   OH2 3000   6.867   7.585   2.558
 1020TIP3    H1 3001   6.943   7.639   2.533
 1020TIP3    H2 3002   6.852   7.530   2.481
 1021TIP3   OH2 3003   4.118   6.609   4.774
 1021TIP3    H1 3004   4.140   6.603   4.867
 1021TIP3    H2 3005   4.149   6.526   4.737
 1022TIP3   OH2 3006   4.772   2.407   1.836
 1022TIP3    H1 3007   4.728   2.354   1.903
 1022TIP3    H2 3008   4.701   2.442   1.783
 1023TIP3   OH2 3009   2.161   7.132   6.437
 1023TIP3    H1 3010   2.236   7.191   6.431
 1023TIP3    H2 3011   2.154   7.111   6.530
 1024TIP3   OH2 3012   5.362   4.163   5.946
 1024TIP3    H1 3013   5.329   4.144   6.034
 1024TIP3    H2 3014   5.428   4.231   5.960
 1025TIP3   OH2 3015   4.926   5.650   3.413
 1025TIP3    H1 3016   4.911   5.659   3.507
 1025TIP3    H2 3017   4.970   5.566   3.403
 1026TIP3   OH2 3018   5.888   4.289   2.350
 1026TIP3    H1 3019   5.809   4.247   2.317
 1026TIP3    H2 3020   5.959   4.231   2.323
 1027TIP3   OH2 3021   6.976   3.863   3.534
 1027TIP3    H1 3022   6.975   3.883   3.440
 1027TIP3    H2 3023   7.066   3.884   3.561
 1028TIP3   OH2 3024   5.187   2.155   0.572
 1028TIP3    H1 3025   5.151   2.198   0.495
 1028TIP3    H2 3026   5.119   2.093   0.599
 1029TIP3   OH2 3027   1.533   2.105   1.596
 1029TIP3    H1 3028   1.608   2.164   1.588
 1029TIP3    H2 3029   1.458   2.163   1.608
 1030TIP3   OH2 3030   0.695   4.808   5.228
 1030TIP3    H1 3031   0.611   4.797   5.183
 1030TIP3    H2 3032   0.687   4.755   5.307
 1031TIP3   OH2 3033   6.754   2.870   3.791
 1031TIP3    H1 3034   6.672   2.838   3.752
 1031TIP3    H2 3035   6.818   2.864   3.720
 1032TIP3   OH2 3036   1.757   3.604   5.730
 1032TIP3    H1 3037   1.750   3.681   5.673
 1032TIP3    H2 3038   1.840   3.563   5.706
 1033TIP3   OH2 3039   1.483   2.442   0.323
 1033TIP3    H1 3040   1.443   2.375   0.379
 1033TIP3    H2 3041   1.411   2.472   0.267
 1034TIP3   OH2 3042   0.195   3.252   1.313
 1034TIP3    H1 3043   0.143   3.330   1.292
 1034TIP3    H2 3044   0.261   3.284   1.375
 1035TIP3   OH2 3045   1.054   1.761   1.322
 1035TIP3    H1 3046   1.063   1.669   1.347
 1035TIP3    H2 3047   1.088   1.766   1.233
 1036TIP3   OH2 3048   7.142   2.162   6.343
 1036TIP3    H1 3049   7.201   2.235   6.322
 1036TIP3    H2 3050   7.060   2.205   6.367
 1037TIP3   OH2 3051   6.114   3.005   3.738
 1037TIP3    H1 3052   6.062   2.973   3.664
 1037TIP3    H2 3053   6.049   3.045   3.797
 1038TIP3   OH2 3054   1.126   6.996   0.688
 1038TIP3    H1 3055   1.121   6.929   0.756
 1038TIP3    H2 3056   1.206   6.974   0.639
 1039TIP3   OH2 3057   0.614   4.710   0.886
 1039TIP3    H1 3058   0.654   4.790   0.921
 1039TIP3    H2 3059   0.589   4.734   0.796
 1040TIP3   OH2 3060   3.310   4.670   3.036
 1040TIP3    H1 3061   3.229   4.708   3.071
 1040TIP3    H2 3062   3.337   4.607   3.103
 1041TIP3   OH2 3063   6.847   0.320   6.167
 1041TIP3    H1 3064   6.906   0.247   6.182
 1041TIP3    H2 3065   6.831   0.357   6.254
 1042TIP3   OH2 3066   5.136   4.704   3.229
 1042TIP3    H1 3067   5.190   4.643   3.178
 1042TIP3    H2 3068   5.194   4.778   3.248
 1043TIP3   OH2 3069   4.781   4.864   0.454
 1043TIP3    H1 3070   4.757   4.813   0.530
 1043TIP3    H2 3071   4.815   4.946   0.489
 1044TIP3   OH2 3072   6.768   2.512   4.574
 1044TIP3    H1 3073   6.832   2.441   4.571
 1044TIP3    H2 3074   6.769   2.551   4.487
 1045TIP3   OH2 3075   4.777   1.744   2.725
 1045TIP3    H1 3076   4.813   1.771   2.641
 1045TIP3    H2 3077   4.850   1.701   2.770
 1046TIP3   OH2 3078   0.882   6.332   2.663
 1046TIP3    H1 3079   0.831   6.251   2.674
 1046TIP3    H2 3080   0.908   6.331   2.571
 1047TIP3   OH2 3081   1.142   1.114   2.522
 1047TIP3    H1 3082   1.198   1.116   2.600
 1047TIP3    H2 3083   1.172   1.188   2.469
 1048TIP3   OH2 3084   1.906   6.418   3.729
 1048TIP3    H1 3085   1.827   6.472   3.739
 1048TIP3    H2 3086   1.897   6.350   3.796
 1049TIP3   OH2 3087   4.845   4.799   1.203
 1049TIP3    H1 3088   4.908   4.768   1.138
 1049TIP3    H2 3089   4.851   4.895   1.198
 1050TIP3   OH2 3090   3.146   0.925   1.883
 1050TIP3    H1 3091   3.109   1.004   1.921
 1050TIP3    H2 3092   3.074   0.886   1.834
 1051TIP3   OH2 3093   7.290   4.497   1.306
 1051TIP3    H1 3094   7.246   4.506   1.221
 1051TIP3    H2 3095   7.377   4.463   1.283
 1052TIP3   OH2 3096   2.225   3.833   3.272
 1052TIP3    H1 3097   2.315   3.833   3.240
 1052TIP3    H2 3098   2.233   3.819   3.366
 1053TIP3   OH2 3099   0.725   1.145   5.943
 1053TIP3    H1 3100   0.788   1.218   5.940
 1053TIP3    H2 3101   0.707   1.126   5.851
 1054TIP3   OH2 3102   6.345   3.987   1.489
 1054TIP3    H1 3103   6.267   4.041   1.500
 1054TIP3    H2 3104   6.392   3.993   1.572
 1055TIP3   OH2 3105   2.085   0.252   0.758
 1055TIP3    H1 3106   2.019   0.297   0.810
 1055TIP3    H2 3107   2.038   0.225   0.679
 1056TIP3   OH2 3108   7.091   3.936   2.800
 1056TIP3    H1 3109   7.024   3.978   2.747
 1056TIP3    H2 3110   7.174   3.969   2.765
 1057TIP3   OH2 3111   6.722   3.280   3.109
 1057TIP3    H1 3112   6.638   3.249   3.143
 1057TIP3    H2 3113   6.773   3.304   3.186
 1058TIP3   OH2 3114   4.748   1.560   2.078
 1058TIP3    H1 3115   4.691   1.496   2.035
 1058TIP3    H2 3116   4.709   1.572   2.165
 1059TIP3   OH2 3117   5.318   3.043   3.256
 1059TIP3    H1 3118   5.367   3.015   3.334
 1059TIP3    H2 3119   5.252   2.976   3.245
 1060TIP3   OH2 3120   1.869   6.087   6.272
 1060TIP3    H1 3121   1.833   5.999   6.273
 1060TIP3    H2 3122   1.900   6.102   6.362
 1061TIP3   OH2 3123   2.328   4.040   1.212
 1061TIP3    H1 3124   2.412   3.998   1.227
 1061TIP3    H2 3125   2.268   3.996   1.273
 1062TIP3   OH2 3126   7.423   5.923   1.201
 1062TIP3    H1 3127   7.378   5.880   1.129
 1062TIP3    H2 3128   7.458   6.004   1.163
 1063TIP3   OH2 3129   3.448   6.942   5.879
 1063TIP3    H1 3130   3.460   6.853   5.911
 1063TIP3    H2 3131   3.456   6.998   5.956
 1064TIP3   OH2 3132   7.705   0.128   2.444
 1064TIP3    H1 3133   7.760   0.050   2.437
 1064TIP3    H2 3134   7.761   0.200   2.418
 1065TIP3   OH2 3135   5.525   2.988   6.275
 1065TIP3    H1 3136   5.616   2.995   6.301
 1065TIP3    H2 3137   5.486   2.928   6.338
 1066TIP3   OH2 3138   2.429   5.367   2.838
 1066TIP3    H1 3139   2.353   5.311   2.854
 1066TIP3    H2 3140   2.394   5.456   2.834
 1067TIP3   OH2 3141   7.700   2.343   1.038
 1067TIP3    H1 3142   7.704   2.316   1.130
 1067TIP3    H2 3143   7.667   2.266   0.992
 1068TIP3   OH2 3144   0.726   2.935   5.962
 1068TIP3    H1 3145   0.745   2.843   5.976
 1068TIP3    H2 3146   0.811   2.978   5.964
 1069TIP3   OH2 3147   4.413   1.940   6.674
 1069TIP3    H1 3148   4.412   1.891   6.756
 1069TIP3    H2 3149   4.470   1.889   6.616
 1070TIP3   OH2 3150   2.395   5.081   2.319
 1070TIP3    H1 3151   2.452   5.066   2.244
 1070TIP3    H2 3152   2.451   5.067   2.395
 1071TIP3   OH2 3153   7.506   4.347   4.813
 1071TIP3    H1 3154   7.589   4.338   4.767
 1071TIP3    H2 3155   7.527   4.400   4.890
 1072TIP3   OH2 3156   1.710   4.003   3.198
 1072TIP3    H1 3157   1.706   4.009   3.103
 1072TIP3    H2 3158   1.791   4.048   3.222
 1073TIP3   OH2 3159   2.393   2.664   4.943
 1073TIP3    H1 3160   2.303   2.695   4.950
 1073TIP3    H2 3161   2.439   2.708   5.014
 1074TIP3   OH2 3162   4.267   5.117   3.956
 1074TIP3    H1 3163   4.278   5.027   3.986
 1074TIP3    H2 3164   4.309   5.170   4.023
 1075TIP3   OH2 3165   0.915   2.447   3.134
 1075TIP3    H1 3166   0.831   2.414   3.106
 1075TIP3    H2 3167   0.894   2.512   3.202
 1076TIP3   OH2 3168   8.393   6.051   1.804
 1076TIP3    H1 3169   8.445   6.087   1.875
 1076TIP3    H2 3170   8.333   6.122   1.779
 1077TIP3   OH2 3171   0.843   5.396   1.142
 1077TIP3    H1 3172   0.865   5.319   1.089
 1077TIP3    H2 3173   0.766   5.369   1.193
 1078TIP3   OH2 3174   6.199   5.241   4.950
 1078TIP3    H1 3175   6.225   5.313   5.007
 1078TIP3    H2 3176   6.244   5.259   4.867
 1079TIP3   OH2 3177   0.377   7.237   5.729
 1079TIP3    H1 3178   0.283   7.221   5.720
 1079TIP3    H2 3179   0.418   7.158   5.693
 1080TIP3   OH2 3180   7.901   0.316   1.493
 1080TIP3    H1 3181   7.955   0.248   1.534
 1080TIP3    H2 3182   7.961   0.363   1.436
 1081TIP3   OH2 3183   8.247   0.255   2.370
 1081TIP3    H1 3184   8.277   0.344   2.349
 1081TIP3    H2 3185   8.215   0.221   2.287
 1082TIP3   OH2 3186   0.243   5.470   5.042
 1082TIP3    H1 3187   0.332   5.473   5.077
 1082TIP3    H2 3188   0.187   5.474   5.120
 1083TIP3   OH2 3189   7.977   2.362   5.639
 1083TIP3    H1 3190   8.046   2.394   5.697
 1083TIP3    H2 3191   7.927   2.300   5.692
 1084TIP3   OH2 3192   6.600   0.363   2.257
 1084TIP3    H1 3193   6.689   0.330   2.249
 1084TIP3    H2 3194   6.549   0.287   2.288
 1085TIP3   OH2 3195   4.699   0.587   3.887
 1085TIP3    H1 3196   4.619   0.618   3.929
 1085TIP3    H2 3197   4.738   0.527   3.951
 1086TIP3   OH2 3198   5.217   3.402   4.049
 1086TIP3    H1 3199   5.149   3.452   4.093
 1086TIP3    H2 3200   5.299   3.435   4.087
 1087TIP3   OH2 3201   6.397   5.767   4.587
 1087TIP3    H1 3202   6.448   5.700   4.633
 1087TIP3    H2 3203   6.440   5.849   4.611
 1088TIP3   OH2 3204   0.271   4.049   2.316
 1088TIP3    H1 3205   0.303   4.018   2.231
 1088TIP3    H2 3206   0.177   4.033   2.313
 1089TIP3   OH2 3207   6.952   5.061   6.580
 1089TIP3    H1 3208   6.909   5.133   6.533
 1089TIP3    H2 3209   6.920   5.068   6.670
 1090TIP3   OH2 3210   3.090   5.470   4.779
 1090TIP3    H1 3211   3.149   5.530   4.823
 1090TIP3    H2 3212   3.110   5.384   4.817
 1091TIP3   OH2 3213   7.810   6.860   5.951
 1091TIP3    H1 3214   7.842   6.791   5.894
 1091TIP3    H2 3215   7.869   6.860   6.026
 1092TIP3   OH2 3216   0.546   2.412   0.668
 1092TIP3    H1 3217   0.611   2.427   0.599
 1092TIP3    H2 3218   0.466   2.387   0.621
 1093TIP3   OH2 3219   5.967   1.770   4.887
 1093TIP3    H1 3220   6.062   1.779   4.876
 1093TIP3    H2 3221   5.956   1.690   4.938
 1094TIP3   OH2 3222   3.811   6.186   0.422
 1094TIP3    H1 3223   3.752   6.137   0.480
 1094TIP3    H2 3224   3.758   6.260   0.391
 1095TIP3   OH2 3225   1.122   1.383   6.291
 1095TIP3    H1 3226   1.116   1.454   6.227
 1095TIP3    H2 3227   1.191   1.411   6.351
 1096TIP3   OH2 3228   3.811   6.467   0.077
 1096TIP3    H1 3229   3.850   6.554   0.085
 1096TIP3    H2 3230   3.875   6.409   0.119
 1097TIP3   OH2 3231   5.362   6.756   5.923
 1097TIP3    H1 3232   5.273   6.740   5.894
 1097TIP3    H2 3233   5.375   6.850   5.909
 1098TIP3   OH2 3234   4.905   4.677   0.317
 1098TIP3    H1 3235   4.855   4.743   0.365
 1098TIP3    H2 3236   4.901   4.599   0.372
 1099TIP3   OH2 3237   1.215   0.929   3.127
 1099TIP3    H1 3238   1.208   0.981   3.047
 1099TIP3    H2 3239   1.308   0.931   3.150
 1100TIP3   OH2 3240   0.213   0.468   2.773
 1100TIP3    H1 3241   0.287   0.525   2.755
 1100TIP3    H2 3242   0.168   0.461   2.689
 1101TIP3   OH2 3243   5.634   4.811   1.049
 1101TIP3    H1 3244   5.563   4.832   0.988
 1101TIP3    H2 3245   5.634   4.715   1.053
 1102TIP3   OH2 3246   1.244   5.359   4.640
 1102TIP3    H1 3247   1.250   5.333   4.732
 1102TIP3    H2 3248   1.178   5.301   4.602
 1103TIP3   OH2 3249   2.667   2.997   6.235
 1103TIP3    H1 3250   2.746   2.955   6.202
 1103TIP3    H2 3251   2.640   3.057   6.165
 1104TIP3   OH2 3252   3.949   3.960   3.383
 1104TIP3    H1 3253   3.911   3.952   3.296
 1104TIP3    H2 3254   4.011   3.888   3.389
 1105TIP3   OH2 3255   2.385   1.227   2.720
 1105TIP3    H1 3256   2.304   1.237   2.670
 1105TIP3    H2 3257   2.396   1.132   2.728
 1106TIP3   OH2 3258   2.474   3.478   3.457
 1106TIP3    H1 3259   2.543   3.537   3.488
 1106TIP3    H2 3260   2.409   3.536   3.416
 1107TIP3   OH2 3261   5.891   0.371   2.501
 1107TIP3    H1 3262   5.925   0.441   2.556
 1107TIP3    H2 3263   5.927   0.389   2.414
 1108TIP3   OH2 3264   3.496   3.031   6.071
 1108TIP3    H1 3265   3.443   2.978   6.012
 1108TIP3    H2 3266   3.576   2.980   6.083
 1109TIP3   OH2 3267   2.946   2.101   1.190
 1109TIP3    H1 3268   2.930   2.107   1.095
 1109TIP3    H2 3269   2.943   2.008   1.209
 1110TIP3   OH2 3270   2.177   2.452   5.173
 1110TIP3    H1 3271   2.135   2.395   5.109
 1110TIP3    H2 3272   2.270   2.451   5.150
 1111TIP3   OH2 3273   4.332   2.500   0.975
 1111TIP3    H1 3274   4.397   2.565   0.950
 1111TIP3    H2 3275   4.380   2.435   1.026
 1112TIP3   OH2 3276   3.068   4.911   0.252
 1112TIP3    H1 3277   3.130   4.839   0.235
 1112TIP3    H2 3278   3.006   4.907   0.179
 1113TIP3   OH2 3279   2.542   3.107   4.945
 1113TIP3    H1 3280   2.497   3.191   4.956
 1113TIP3    H2 3281   2.621   3.129   4.895
 1114TIP3   OH2 3282   3.867   4.324   6.338
 1114TIP3    H1 3283   3.774   4.343   6.353
 1114TIP3    H2 3284   3.912   4.407   6.357
 1115TIP3   OH2 3285   5.796   3.564   3.897
 1115TIP3    H1 3286   5.746   3.640   3.928
 1115TIP3    H2 3287   5.762   3.490   3.948
 1116TIP3   OH2 3288   6.170   5.474   1.835
 1116TIP3    H1 3289   6.202   5.424   1.761
 1116TIP3    H2 3290   6.084   5.506   1.807
 1117TIP3   OH2 3291   2.269   5.389   4.315
 1117TIP3    H1 3292   2.331   5.377   4.387
 1117TIP3    H2 3293   2.293   5.473   4.276
 1118TIP3   OH2 3294   5.208   1.626   0.846
 1118TIP3    H1 3295   5.237   1.572   0.772
 1118TIP3    H2 3296   5.140   1.682   0.810
 1119TIP3   OH2 3297   3.267   3.334   4.806
 1119TIP3    H1 3298   3.274   3.410   4.864
 1119TIP3    H2 3299   3.175   3.310   4.809
 1120TIP3   OH2 3300   0.986   7.301   4.808
 1120TIP3    H1 3301   1.025   7.304   4.720
 1120TIP3    H2 3302   1.056   7.327   4.867
 1121TIP3   OH2 3303   0.126   0.200   0.137
 1121TIP3    H1 3304   0.137   0.152   0.055
 1121TIP3    H2 3305   0.032   0.204   0.150
 1122TIP3   OH2 3306   5.988   1.439   0.610
 1122TIP3    H1 3307   5.916   1.390   0.571
 1122TIP3    H2 3308   6.066   1.404   0.567
 1123TIP3   OH2 3309   5.619   0.828   3.025
 1123TIP3    H1 3310   5.612   0.918   3.056
 1123TIP3    H2 3311   5.697   0.828   2.969
 1124TIP3   OH2 3312   8.227   7.500   4.930
 1124TIP3    H1 3313   8.270   7.549   5.000
 1124TIP3    H2 3314   8.299   7.451   4.888
 1125TIP3   OH2 3315   0.642   7.281   2.495
 1125TIP3    H1 3316   0.618   7.258   2.405
 1125TIP3    H2 3317   0.679   7.201   2.531
 1126TIP3   OH2 3318   3.251   3.177   4.348
 1126TIP3    H1 3319   3.318   3.221   4.400
 1126TIP3    H2 3320   3.193   3.247   4.318
 1127TIP3   OH2 3321   6.245   5.120   6.510
 1127TIP3    H1 3322   6.292   5.038   6.493
 1127TIP3    H2 3323   6.186   5.099   6.582
 1128TIP3   OH2 3324   5.691   3.843   2.517
 1128TIP3    H1 3325   5.785   3.821   2.515
 1128TIP3    H2 3326   5.659   3.803   2.597
 1129TIP3   OH2 3327   8.349   2.197   5.371
 1129TIP3    H1 3328   8.321   2.131   5.307
 1129TIP3    H2 3329   8.352   2.149   5.454
 1130TIP3   OH2 3330   6.375   5.050   0.261
 1130TIP3    H1 3331   6.300   5.094   0.300
 1130TIP3    H2 3332   6.344   5.023   0.174
 1131TIP3   OH2 3333   1.109   6.211   0.759
 1131TIP3    H1 3334   1.070   6.204   0.672
 1131TIP3    H2 3335   1.067   6.142   0.810
 1132TIP3   OH2 3336   2.012   2.573   2.618
 1132TIP3    H1 3337   2.071   2.499   2.630
 1132TIP3    H2 3338   1.925   2.533   2.606
 1133TIP3   OH2 3339   0.853   7.031   0.651
 1133TIP3    H1 3340   0.810   7.056   0.733
 1133TIP3    H2 3341   0.947   7.040   0.669
 1134TIP3   OH2 3342   4.595   2.533   4.560
 1134TIP3    H1 3343   4.569   2.481   4.484
 1134TIP3    H2 3344   4.639   2.610   4.522
 1135TIP3   OH2 3345   1.106   3.944   0.319
 1135TIP3    H1 3346   1.149   3.908   0.397
 1135TIP3    H2 3347   1.056   3.871   0.283
 1136TIP3   OH2 3348   8.099   6.686   1.204
 1136TIP3    H1 3349   8.042   6.613   1.179
 1136TIP3    H2 3350   8.074   6.758   1.147
 1137TIP3   OH2 3351   0.310   1.009   1.548
 1137TIP3    H1 3352   0.260   1.091   1.552
 1137TIP3    H2 3353   0.271   0.961   1.475
 1138TIP3   OH2 3354   4.121   0.773   4.673
 1138TIP3    H1 3355   4.121   0.688   4.716
 1138TIP3    H2 3356   4.184   0.825   4.723
 1139TIP3   OH2 3357   6.507   1.443   6.278
 1139TIP3    H1 3358   6.480   1.368   6.330
 1139TIP3    H2 3359   6.444   1.447   6.207
 1140TIP3   OH2 3360   4.048   2.941   4.574
 1140TIP3    H1 3361   4.092   2.880   4.633
 1140TIP3    H2 3362   4.119   2.979   4.522
 1141TIP3   OH2 3363   2.625   1.881   5.174
 1141TIP3    H1 3364   2.550   1.846   5.126
 1141TIP3    H2 3365   2.663   1.806   5.219
 1142TIP3   OH2 3366   4.747   7.357   0.291
 1142TIP3    H1 3367   4.835   7.334   0.261
 1142TIP3    H2 3368   4.701   7.385   0.212
 1143TIP3   OH2 3369   6.161   3.673   2.950
 1143TIP3    H1 3370   6.228   3.612   2.920
 1143TIP3    H2 3371   6.137   3.640   3.037
 1144TIP3   OH2 3372   2.759   0.279   6.799
 1144TIP3    H1 3373   2.740   0.345   6.866
 1144TIP3    H2 3374   2.730   0.319   6.717
 1145TIP3   OH2 3375   0.847   5.451   4.746
 1145TIP3    H1 3376   0.783   5.383   4.723
 1145TIP3    H2 3377   0.892   5.471   4.664
 1146TIP3   OH2 3378   6.407   5.824   0.420
 1146TIP3    H1 3379   6.452   5.802   0.502
 1146TIP3    H2 3380   6.466   5.886   0.376
 1147TIP3   OH2 3381   2.883   6.146   1.325
 1147TIP3    H1 3382   2.870   6.155   1.231
 1147TIP3    H2 3383   2.843   6.061   1.347
 1148TIP3   OH2 3384   2.153   1.724   6.595
 1148TIP3    H1 3385   2.142   1.726   6.500
 1148TIP3    H2 3386   2.090   1.658   6.625
 1149TIP3   OH2 3387   3.427   6.792   6.428
 1149TIP3    H1 3388   3.402   6.878   6.395
 1149TIP3    H2 3389   3.345   6.746   6.444
 1150TIP3   OH2 3390   6.219   5.040   3.415
 1150TIP3    H1 3391   6.233   5.118   3.468
 1150TIP3    H2 3392   6.144   5.062   3.359
 1151TIP3   OH2 3393   0.621   1.006   3.931
 1151TIP3    H1 3394   0.698   0.962   3.896
 1151TIP3    H2 3395   0.607   1.081   3.873
 1152TIP3   OH2 3396   1.438   4.428   3.500
 1152TIP3    H1 3397   1.404   4.374   3.428
 1152TIP3    H2 3398   1.480   4.365   3.559
 1153TIP3   OH2 3399   4.908   6.739   5.369
 1153TIP3    H1 3400   4.919   6.711   5.460
 1153TIP3    H2 3401   4.879   6.659   5.324
 1154TIP3   OH2 3402   8.163   7.156   4.951
 1154TIP3    H1 3403   8.255   7.135   4.969
 1154TIP3    H2 3404   8.133   7.084   4.895
 1155TIP3   OH2 3405   7.576   5.250   6.755
 1155TIP3    H1 3406   7.601   5.330   6.709
 1155TIP3    H2 3407   7.650   5.232   6.813
 1156TIP3   OH2 3408   6.220   0.896   6.217
 1156TIP3    H1 3409   6.161   0.918   6.289
 1156TIP3    H2 3410   6.190   0.810   6.186
 1157TIP3   OH2 3411   1.550   0.607   6.759
 1157TIP3    H1 3412   1.585   0.520   6.739
 1157TIP3    H2 3413   1.464   0.608   6.717
 1158TIP3   OH2 3414   1.059   1.712   6.351
 1158TIP3    H1 3415   1.081   1.664   6.431
 1158TIP3    H2 3416   1.123   1.681   6.287
 1159TIP3   OH2 3417   3.280   4.654   2.748
 1159TIP3    H1 3418   3.281   4.623   2.839
 1159TIP3    H2 3419   3.221   4.729   2.748
 1160TIP3   OH2 3420   6.304   3.865   4.696
 1160TIP3    H1 3421   6.255   3.792   4.732
 1160TIP3    H2 3422   6.378   3.825   4.650
 1161TIP3   OH2 3423   4.005   2.304   1.645
 1161TIP3    H1 3424   4.007   2.374   1.580
 1161TIP3    H2 3425   3.925   2.255   1.625
 1162TIP3   OH2 3426   7.553   4.021   1.840
 1162TIP3    H1 3427   7.514   4.092   1.892
 1162TIP3    H2 3428   7.533   3.942   1.889
 1163TIP3   OH2 3429   5.325   1.557   1.271
 1163TIP3    H1 3430   5.240   1.585   1.237
 1163TIP3    H2 3431   5.309   1.469   1.304
 1164TIP3   OH2 3432   7.959   4.324   6.839
 1164TIP3    H1 3433   7.955   4.351   6.747
 1164TIP3    H2 3434   8.035   4.371   6.874
 1165TIP3   OH2 3435   2.666   4.858   3.083
 1165TIP3    H1 3436   2.626   4.926   3.028
 1165TIP3    H2 3437   2.593   4.820   3.131
 1166TIP3   OH2 3438   1.858   4.062   3.701
 1166TIP3    H1 3439   1.768   4.034   3.719
 1166TIP3    H2 3440   1.903   3.981   3.676
 1167TIP3   OH2 3441   4.950   3.759   0.201
 1167TIP3    H1 3442   4.887   3.787   0.268
 1167TIP3    H2 3443   5.016   3.711   0.250
 1168TIP3   OH2 3444   0.817   2.582   1.290
 1168TIP3    H1 3445   0.740   2.528   1.270
 1168TIP3    H2 3446   0.789   2.672   1.270
 1169TIP3   OH2 3447   2.389   1.612   5.758
 1169TIP3    H1 3448   2.364   1.586   5.847
 1169TIP3    H2 3449   2.463   1.672   5.771
 1170TIP3   OH2 3450   7.404   2.727   1.163
 1170TIP3    H1 3451   7.442   2.787   1.098
 1170TIP3    H2 3452   7.441   2.642   1.141
 1171TIP3   OH2 3453   1.214   6.503   1.795
 1171TIP3    H1 3454   1.192   6.426   1.743
 1171TIP3    H2 3455   1.224   6.574   1.731
 1172TIP3   OH2 3456   1.830   3.271   2.117
 1172TIP3    H1 3457   1.875   3.199   2.161
 1172TIP3    H2 3458   1.851   3.348   2.170
 1173TIP3   OH2 3459   2.658   4.055   6.216
 1173TIP3    H1 3460   2.565   4.035   6.208
 1173TIP3    H2 3461   2.679   4.107   6.138
 1174TIP3   OH2 3462   5.607   0.884   2.178
 1174TIP3    H1 3463   5.661   0.865   2.101
 1174TIP3    H2 3464   5.647   0.962   2.216
 1175TIP3   OH2 3465   5.510   0.978   3.726
 1175TIP3    H1 3466   5.529   0.949   3.637
 1175TIP3    H2 3467   5.531   0.902   3.781
 1176TIP3   OH2 3468   2.813   3.555   0.698
 1176TIP3    H1 3469   2.757   3.516   0.630
 1176TIP3    H2 3470   2.792   3.505   0.777
 1177TIP3   OH2 3471   7.992   4.000   3.194
 1177TIP3    H1 3472   7.975   4.079   3.143
 1177TIP3    H2 3473   7.908   3.953   3.194
 1178TIP3   OH2 3474   0.419   1.349   2.589
 1178TIP3    H1 3475   0.378   1.271   2.551
 1178TIP3    H2 3476   0.383   1.355   2.677
 1179TIP3   OH2 3477   5.993   2.014   6.592
 1179TIP3    H1 3478   5.901   2.039   6.583
 1179TIP3    H2 3479   6.042   2.094   6.573
 1180TIP3   OH2 3480   7.382   1.883   3.098
 1180TIP3    H1 3481   7.320   1.908   3.030
 1180TIP3    H2 3482   7.446   1.953   3.100
 1181TIP3   OH2 3483   3.558   5.733   6.190
 1181TIP3    H1 3484   3.580   5.639   6.194
 1181TIP3    H2 3485   3.514   5.751   6.272
 1182TIP3   OH2 3486   7.384   4.409   6.202
 1182TIP3    H1 3487   7.410   4.354   6.128
 1182TIP3    H2 3488   7.296   4.380   6.225
 1183TIP3   OH2 3489   7.418   7.517   6.307
 1183TIP3    H1 3490   7.405   7.597   6.256
 1183TIP3    H2 3491   7.513   7.502   6.305
 1184TIP3   OH2 3492   2.941   3.312   0.549
 1184TIP3    H1 3493   2.998   3.370   0.500
 1184TIP3    H2 3494   2.900   3.368   0.615
 1185TIP3   OH2 3495   7.197   5.196   3.591
 1185TIP3    H1 3496   7.262   5.244   3.642
 1185TIP3    H2 3497   7.219   5.215   3.500
 1186TIP3   OH2 3498   5.282   0.468   4.786
 1186TIP3    H1 3499   5.273   0.550   4.835
 1186TIP3    H2 3500   5.276   0.495   4.694
 1187TIP3   OH2 3501   2.721   7.685   4.058
 1187TIP3    H1 3502   2.697   7.773   4.030
 1187TIP3    H2 3503   2.680   7.627   3.994
 1188TIP3   OH2 3504   3.043   5.446   3.250
 1188TIP3    H1 3505   3.137   5.451   3.232
 1188TIP3    H2 3506   3.034   5.379   3.316
 1189TIP3   OH2 3507   0.483   0.484   1.515
 1189TIP3    H1 3508   0.563   0.525   1.483
 1189TIP3    H2 3509   0.424   0.556   1.535
 1190TIP3   OH2 3510   1.281   3.221   0.090
 1190TIP3    H1 3511   1.327   3.278   0.028
 1190TIP3    H2 3512   1.329   3.138   0.085
 1191TIP3   OH2 3513   6.338   3.574   6.704
 1191TIP3    H1 3514   6.392   3.645   6.739
 1191TIP3    H2 3515   6.400   3.509   6.672
 1192TIP3   OH2 3516   2.856   2.372   3.355
 1192TIP3    H1 3517   2.779   2.317   3.370
 1192TIP3    H2 3518   2.930   2.312   3.363
 1193TIP3   OH2 3519   4.471   3.893   5.763
 1193TIP3    H1 3520   4.534   3.834   5.805
 1193TIP3    H2 3521   4.521   3.972   5.744
 1194TIP3   OH2 3522   1.710   6.525   4.701
 1194TIP3    H1 3523   1.769   6.545   4.628
 1194TIP3    H2 3524   1.623   6.547   4.669
 1195TIP3   OH2 3525   2.448   4.741   3.197
 1195TIP3    H1 3526   2.403   4.825   3.186
 1195TIP3    H2 3527   2.390   4.677   3.155
 1196TIP3   OH2 3528   3.678   4.665   3.239
 1196TIP3    H1 3529   3.716   4.672   3.152
 1196TIP3    H2 3530   3.610   4.598   3.231
 1197TIP3   OH2 3531   0.563   4.839   4.097
 1197TIP3    H1 3532   0.581   4.877   4.183
 1197TIP3    H2 3533   0.479   4.876   4.071
 1198TIP3   OH2 3534   3.302   2.321   2.782
 1198TIP3    H1 3535   3.334   2.386   2.844
 1198TIP3    H2 3536   3.378   2.269   2.760
 1199TIP3   OH2 3537   7.590   3.545   0.347
 1199TIP3    H1 3538   7.501   3.527   0.377
 1199TIP3    H2 3539   7.592   3.639   0.331
 1200TIP3   OH2 3540   4.852   4.462   2.288
 1200TIP3    H1 3541   4.817   4.550   2.274
 1200TIP3    H2 3542   4.829   4.414   2.208
 1201TIP3   OH2 3543   5.570   5.528   3.182
 1201TIP3    H1 3544   5.559   5.576   3.100
 1201TIP3    H2 3545   5.621   5.587   3.238
 1202TIP3   OH2 3546   1.074   1.025   0.161
 1202TIP3    H1 3547   1.020   0.970   0.218
 1202TIP3    H2 3548   1.057   1.114   0.189
 1203TIP3   OH2 3549   5.050   3.723   5.379
 1203TIP3    H1 3550   5.013   3.641   5.347
 1203TIP3    H2 3551   5.143   3.718   5.358
 1204TIP3   OH2 3552   3.190   4.701   5.180
 1204TIP3    H1 3553   3.285   4.693   5.171
 1204TIP3    H2 3554   3.160   4.613   5.200
 1205TIP3   OH2 3555   3.910   2.631   6.076
 1205TIP3    H1 3556   3.977   2.598   6.135
 1205TIP3    H2 3557   3.830   2.586   6.103
 1206TIP3   OH2 3558   8.263   6.677   6.023
 1206TIP3    H1 3559   8.295   6.587   6.014
 1206TIP3    H2 3560   8.327   6.720   6.080
 1207TIP3   OH2 3561   4.019   1.776   0.657
 1207TIP3    H1 3562   3.954   1.843   0.677
 1207TIP3    H2 3563   4.095   1.824   0.627
 1208TIP3   OH2 3564   1.888   0.584   1.161
 1208TIP3    H1 3565   1.821   0.613   1.223
 1208TIP3    H2 3566   1.967   0.573   1.215
 1209TIP3   OH2 3567   4.565   4.272   0.206
 1209TIP3    H1 3568   4.512   4.252   0.128
 1209TIP3    H2 3569   4.611   4.353   0.184
 1210TIP3   OH2 3570   4.537   0.510   5.339
 1210TIP3    H1 3571   4.484   0.439   5.373
 1210TIP3    H2 3572   4.497   0.533   5.255
 1211TIP3   OH2 3573   7.922   4.291   3.194
 1211TIP3    H1 3574   7.842   4.273   3.145
 1211TIP3    H2 3575   7.984   4.322   3.127
 1212TIP3   OH2 3576   1.859   1.009   4.802
 1212TIP3    H1 3577   1.865   0.915   4.820
 1212TIP3    H2 3578   1.838   1.049   4.887
 1213TIP3   OH2 3579   6.011   6.982   5.068
 1213TIP3    H1 3580   6.095   6.945   5.041
 1213TIP3    H2 3581   5.970   6.913   5.120
 1214TIP3   OH2 3582   0.262   7.277   4.854
 1214TIP3    H1 3583   0.357   7.274   4.837
 1214TIP3    H2 3584   0.237   7.366   4.830
 1215TIP3   OH2 3585   0.271   0.105   4.179
 1215TIP3    H1 3586   0.286   0.025   4.129
 1215TIP3    H2 3587   0.336   0.167   4.145
 1216TIP3   OH2 3588   1.768   6.143   3.415
 1216TIP3    H1 3589   1.762   6.235   3.390
 1216TIP3    H2 3590   1.853   6.135   3.457
 1217TIP3   OH2 3591   5.471   0.279   4.687
 1217TIP3    H1 3592   5.415   0.326   4.749
 1217TIP3    H2 3593   5.550   0.260   4.738
 1218TIP3   OH2 3594   3.204   0.854   0.228
 1218TIP3    H1 3595   3.158   0.920   0.175
 1218TIP3    H2 3596   3.237   0.903   0.303
 1219TIP3   OH2 3597   7.812   4.473   6.054
 1219TIP3    H1 3598   7.839   4.399   6.108
 1219TIP3    H2 3599   7.885   4.535   6.061
 1220TIP3   OH2 3600   8.368   7.405   6.600
 1220TIP3    H1 3601   8.294   7.391   6.659
 1220TIP3    H2 3602   8.444   7.411   6.657
 1221TIP3   OH2 3603   7.614   1.508   1.758
 1221TIP3    H1 3604   7.529   1.552   1.767
 1221TIP3    H2 3605   7.678   1.574   1.782
 1222TIP3   OH2 3606   2.454   7.408   3.614
 1222TIP3    H1 3607   2.477   7.495   3.647
 1222TIP3    H2 3608   2.362   7.416   3.590
 1223TIP3   OH2 3609   3.899   7.076   6.669
 1223TIP3    H1 3610   3.881   7.102   6.759
 1223TIP3    H2 3611   3.958   7.000   6.678
 1224TIP3   OH2 3612   2.907   4.231   4.258
 1224TIP3    H1 3613   2.983   4.242   4.200
 1224TIP3    H2 3614   2.934   4.268   4.341
 1225TIP3   OH2 3615   0.708   3.326   0.406
 1225TIP3    H1 3616   0.715   3.422   0.401
 1225TIP3    H2 3617   0.616   3.310   0.424
 1226TIP3   OH2 3618   2.680   1.675   1.243
 1226TIP3    H1 3619   2.691   1.587   1.278
 1226TIP3    H2 3620   2.607   1.668   1.181
 1227TIP3   OH2 3621   4.745   1.790   3.756
 1227TIP3    H1 3622   4.824   1.839   3.780
 1227TIP3    H2 3623   4.775   1.726   3.692
 1228TIP3   OH2 3624   3.871   5.859   2.659
 1228TIP3    H1 3625   3.918   5.778   2.640
 1228TIP3    H2 3626   3.868   5.863   2.755
 1229TIP3   OH2 3627   5.854   4.841   6.662
 1229TIP3    H1 3628   5.814   4.754   6.665
 1229TIP3    H2 3629   5.808   4.887   6.593
 1230TIP3   OH2 3630   2.763   2.891   3.482
 1230TIP3    H1 3631   2.843   2.853   3.445
 1230TIP3    H2 3632   2.780   2.893   3.576
 1231TIP3   OH2 3633   7.430   3.337   5.746
 1231TIP3    H1 3634   7.487   3.405   5.709
 1231TIP3    H2 3635   7.441   3.262   5.688
 1232TIP3   OH2 3636   6.049   2.837   0.146
 1232TIP3    H1 3637   6.116   2.879   0.199
 1232TIP3    H2 3638   6.031   2.755   0.192
 1233TIP3   OH2 3639   0.043   1.006   0.109
 1233TIP3    H1 3640   0.127   1.045   0.086
 1233TIP3    H2 3641   0.031   1.027   0.201
 1234TIP3   OH2 3642   1.458   2.635   1.792
 1234TIP3    H1 3643   1.533   2.588   1.756
 1234TIP3    H2 3644   1.382   2.599   1.745
 1235TIP3   OH2 3645   1.370   7.853   3.937
 1235TIP3    H1 3646   1.278   7.834   3.951
 1235TIP3    H2 3647   1.371   7.934   3.886
 1236TIP3   OH2 3648   5.662   2.222   5.695
 1236TIP3    H1 3649   5.633   2.304   5.734
 1236TIP3    H2 3650   5.692   2.169   5.769
 1237TIP3   OH2 3651   6.538   7.807   2.505
 1237TIP3    H1 3652   6.543   7.891   2.460
 1237TIP3    H2 3653   6.445   7.784   2.505
 1238TIP3   OH2 3654   7.919   2.049   1.116
 1238TIP3    H1 3655   7.908   1.964   1.073
 1238TIP3    H2 3656   7.995   2.088   1.074
 1239TIP3   OH2 3657   1.356   1.070   6.526
 1239TIP3    H1 3658   1.315   0.988   6.497
 1239TIP3    H2 3659   1.324   1.082   6.616
 1240TIP3   OH2 3660   6.526   5.946   4.381
 1240TIP3    H1 3661   6.606   5.923   4.428
 1240TIP3    H2 3662   6.488   5.862   4.357
 1241TIP3   OH2 3663   5.196   4.971   4.224
 1241TIP3    H1 3664   5.149   4.938   4.300
 1241TIP3    H2 3665   5.160   4.921   4.150
 1242TIP3   OH2 3666   4.424   1.668   6.217
 1242TIP3    H1 3667   4.468   1.632   6.140
 1242TIP3    H2 3668   4.491   1.722   6.260
 1243TIP3   OH2 3669   0.961   2.568   0.430
 1243TIP3    H1 3670   1.025   2.510   0.469
 1243TIP3    H2 3671   0.920   2.613   0.504
 1244TIP3   OH2 3672   0.325   1.516   1.831
 1244TIP3    H1 3673   0.319   1.485   1.922
 1244TIP3    H2 3674   0.367   1.444   1.784
 1245TIP3   OH2 3675   4.947   3.262   5.549
 1245TIP3    H1 3676   4.886   3.194   5.579
 1245TIP3    H2 3677   4.901   3.344   5.563
 1246TIP3   OH2 3678   7.993   1.799   6.510
 1246TIP3    H1 3679   7.906   1.784   6.474
 1246TIP3    H2 3680   8.040   1.846   6.440
 1247TIP3   OH2 3681   0.066   7.258   5.667
 1247TIP3    H1 3682   0.037   7.301   5.586
 1247TIP3    H2 3683   0.068   7.165   5.645
 1248TIP3   OH2 3684   5.639   0.432   5.832
 1248TIP3    H1 3685   5.594   0.351   5.808
 1248TIP3    H2 3686   5.578   0.477   5.890
 1249TIP3   OH2 3687   5.930   7.026   3.370
 1249TIP3    H1 3688   5.896   6.950   3.417
 1249TIP3    H2 3689   5.948   7.090   3.438
 1250TIP3   OH2 3690   0.961   3.121   2.182
 1250TIP3    H1 3691   0.941   3.131   2.275
 1250TIP3    H2 3692   1.004   3.036   2.176
 1251TIP3   OH2 3693   5.890   4.176   6.402
 1251TIP3    H1 3694   5.939   4.183   6.320
 1251TIP3    H2 3695   5.802   4.205   6.379
 1252TIP3   OH2 3696   8.179   6.226   3.563
 1252TIP3    H1 3697   8.162   6.310   3.520
 1252TIP3    H2 3698   8.267   6.236   3.599
 1253TIP3   OH2 3699   3.895   7.561   6.404
 1253TIP3    H1 3700   3.901   7.612   6.323
 1253TIP3    H2 3701   3.813   7.512   6.395
 1254TIP3   OH2 3702   7.044   2.694   2.432
 1254TIP3    H1 3703   7.113   2.644   2.387
 1254TIP3    H2 3704   7.069   2.786   2.419
 1255TIP3   OH2 3705   6.085   7.737   1.467
 1255TIP3    H1 3706   6.097   7.787   1.386
 1255TIP3    H2 3707   6.029   7.664   1.442
 1256TIP3   OH2 3708   1.038   5.865   4.099
 1256TIP3    H1 3709   1.030   5.870   4.003
 1256TIP3    H2 3710   0.976   5.798   4.125
 1257TIP3   OH2 3711   6.398   3.852   5.960
 1257TIP3    H1 3712   6.367   3.761   5.966
 1257TIP3    H2 3713   6.471   3.857   6.021
 1258TIP3   OH2 3714   5.326   7.728   3.791
 1258TIP3    H1 3715   5.325   7.744   3.885
 1258TIP3    H2 3716   5.279   7.645   3.780
 1259TIP3   OH2 3717   0.362   3.846   2.676
 1259TIP3    H1 3718   0.446   3.832   2.633
 1259TIP3    H2 3719   0.297   3.805   2.618
 1260TIP3   OH2 3720   5.057   7.521   2.457
 1260TIP3    H1 3721   5.078   7.596   2.401
 1260TIP3    H2 3722   5.022   7.455   2.398
 1261TIP3   OH2 3723   7.082   3.472   3.979
 1261TIP3    H1 3724   6.996   3.511   3.965
 1261TIP3    H2 3725   7.126   3.533   4.039
 1262TIP3   OH2 3726   0.243   4.482   4.945
 1262TIP3    H1 3727   0.149   4.468   4.938
 1262TIP3    H2 3728   0.265   4.459   5.035
 1263TIP3   OH2 3729   1.455   6.579   5.924
 1263TIP3    H1 3730   1.470   6.528   5.845
 1263TIP3    H2 3731   1.453   6.670   5.893
 1264TIP3   OH2 3732   0.560   4.021   3.467
 1264TIP3    H1 3733   0.495   3.982   3.409
 1264TIP3    H2 3734   0.508   4.076   3.527
 1265TIP3   OH2 3735   3.945   6.720   3.168
 1265TIP3    H1 3736   3.949   6.795   3.110
 1265TIP3    H2 3737   3.917   6.647   3.113
 1266TIP3   OH2 3738   1.777   4.095   5.109
 1266TIP3    H1 3739   1.803   4.111   5.199
 1266TIP3    H2 3740   1.813   4.009   5.088
 1267TIP3   OH2 3741   6.308   3.332   1.762
 1267TIP3    H1 3742   6.374   3.401   1.770
 1267TIP3    H2 3743   6.356   3.257   1.727
 1268TIP3   OH2 3744   3.245   4.019   1.672
 1268TIP3    H1 3745   3.258   4.048   1.581
 1268TIP3    H2 3746   3.265   4.096   1.725
 1269TIP3   OH2 3747   8.127   1.361   5.468
 1269TIP3    H1 3748   8.200   1.322   5.516
 1269TIP3    H2 3749   8.168   1.422   5.408
 1270TIP3   OH2 3750   5.623   2.414   1.886
 1270TIP3    H1 3751   5.565   2.457   1.949
 1270TIP3    H2 3752   5.605   2.458   1.803
 1271TIP3   OH2 3753   3.506   0.009   5.026
 1271TIP3    H1 3754   3.437   0.073   5.045
 1271TIP3    H2 3755   3.546  -0.009   5.112
 1272TIP3   OH2 3756   3.282   2.591   5.159
 1272TIP3    H1 3757   3.365   2.628   5.128
 1272TIP3    H2 3758   3.244   2.548   5.082
 1273TIP3   OH2 3759   6.371   3.305   0.569
 1273TIP3    H1 3760   6.374   3.279   0.661
 1273TIP3    H2 3761   6.331   3.230   0.524
 1274TIP3   OH2 3762   2.279   2.044   5.027
 1274TIP3    H1 3763   2.364   2.029   4.985
 1274TIP3    H2 3764   2.253   1.958   5.059
 1275TIP3   OH2 3765   7.603   0.843   6.002
 1275TIP3    H1 3766   7.553   0.778   5.952
 1275TIP3    H2 3767   7.669   0.875   5.941
 1276TIP3   OH2 3768   4.545   6.391   2.053
 1276TIP3    H1 3769   4.561   6.447   2.129
 1276TIP3    H2 3770   4.477   6.438   2.003
 1277TIP3   OH2 3771   4.627   7.529   6.090
 1277TIP3    H1 3772   4.671   7.545   6.174
 1277TIP3    H2 3773   4.543   7.488   6.114
 1278TIP3   OH2 3774   4.318   5.287   6.114
 1278TIP3    H1 3775   4.250   5.220   6.113
 1278TIP3    H2 3776   4.283   5.355   6.172
 1279TIP3   OH2 3777   4.571   6.769   1.792
 1279TIP3    H1 3778   4.599   6.694   1.845
 1279TIP3    H2 3779   4.564   6.841   1.854
 1280TIP3   OH2 3780   8.264   1.990   1.849
 1280TIP3    H1 3781   8.289   2.002   1.758
 1280TIP3    H2 3782   8.251   2.078   1.882
 1281TIP3   OH2 3783   6.622   1.981   0.705
 1281TIP3    H1 3784   6.656   1.917   0.767
 1281TIP3    H2 3785   6.530   1.957   0.694
 1282TIP3   OH2 3786   1.398   1.469   6.747
 1282TIP3    H1 3787   1.475   1.511   6.786
 1282TIP3    H2 3788   1.354   1.426   6.820
 1283TIP3   OH2 3789   8.106   7.231   2.227
 1283TIP3    H1 3790   8.137   7.207   2.140
 1283TIP3    H2 3791   8.163   7.182   2.287
 1284TIP3   OH2 3792   2.445   5.309   3.435
 1284TIP3    H1 3793   2.350   5.311   3.447
 1284TIP3    H2 3794   2.459   5.347   3.348
 1285TIP3   OH2 3795   2.396   2.034   5.867
 1285TIP3    H1 3796   2.453   2.110   5.856
 1285TIP3    H2 3797   2.449   1.959   5.841
 1286TIP3   OH2 3798   4.235   2.366   4.185
 1286TIP3    H1 3799   4.210   2.371   4.277
 1286TIP3    H2 3800   4.170   2.308   4.145
 1287TIP3   OH2 3801   6.914   1.033   5.859
 1287TIP3    H1 3802   6.877   0.945   5.864
 1287TIP3    H2 3803   6.939   1.054   5.949
 1288TIP3   OH2 3804   3.113   5.607   5.357
 1288TIP3    H1 3805   3.045   5.589   5.422
 1288TIP3    H2 3806   3.131   5.522   5.318
 1289TIP3   OH2 3807   5.858   4.229   0.925
 1289TIP3    H1 3808   5.798   4.154   0.932
 1289TIP3    H2 3809   5.828   4.278   0.849
 1290TIP3   OH2 3810   3.545   3.426   0.515
 1290TIP3    H1 3811   3.560   3.332   0.509
 1290TIP3    H2 3812   3.608   3.457   0.581
 1291TIP3   OH2 3813   3.627   2.711   1.222
 1291TIP3    H1 3814   3.579   2.763   1.285
 1291TIP3    H2 3815   3.606   2.750   1.137
 1292TIP3   OH2 3816   0.597   4.419   6.772
 1292TIP3    H1 3817   0.646   4.339   6.757
 1292TIP3    H2 3818   0.515   4.408   6.724
 1293TIP3   OH2 3819   4.943   0.691   3.866
 1293TIP3    H1 3820   4.975   0.706   3.777
 1293TIP3    H2 3821   4.855   0.656   3.854
 1294TIP3   OH2 3822   4.945   4.860   1.477
 1294TIP3    H1 3823   4.857   4.839   1.509
 1294TIP3    H2 3824   4.948   4.822   1.389
 1295TIP3   OH2 3825   4.461   1.306   4.134
 1295TIP3    H1 3826   4.495   1.299   4.045
 1295TIP3    H2 3827   4.432   1.217   4.155
 1296TIP3   OH2 3828   6.433   3.099   0.041
 1296TIP3    H1 3829   6.516   3.146   0.049
 1296TIP3    H2 3830   6.456   3.007   0.052
 1297TIP3   OH2 3831   2.966   1.321   2.754
 1297TIP3    H1 3832   2.939   1.365   2.673
 1297TIP3    H2 3833   2.989   1.232   2.726
 1298TIP3   OH2 3834   6.422   5.323   6.175
 1298TIP3    H1 3835   6.482   5.262   6.216
 1298TIP3    H2 3836   6.468   5.354   6.097
 1299TIP3   OH2 3837   0.461   0.283   0.165
 1299TIP3    H1 3838   0.497   0.370   0.181
 1299TIP3    H2 3839   0.426   0.287   0.076
 1300TIP3   OH2 3840   0.518   1.007   2.673
 1300TIP3    H1 3841   0.446   1.040   2.727
 1300TIP3    H2 3842   0.475   0.960   2.602
 1301TIP3   OH2 3843   1.932   4.762   3.396
 1301TIP3    H1 3844   1.867   4.792   3.459
 1301TIP3    H2 3845   2.017   4.783   3.436
 1302TIP3   OH2 3846   4.557   2.965   3.788
 1302TIP3    H1 3847   4.472   2.948   3.828
 1302TIP3    H2 3848   4.621   2.941   3.855
 1303TIP3   OH2 3849   8.362   4.787   3.966
 1303TIP3    H1 3850   8.284   4.832   3.999
 1303TIP3    H2 3851   8.418   4.776   4.043
 1304TIP3   OH2 3852   0.890   1.110   2.929
 1304TIP3    H1 3853   0.917   1.039   2.987
 1304TIP3    H2 3854   0.801   1.130   2.955
 1305TIP3   OH2 3855   6.390   2.310   5.236
 1305TIP3    H1 3856   6.475   2.292   5.196
 1305TIP3    H2 3857   6.359   2.225   5.267
 1306TIP3   OH2 3858   1.751   3.854   5.597
 1306TIP3    H1 3859   1.791   3.922   5.651
 1306TIP3    H2 3860   1.661   3.883   5.583
 1307TIP3   OH2 3861   4.002   6.689   4.387
 1307TIP3    H1 3862   3.938   6.622   4.365
 1307TIP3    H2 3863   3.959   6.772   4.364
 1308TIP3   OH2 3864   0.188   3.695   4.091
 1308TIP3    H1 3865   0.132   3.773   4.088
 1308TIP3    H2 3866   0.270   3.723   4.048
 1309TIP3   OH2 3867   5.835   7.885   2.294
 1309TIP3    H1 3868   5.820   7.795   2.267
 1309TIP3    H2 3869   5.835   7.935   2.212
 1310TIP3   OH2 3870   2.151   0.589   3.193
 1310TIP3    H1 3871   2.160   0.547   3.108
 1310TIP3    H2 3872   2.120   0.677   3.173
 1311TIP3   OH2 3873   8.105   3.919   4.265
 1311TIP3    H1 3874   8.071   3.832   4.245
 1311TIP3    H2 3875   8.150   3.946   4.185
 1312TIP3   OH2 3876   6.805   5.393   0.745
 1312TIP3    H1 3877   6.728   5.352   0.705
 1312TIP3    H2 3878   6.878   5.365   0.690
 1313TIP3   OH2 3879   1.257   2.214   4.027
 1313TIP3    H1 3880   1.303   2.148   3.976
 1313TIP3    H2 3881   1.230   2.281   3.964
 1314TIP3   OH2 3882   3.807   4.235   5.051
 1314TIP3    H1 3883   3.788   4.317   5.097
 1314TIP3    H2 3884   3.825   4.171   5.120
 1315TIP3   OH2 3885   7.626   5.830   4.207
 1315TIP3    H1 3886   7.570   5.775   4.152
 1315TIP3    H2 3887   7.581   5.914   4.211
 1316TIP3   OH2 3888   0.547   0.313   6.574
 1316TIP3    H1 3889   0.493   0.235   6.588
 1316TIP3    H2 3890   0.507   0.356   6.499
 1317TIP3   OH2 3891   1.523   5.066   3.808
 1317TIP3    H1 3892   1.431   5.091   3.815
 1317TIP3    H2 3893   1.521   4.970   3.812
 1318TIP3   OH2 3894   3.775   6.067   1.501
 1318TIP3    H1 3895   3.835   6.050   1.574
 1318TIP3    H2 3896   3.789   5.994   1.441
 1319TIP3   OH2 3897   2.187   2.718   5.397
 1319TIP3    H1 3898   2.257   2.703   5.461
 1319TIP3    H2 3899   2.107   2.693   5.442
 1320TIP3   OH2 3900   2.467   0.607   0.540
 1320TIP3    H1 3901   2.444   0.516   0.560
 1320TIP3    H2 3902   2.541   0.627   0.597
 1321TIP3   OH2 3903   4.848   7.861   3.542
 1321TIP3    H1 3904   4.817   7.885   3.629
 1321TIP3    H2 3905   4.943   7.859   3.550
 1322TIP3   OH2 3906   7.142   7.705   5.473
 1322TIP3    H1 3907   7.211   7.666   5.418
 1322TIP3    H2 3908   7.067   7.715   5.414
 1323TIP3   OH2 3909   0.599   1.281   1.859
 1323TIP3    H1 3910   0.512   1.242   1.861
 1323TIP3    H2 3911   0.651   1.222   1.805
 1324TIP3   OH2 3912   3.479   3.434   5.638
 1324TIP3    H1 3913   3.446   3.479   5.717
 1324TIP3    H2 3914   3.413   3.367   5.620
 1325TIP3   OH2 3915   4.265   4.125   1.652
 1325TIP3    H1 3916   4.352   4.139   1.617
 1325TIP3    H2 3917   4.212   4.099   1.577
 1326TIP3   OH2 3918   7.865   7.054   6.588
 1326TIP3    H1 3919   7.797   7.114   6.616
 1326TIP3    H2 3920   7.878   7.074   6.495
 1327TIP3   OH2 3921   0.946   5.776   3.826
 1327TIP3    H1 3922   0.861   5.739   3.802
 1327TIP3    H2 3923   1.007   5.739   3.761
 1328TIP3   OH2 3924   7.204   7.842   3.547
 1328TIP3    H1 3925   7.132   7.831   3.485
 1328TIP3    H2 3926   7.163   7.884   3.623
 1329TIP3   OH2 3927   6.344   2.651   4.504
 1329TIP3    H1 3928   6.319   2.713   4.436
 1329TIP3    H2 3929   6.367   2.571   4.456
 1330TIP3   OH2 3930   4.628   3.710   5.021
 1330TIP3    H1 3931   4.681   3.741   5.095
 1330TIP3    H2 3932   4.679   3.732   4.944
 1331TIP3   OH2 3933   4.288   7.781   5.257
 1331TIP3    H1 3934   4.305   7.873   5.275
 1331TIP3    H2 3935   4.232   7.752   5.329
 1332TIP3   OH2 3936   2.146   6.354   0.868
 1332TIP3    H1 3937   2.233   6.394   0.868
 1332TIP3    H2 3938   2.159   6.267   0.830
 1333TIP3   OH2 3939   6.441   6.445   4.234
 1333TIP3    H1 3940   6.492   6.471   4.311
 1333TIP3    H2 3941   6.407   6.358   4.256
 1334TIP3   OH2 3942   3.181   3.180   0.871
 1334TIP3    H1 3943   3.253   3.140   0.822
 1334TIP3    H2 3944   3.223   3.240   0.932
 1335TIP3   OH2 3945   0.032   1.273   3.198
 1335TIP3    H1 3946   0.111   1.314   3.162
 1335TIP3    H2 3947  -0.026   1.261   3.122
 1336TIP3   OH2 3948   1.087   5.655   0.451
 1336TIP3    H1 3949   1.163   5.685   0.500
 1336TIP3    H2 3950   1.041   5.735   0.426
 1337TIP3   OH2 3951   3.443   6.641   3.531
 1337TIP3    H1 3952   3.381   6.594   3.588
 1337TIP3    H2 3953   3.490   6.572   3.485
 1338TIP3   OH2 3954   1.012   0.971   5.026
 1338TIP3    H1 3955   0.989   1.045   5.084
 1338TIP3    H2 3956   0.965   0.989   4.945
 1339TIP3   OH2 3957   2.006  -0.001   4.945
 1339TIP3    H1 3958   1.959  -0.064   4.891
 1339TIP3    H2 3959   1.974   0.084   4.915
 1340TIP3   OH2 3960   7.044   3.330   2.587
 1340TIP3    H1 3961   7.095   3.407   2.562
 1340TIP3    H2 3962   7.087   3.257   2.543
 1341TIP3   OH2 3963   7.561   7.181   2.120
 1341TIP3    H1 3964   7.638   7.174   2.175
 1341TIP3    H2 3965   7.529   7.091   2.110
 1342TIP3   OH2 3966   1.592   6.666   5.457
 1342TIP3    H1 3967   1.585   6.721   5.379
 1342TIP3    H2 3968   1.615   6.580   5.423
 1343TIP3   OH2 3969   4.813   7.755   5.599
 1343TIP3    H1 3970   4.887   7.708   5.638
 1343TIP3    H2 3971   4.742   7.748   5.663
 1344TIP3   OH2 3972   3.739   5.546   0.044
 1344TIP3    H1 3973   3.767   5.606   0.113
 1344TIP3    H2 3974   3.811   5.483   0.036
 1345TIP3   OH2 3975   5.437   6.111   4.233
 1345TIP3    H1 3976   5.467   6.184   4.179
 1345TIP3    H2 3977   5.357   6.081   4.191
 1346TIP3   OH2 3978   0.866   1.973   3.285
 1346TIP3    H1 3979   0.791   2.011   3.240
 1346TIP3    H2 3980   0.887   1.894   3.236
 1347TIP3   OH2 3981   7.098   6.315   1.495
 1347TIP3    H1 3982   7.145   6.235   1.470
 1347TIP3    H2 3983   7.104   6.317   1.591
 1348TIP3   OH2 3984   2.990   7.206   1.929
 1348TIP3    H1 3985   2.947   7.120   1.932
 1348TIP3    H2 3986   2.978   7.242   2.018
 1349TIP3   OH2 3987   6.391   6.782   2.356
 1349TIP3    H1 3988   6.318   6.723   2.336
 1349TIP3    H2 3989   6.364   6.866   2.317
 1350TIP3   OH2 3990   6.482   3.947   4.376
 1350TIP3    H1 3991   6.535   3.988   4.445
 1350TIP3    H2 3992   6.541   3.885   4.335
 1351TIP3   OH2 3993   4.225   7.683   2.781
 1351TIP3    H1 3994   4.222   7.615   2.713
 1351TIP3    H2 3995   4.173   7.647   2.853
 1352TIP3   OH2 3996   0.639   2.684   5.664
 1352TIP3    H1 3997   0.593   2.634   5.597
 1352TIP3    H2 3998   0.584   2.761   5.678
 1353TIP3   OH2 3999   4.536   7.141   2.028
 1353TIP3    H1 4000   4.605   7.082   2.060
 1353TIP3    H2 4001   4.469   7.136   2.095
 1354TIP3   OH2 4002   7.446   7.942   4.149
 1354TIP3    H1 4003   7.401   7.891   4.217
 1354TIP3    H2 4004   7.467   7.878   4.081
 1355TIP3   OH2 4005   2.822   4.636   4.136
 1355TIP3    H1 4006   2.772   4.604   4.211
 1355TIP3    H2 4007   2.822   4.563   4.074
 1356TIP3   OH2 4008   6.456   0.113   0.968
 1356TIP3    H1 4009   6.369   0.079   0.985
 1356TIP3    H2 4010   6.452   0.205   0.994
 1357TIP3   OH2 4011   8.144   2.893   5.354
 1357TIP3    H1 4012   8.091   2.857   5.426
 1357TIP3    H2 4013   8.168   2.980   5.384
 1358TIP3   OH2 4014   0.300   6.241   6.549
 1358TIP3    H1 4015   0.223   6.209   6.596
 1358TIP3    H2 4016   0.337   6.163   6.507
 1359TIP3   OH2 4017   3.482   3.687   0.441
 1359TIP3    H1 4018   3.447   3.713   0.356
 1359TIP3    H2 4019   3.545   3.618   0.422
 1360TIP3   OH2 4020   3.165   1.485   5.901
 1360TIP3    H1 4021   3.107   1.415   5.871
 1360TIP3    H2 4022   3.132   1.563   5.857
 1361TIP3   OH2 4023   4.910   5.074   3.090
 1361TIP3    H1 4024   4.832   5.026   3.118
 1361TIP3    H2 4025   4.969   5.006   3.059
 1362TIP3   OH2 4026   6.957   7.209   0.459
 1362TIP3    H1 4027   6.918   7.126   0.431
 1362TIP3    H2 4028   7.011   7.237   0.385
 1363TIP3   OH2 4029   1.301   3.650   6.836
 1363TIP3    H1 4030   1.237   3.713   6.802
 1363TIP3    H2 4031   1.355   3.701   6.896
 1364TIP3   OH2 4032   7.453   6.543   4.556
 1364TIP3    H1 4033   7.378   6.483   4.561
 1364TIP3    H2 4034   7.452   6.589   4.640
 1365TIP3   OH2 4035   2.330   3.469   4.664
 1365TIP3    H1 4036   2.240   3.491   4.640
 1365TIP3    H2 4037   2.383   3.530   4.614
 1366TIP3   OH2 4038   3.065   5.592   4.127
 1366TIP3    H1 4039   3.025   5.678   4.139
 1366TIP3    H2 4040   2.995   5.530   4.147
 1367TIP3   OH2 4041   3.154   0.503   3.290
 1367TIP3    H1 4042   3.086   0.563   3.262
 1367TIP3    H2 4043   3.236   0.548   3.269
 1368TIP3   OH2 4044   0.191   1.510   4.519
 1368TIP3    H1 4045   0.218   1.452   4.590
 1368TIP3    H2 4046   0.214   1.598   4.549
 1369TIP3   OH2 4047   8.257   0.107   1.266
 1369TIP3    H1 4048   8.185   0.046   1.252
 1369TIP3    H2 4049   8.246   0.173   1.198
 1370TIP3   OH2 4050   4.938   3.926   1.710
 1370TIP3    H1 4051   4.914   3.855   1.770
 1370TIP3    H2 4052   4.890   4.002   1.742
 1371TIP3   OH2 4053   6.778   3.316   5.399
 1371TIP3    H1 4054   6.733   3.378   5.342
 1371TIP3    H2 4055   6.707   3.272   5.446
 1372TIP3   OH2 4056   3.415   0.945   1.819
 1372TIP3    H1 4057   3.407   0.890   1.740
 1372TIP3    H2 4058   3.327   0.946   1.857
 1373TIP3   OH2 4059   5.997   6.656   2.623
 1373TIP3    H1 4060   5.937   6.625   2.691
 1373TIP3    H2 4061   6.026   6.742   2.655
 1374TIP3   OH2 4062   5.164   1.761   4.851
 1374TIP3    H1 4063   5.089   1.711   4.818
 1374TIP3    H2 4064   5.140   1.785   4.940
 1375TIP3   OH2 4065   5.648   2.250   4.965
 1375TIP3    H1 4066   5.723   2.250   5.024
 1375TIP3    H2 4067   5.665   2.178   4.904
 1376TIP3   OH2 4068   3.354   7.038   2.710
 1376TIP3    H1 4069   3.266   7.002   2.695
 1376TIP3    H2 4070   3.408   6.996   2.643
 1377TIP3   OH2 4071   8.315   5.741   5.020
 1377TIP3    H1 4072   8.359   5.771   5.100
 1377TIP3    H2 4073   8.386   5.709   4.964
 1378TIP3   OH2 4074   0.804   5.016   0.658
 1378TIP3    H1 4075   0.834   4.939   0.708
 1378TIP3    H2 4076   0.859   5.088   0.690
 1379TIP3   OH2 4077   2.686   5.874   6.833
 1379TIP3    H1 4078   2.702   5.816   6.759
 1379TIP3    H2 4079   2.591   5.885   6.834
 1380TIP3   OH2 4080   2.348   3.689   2.378
 1380TIP3    H1 4081   2.390   3.680   2.292
 1380TIP3    H2 4082   2.381   3.614   2.428
 1381TIP3   OH2 4083   0.401   6.785   1.289
 1381TIP3    H1 4084   0.342   6.810   1.218
 1381TIP3    H2 4085   0.352   6.721   1.340
 1382TIP3   OH2 4086   2.312   2.013   4.236
 1382TIP3    H1 4087   2.243   1.984   4.177
 1382TIP3    H2 4088   2.393   1.994   4.188
 1383TIP3   OH2 4089   4.838   0.958   6.438
 1383TIP3    H1 4090   4.827   0.864   6.423
 1383TIP3    H2 4091   4.765   0.982   6.495
 1384TIP3   OH2 4092   6.298   4.368   4.619
 1384TIP3    H1 4093   6.279   4.276   4.638
 1384TIP3    H2 4094   6.297   4.411   4.704
 1385TIP3   OH2 4095   4.405   4.934   5.489
 1385TIP3    H1 4096   4.354   4.909   5.411
 1385TIP3    H2 4097   4.389   5.028   5.499
 1386TIP3   OH2 4098   0.238   3.180   3.914
 1386TIP3    H1 4099   0.224   3.268   3.949
 1386TIP3    H2 4100   0.265   3.194   3.823
 1387TIP3   OH2 4101   3.510   4.499   0.984
 1387TIP3    H1 4102   3.591   4.497   0.933
 1387TIP3    H2 4103   3.440   4.497   0.919
 1388TIP3   OH2 4104   8.371   2.165   6.759
 1388TIP3    H1 4105   8.417   2.220   6.695
 1388TIP3    H2 4106   8.356   2.082   6.713
 1389TIP3   OH2 4107   6.664   7.356   5.163
 1389TIP3    H1 4108   6.653   7.314   5.078
 1389TIP3    H2 4109   6.759   7.353   5.179
 1390TIP3   OH2 4110   2.466   4.521   1.413
 1390TIP3    H1 4111   2.448   4.448   1.353
 1390TIP3    H2 4112   2.562   4.523   1.420
 1391TIP3   OH2 4113   6.239   3.428   6.473
 1391TIP3    H1 4114   6.226   3.474   6.556
 1391TIP3    H2 4115   6.306   3.480   6.427
 1392TIP3   OH2 4116   0.180   3.738   6.710
 1392TIP3    H1 4117   0.168   3.684   6.788
 1392TIP3    H2 4118   0.117   3.703   6.647
 1393TIP3   OH2 4119   6.060   4.339   3.048
 1393TIP3    H1 4120   6.033   4.416   3.097
 1393TIP3    H2 4121   6.068   4.369   2.957
 1394TIP3   OH2 4122   0.314   0.140   0.325
 1394TIP3    H1 4123   0.384   0.180   0.274
 1394TIP3    H2 4124   0.238   0.143   0.268
 1395TIP3   OH2 4125   2.452   0.554   3.295
 1395TIP3    H1 4126   2.454   0.570   3.200
 1395TIP3    H2 4127   2.367   0.514   3.311
 1396TIP3   OH2 4128   7.601   1.710   1.960
 1396TIP3    H1 4129   7.534   1.653   1.922
 1396TIP3    H2 4130   7.552   1.769   2.018
 1397TIP3   OH2 4131   5.968   0.786   5.094
 1397TIP3    H1 4132   5.923   0.871   5.094
 1397TIP3    H2 4133   6.026   0.790   5.170
 1398TIP3   OH2 4134   2.565   6.881   6.605
 1398TIP3    H1 4135   2.557   6.951   6.669
 1398TIP3    H2 4136   2.567   6.801   6.657
 1399TIP3   OH2 4137   8.156   1.241   3.841
 1399TIP3    H1 4138   8.084   1.224   3.902
 1399TIP3    H2 4139   8.115   1.291   3.770
 1400TIP3   OH2 4140   7.097   1.331   6.696
 1400TIP3    H1 4141   7.030   1.399   6.684
 1400TIP3    H2 4142   7.122   1.306   6.607
 1401TIP3   OH2 4143   4.686   2.992   3.558
 1401TIP3    H1 4144   4.626   3.002   3.631
 1401TIP3    H2 4145   4.709   3.081   3.532
 1402TIP3   OH2 4146   2.473   0.306   0.509
 1402TIP3    H1 4147   2.401   0.250   0.537
 1402TIP3    H2 4148   2.551   0.252   0.519
 1403TIP3   OH2 4149   8.041   4.040   0.138
 1403TIP3    H1 4150   8.095   4.113   0.107
 1403TIP3    H2 4151   7.982   4.079   0.203
 1404TIP3   OH2 4152   6.485   6.531   3.152
 1404TIP3    H1 4153   6.547   6.515   3.081
 1404TIP3    H2 4154   6.490   6.625   3.169
 1405TIP3   OH2 4155   2.112   7.274   5.738
 1405TIP3    H1 4156   2.134   7.217   5.812
 1405TIP3    H2 4157   2.082   7.356   5.779
 1406TIP3   OH2 4158   1.622   6.202   5.776
 1406TIP3    H1 4159   1.530   6.176   5.788
 1406TIP3    H2 4160   1.627   6.288   5.817
 1407TIP3   OH2 4161   7.302   0.460   6.625
 1407TIP3    H1 4162   7.321   0.548   6.593
 1407TIP3    H2 4163   7.373   0.441   6.686
 1408TIP3   OH2 4164   8.319   2.471   3.043
 1408TIP3    H1 4165   8.301   2.507   2.957
 1408TIP3    H2 4166   8.304   2.377   3.034
 1409TIP3   OH2 4167   7.956   5.538   3.586
 1409TIP3    H1 4168   8.049   5.519   3.582
 1409TIP3    H2 4169   7.914   5.471   3.533
 1410TIP3   OH2 4170   3.061   2.505   6.361
 1410TIP3    H1 4171   3.041   2.558   6.283
 1410TIP3    H2 4172   2.986   2.446   6.370
 1411TIP3   OH2 4173   2.367   5.361   0.365
 1411TIP3    H1 4174   2.290   5.411   0.342
 1411TIP3    H2 4175   2.360   5.281   0.313
 1412TIP3   OH2 4176   3.517   5.816   5.601
 1412TIP3    H1 4177   3.590   5.762   5.570
 1412TIP3    H2 4178   3.526   5.898   5.553
 1413TIP3   OH2 4179   2.953   0.568   1.798
 1413TIP3    H1 4180   2.955   0.557   1.893
 1413TIP3    H2 4181   2.912   0.488   1.766
 1414TIP3   OH2 4182   7.230   6.884   3.162
 1414TIP3    H1 4183   7.288   6.953   3.193
 1414TIP3    H2 4184   7.142   6.921   3.166
 1415TIP3   OH2 4185   3.141   2.519   6.714
 1415TIP3    H1 4186   3.187   2.549   6.792
 1415TIP3    H2 4187   3.122   2.600   6.665
 1416TIP3   OH2 4188   4.087   0.626   5.529
 1416TIP3    H1 4189   4.118   0.656   5.614
 1416TIP3    H2 4190   4.115   0.534   5.525
 1417TIP3   OH2 4191   2.854   5.772   2.486
 1417TIP3    H1 4192   2.905   5.843   2.447
 1417TIP3    H2 4193   2.814   5.811   2.564
 1418TIP3   OH2 4194   7.577   4.994   1.538
 1418TIP3    H1 4195   7.586   5.051   1.614
 1418TIP3    H2 4196   7.628   5.037   1.469
 1419TIP3   OH2 4197   5.724   2.465   2.427
 1419TIP3    H1 4198   5.717   2.489   2.334
 1419TIP3    H2 4199   5.769   2.381   2.428
 1420TIP3   OH2 4200   7.144   3.037   0.642
 1420TIP3    H1 4201   7.113   3.127   0.648
 1420TIP3    H2 4202   7.152   3.008   0.733
 1421TIP3   OH2 4203   0.317   1.133   3.475
 1421TIP3    H1 4204   0.230   1.173   3.480
 1421TIP3    H2 4205   0.300   1.044   3.443
 1422TIP3   OH2 4206   1.421   2.590   6.240
 1422TIP3    H1 4207   1.511   2.559   6.228
 1422TIP3    H2 4208   1.414   2.609   6.334
 1423TIP3   OH2 4209   3.935   4.849   6.127
 1423TIP3    H1 4210   4.014   4.880   6.084
 1423TIP3    H2 4211   3.930   4.756   6.103
 1424TIP3   OH2 4212   6.511   7.595   1.601
 1424TIP3    H1 4213   6.602   7.567   1.587
 1424TIP3    H2 4214   6.470   7.520   1.644
 1425TIP3   OH2 4215   4.811   0.141   3.967
 1425TIP3    H1 4216   4.851   0.054   3.956
 1425TIP3    H2 4217   4.843   0.191   3.891
 1426TIP3   OH2 4218   4.850   2.324   1.348
 1426TIP3    H1 4219   4.858   2.418   1.362
 1426TIP3    H2 4220   4.785   2.296   1.413
 1427TIP3   OH2 4221   3.700   1.787   2.693
 1427TIP3    H1 4222   3.705   1.692   2.699
 1427TIP3    H2 4223   3.697   1.805   2.599
 1428TIP3   OH2 4224   3.958   1.630   3.620
 1428TIP3    H1 4225   3.914   1.629   3.534
 1428TIP3    H2 4226   4.043   1.588   3.604
 1429TIP3   OH2 4227   7.263   6.279   6.572
 1429TIP3    H1 4228   7.331   6.261   6.507
 1429TIP3    H2 4229   7.223   6.194   6.590
 1430TIP3   OH2 4230   3.319   6.650   5.293
 1430TIP3    H1 4231   3.411   6.663   5.315
 1430TIP3    H2 4232   3.309   6.556   5.282
 1431TIP3   OH2 4233   2.062   2.355   6.625
 1431TIP3    H1 4234   1.996   2.389   6.685
 1431TIP3    H2 4235   2.132   2.421   6.625
 1432TIP3   OH2 4236   0.288   1.843   2.366
 1432TIP3    H1 4237   0.332   1.831   2.450
 1432TIP3    H2 4238   0.241   1.761   2.352
 1433TIP3   OH2 4239   5.794   5.871   0.664
 1433TIP3    H1 4240   5.823   5.958   0.635
 1433TIP3    H2 4241   5.845   5.854   0.744
 1434TIP3   OH2 4242   2.962   2.212   2.025
 1434TIP3    H1 4243   2.977   2.303   2.053
 1434TIP3    H2 4244   2.874   2.213   1.987
 1435TIP3   OH2 4245   0.063   7.806   4.864
 1435TIP3    H1 4246   0.039   7.789   4.955
 1435TIP3    H2 4247  -0.020   7.827   4.821
 1436TIP3   OH2 4248   4.008   6.942   1.469
 1436TIP3    H1 4249   4.099   6.962   1.447
 1436TIP3    H2 4250   3.991   6.858   1.427
 1437TIP3   OH2 4251   7.667   4.249   4.501
 1437TIP3    H1 4252   7.668   4.272   4.408
 1437TIP3    H2 4253   7.671   4.333   4.546
 1438TIP3   OH2 4254   0.755   5.172   5.033
 1438TIP3    H1 4255   0.844   5.149   5.004
 1438TIP3    H2 4256   0.763   5.260   5.068
 1439TIP3   OH2 4257   0.100   3.120   1.604
 1439TIP3    H1 4258   0.037   3.157   1.542
 1439TIP3    H2 4259   0.087   3.025   1.597
 1440TIP3   OH2 4260   7.266   1.210   1.107
 1440TIP3    H1 4261   7.185   1.257   1.127
 1440TIP3    H2 4262   7.281   1.224   1.014
 1441TIP3   OH2 4263   6.503   3.039   4.522
 1441TIP3    H1 4264   6.576   3.095   4.547
 1441TIP3    H2 4265   6.518   2.957   4.569
 1442TIP3   OH2 4266   5.071   6.299   0.703
 1442TIP3    H1 4267   5.003   6.231   0.712
 1442TIP3    H2 4268   5.032   6.377   0.743
 1443TIP3   OH2 4269   5.666   1.206   5.056
 1443TIP3    H1 4270   5.571   1.204   5.047
 1443TIP3    H2 4271   5.696   1.258   4.981
 1444TIP3   OH2 4272   8.353   7.217   0.626
 1444TIP3    H1 4273   8.397   7.299   0.602
 1444TIP3    H2 4274   8.329   7.177   0.543
 1445TIP3   OH2 4275   2.129   4.049   0.144
 1445TIP3    H1 4276   2.110   4.084   0.231
 1445TIP3    H2 4277   2.130   3.954   0.156
 1446TIP3   OH2 4278   2.827   7.166   1.379
 1446TIP3    H1 4279   2.875   7.249   1.374
 1446TIP3    H2 4280   2.735   7.192   1.374
 1447TIP3   OH2 4281   0.301   5.868   2.189
 1447TIP3    H1 4282   0.233   5.813   2.150
 1447TIP3    H2 4283   0.258   5.952   2.204
 1448TIP3   OH2 4284   6.129   0.771   2.817
 1448TIP3    H1 4285   6.216   0.807   2.797
 1448TIP3    H2 4286   6.137   0.740   2.907
 1449TIP3   OH2 4287   5.171   6.728   5.121
 1449TIP3    H1 4288   5.209   6.742   5.034
 1449TIP3    H2 4289   5.092   6.677   5.104
 1450TIP3   OH2 4290   0.586   1.405   4.748
 1450TIP3    H1 4291   0.553   1.456   4.674
 1450TIP3    H2 4292   0.528   1.428   4.821
 1451TIP3   OH2 4293   6.310   2.965   3.192
 1451TIP3    H1 4294   6.291   2.913   3.270
 1451TIP3    H2 4295   6.240   3.031   3.190
 1452TIP3   OH2 4296   5.777   2.631   0.723
 1452TIP3    H1 4297   5.710   2.563   0.723
 1452TIP3    H2 4298   5.833   2.608   0.649
 1453TIP3   OH2 4299   6.735   2.592   5.964
 1453TIP3    H1 4300   6.760   2.515   6.015
 1453TIP3    H2 4301   6.804   2.656   5.981
 1454TIP3   OH2 4302   1.862   4.522   0.077
 1454TIP3    H1 4303   1.947   4.563   0.094
 1454TIP3    H2 4304   1.799   4.593   0.089
 1455TIP3   OH2 4305   3.530   3.569   4.359
 1455TIP3    H1 4306   3.514   3.608   4.273
 1455TIP3    H2 4307   3.608   3.612   4.392
 1456TIP3   OH2 4308   6.641   6.776   6.773
 1456TIP3    H1 4309   6.697   6.699   6.768
 1456TIP3    H2 4310   6.701   6.850   6.782
 1457TIP3   OH2 4311   6.875   6.820   6.521
 1457TIP3    H1 4312   6.851   6.913   6.523
 1457TIP3    H2 4313   6.962   6.817   6.558
 1458TIP3   OH2 4314   5.385   7.860   2.631
 1458TIP3    H1 4315   5.313   7.798   2.647
 1458TIP3    H2 4316   5.392   7.909   2.713
 1459TIP3   OH2 4317   5.630   6.654   3.066
 1459TIP3    H1 4318   5.706   6.709   3.084
 1459TIP3    H2 4319   5.643   6.576   3.120
 1460TIP3   OH2 4320   2.121   7.144   0.948
 1460TIP3    H1 4321   2.201   7.193   0.929
 1460TIP3    H2 4322   2.092   7.176   1.033
 1461TIP3   OH2 4323   6.170   4.173   2.738
 1461TIP3    H1 4324   6.111   4.133   2.802
 1461TIP3    H2 4325   6.218   4.240   2.787
 1462TIP3   OH2 4326   7.267   1.803   3.716
 1462TIP3    H1 4327   7.337   1.860   3.683
 1462TIP3    H2 4328   7.309   1.717   3.727
 1463TIP3   OH2 4329   3.202   4.393   6.025
 1463TIP3    H1 4330   3.240   4.383   6.112
 1463TIP3    H2 4331   3.159   4.479   6.028
 1464TIP3   OH2 4332   5.424   0.570   3.384
 1464TIP3    H1 4333   5.440   0.476   3.381
 1464TIP3    H2 4334   5.412   0.596   3.292
 1465TIP3   OH2 4335   8.269   4.856   4.240
 1465TIP3    H1 4336   8.205   4.801   4.285
 1465TIP3    H2 4337   8.251   4.945   4.272
 1466TIP3   OH2 4338   6.304   0.632   5.606
 1466TIP3    H1 4339   6.289   0.727   5.606
 1466TIP3    H2 4340   6.238   0.598   5.668
 1467TIP3   OH2 4341   1.899   3.531   0.932
 1467TIP3    H1 4342   1.866   3.477   1.004
 1467TIP3    H2 4343   1.928   3.468   0.866
 1468TIP3   OH2 4344   0.646   1.345   1.499
 1468TIP3    H1 4345   0.565   1.377   1.458
 1468TIP3    H2 4346   0.686   1.422   1.537
 1469TIP3   OH2 4347   4.002   2.006   5.147
 1469TIP3    H1 4348   4.033   2.083   5.099
 1469TIP3    H2 4349   4.009   1.934   5.084
 1470TIP3   OH2 4350   7.894   2.660   1.060
 1470TIP3    H1 4351   7.955   2.693   1.126
 1470TIP3    H2 4352   7.809   2.660   1.103
 1471TIP3   OH2 4353   5.063   5.124   5.179
 1471TIP3    H1 4354   4.979   5.103   5.138
 1471TIP3    H2 4355   5.121   5.053   5.151
 1472TIP3   OH2 4356   0.408   4.374   2.169
 1472TIP3    H1 4357   0.493   4.372   2.213
 1472TIP3    H2 4358   0.346   4.348   2.236
 1473TIP3   OH2 4359   7.826   1.771   0.390
 1473TIP3    H1 4360   7.785   1.710   0.451
 1473TIP3    H2 4361   7.849   1.717   0.314
 1474TIP3   OH2 4362   4.030   7.255   0.165
 1474TIP3    H1 4363   4.083   7.290   0.093
 1474TIP3    H2 4364   4.015   7.163   0.141
 1475TIP3   OH2 4365   6.886   1.421   1.418
 1475TIP3    H1 4366   6.956   1.400   1.480
 1475TIP3    H2 4367   6.821   1.468   1.470
 1476TIP3   OH2 4368   2.999   1.601   4.551
 1476TIP3    H1 4369   3.057   1.528   4.529
 1476TIP3    H2 4370   3.054   1.678   4.543
 1477TIP3   OH2 4371   6.640   6.312   3.838
 1477TIP3    H1 4372   6.730   6.310   3.872
 1477TIP3    H2 4373   6.607   6.399   3.861
 1478TIP3   OH2 4374   0.720   2.298   0.082
 1478TIP3    H1 4375   0.724   2.371   0.021
 1478TIP3    H2 4376   0.738   2.221   0.028
 1479TIP3   OH2 4377   4.844   3.085   1.495
 1479TIP3    H1 4378   4.919   3.142   1.511
 1479TIP3    H2 4379   4.796   3.086   1.578
 1480TIP3   OH2 4380   5.040   6.606   1.747
 1480TIP3    H1 4381   5.092   6.651   1.813
 1480TIP3    H2 4382   5.034   6.516   1.779
 1481TIP3   OH2 4383   1.007   3.858   4.737
 1481TIP3    H1 4384   0.965   3.854   4.651
 1481TIP3    H2 4385   0.937   3.835   4.799
 1482TIP3   OH2 4386   1.108   6.327   1.251
 1482TIP3    H1 4387   1.140   6.287   1.332
 1482TIP3    H2 4388   1.116   6.421   1.265
 1483TIP3   OH2 4389   5.807   2.859   3.602
 1483TIP3    H1 4390   5.761   2.922   3.657
 1483TIP3    H2 4391   5.856   2.913   3.540
 1484TIP3   OH2 4392   0.259   6.592   2.561
 1484TIP3    H1 4393   0.172   6.611   2.594
 1484TIP3    H2 4394   0.246   6.521   2.499
 1485TIP3   OH2 4395   6.118   3.186   6.694
 1485TIP3    H1 4396   6.089   3.136   6.770
 1485TIP3    H2 4397   6.049   3.250   6.679
 1486TIP3   OH2 4398   6.627   4.817   0.996
 1486TIP3    H1 4399   6.562   4.818   0.926
 1486TIP3    H2 4400   6.615   4.901   1.041
 1487TIP3   OH2 4401   3.597   6.059   1.139
 1487TIP3    H1 4402   3.574   6.001   1.065
 1487TIP3    H2 4403   3.685   6.090   1.119
 1488TIP3   OH2 4404   4.947   6.720   0.960
 1488TIP3    H1 4405   4.909   6.647   1.009
 1488TIP3    H2 4406   4.872   6.776   0.938
 1489TIP3   OH2 4407   5.675   2.567   6.482
 1489TIP3    H1 4408   5.758   2.579   6.435
 1489TIP3    H2 4409   5.679   2.632   6.553
 1490TIP3   OH2 4410   1.738   5.452   0.051
 1490TIP3    H1 4411   1.645   5.430   0.052
 1490TIP3    H2 4412   1.743   5.537   0.095
 1491TIP3   OH2 4413   0.954   4.608   0.010
 1491TIP3    H1 4414   1.035   4.640   0.049
 1491TIP3    H2 4415   0.977   4.525  -0.030
 1492TIP3   OH2 4416   7.373   1.948   0.497
 1492TIP3    H1 4417   7.412   2.035   0.498
 1492TIP3    H2 4418   7.326   1.943   0.414
 1493TIP3   OH2 4419   2.121   3.478   1.474
 1493TIP3    H1 4420   2.099   3.435   1.391
 1493TIP3    H2 4421   2.073   3.429   1.540
 1494TIP3   OH2 4422   5.603   1.579   6.698
 1494TIP3    H1 4423   5.603   1.632   6.778
 1494TIP3    H2 4424   5.512   1.553   6.686
 1495TIP3   OH2 4425   4.399   3.142   4.066
 1495TIP3    H1 4426   4.468   3.118   4.128
 1495TIP3    H2 4427   4.375   3.060   4.023
 1496TIP3   OH2 4428   5.356   1.768   6.363
 1496TIP3    H1 4429   5.287   1.821   6.323
 1496TIP3    H2 4430   5.388   1.821   6.436
 1497TIP3   OH2 4431   0.286   1.505   2.390
 1497TIP3    H1 4432   0.198   1.526   2.421
 1497TIP3    H2 4433   0.326   1.454   2.461
 1498TIP3   OH2 4434   8.115   5.723   2.414
 1498TIP3    H1 4435   8.094   5.786   2.346
 1498TIP3    H2 4436   8.076   5.759   2.494
 1499TIP3   OH2 4437   2.313   7.353   2.227
 1499TIP3    H1 4438   2.304   7.390   2.314
 1499TIP3    H2 4439   2.388   7.294   2.234
 1500TIP3   OH2 4440   5.893   7.412   3.319
 1500TIP3    H1 4441   5.887   7.343   3.252
 1500TIP3    H2 4442   5.955   7.475   3.283
 1501TIP3   OH2 4443   6.642   3.164   4.966
 1501TIP3    H1 4444   6.585   3.187   5.039
 1501TIP3    H2 4445   6.688   3.085   4.994
 1502TIP3   OH2 4446   4.341   2.130   0.136
 1502TIP3    H1 4447   4.418   2.098   0.183
 1502TIP3    H2 4448   4.316   2.210   0.182
 1503TIP3   OH2 4449   4.961   0.493   4.375
 1503TIP3    H1 4450   4.911   0.559   4.326
 1503TIP3    H2 4451   4.965   0.418   4.315
 1504TIP3   OH2 4452   5.651   4.221   6.317
 1504TIP3    H1 4453   5.611   4.300   6.354
 1504TIP3    H2 4454   5.610   4.211   6.231
 1505TIP3   OH2 4455   2.628   4.563   3.048
 1505TIP3    H1 4456   2.535   4.552   3.067
 1505TIP3    H2 4457   2.646   4.655   3.069
 1506TIP3   OH2 4458   4.493   5.155   5.664
 1506TIP3    H1 4459   4.449   5.195   5.589
 1506TIP3    H2 4460   4.586   5.176   5.650
 1507TIP3   OH2 4461   7.051   5.068   5.603
 1507TIP3    H1 4462   7.097   5.127   5.543
 1507TIP3    H2 4463   6.992   5.126   5.653
 1508TIP3   OH2 4464   6.743   3.849   0.089
 1508TIP3    H1 4465   6.718   3.849  -0.003
 1508TIP3    H2 4466   6.787   3.932   0.103
 1509TIP3   OH2 4467   6.939   0.003   4.103
 1509TIP3    H1 4468   6.968  -0.073   4.153
 1509TIP3    H2 4469   6.976   0.078   4.150
 1510TIP3   OH2 4470   6.404   1.272   1.450
 1510TIP3    H1 4471   6.361   1.340   1.399
 1510TIP3    H2 4472   6.342   1.252   1.520
 1511TIP3   OH2 4473   4.592   2.467   4.869
 1511TIP3    H1 4474   4.655   2.450   4.799
 1511TIP3    H2 4475   4.586   2.385   4.917
 1512TIP3   OH2 4476   5.026   3.275   2.747
 1512TIP3    H1 4477   4.957   3.341   2.750
 1512TIP3    H2 4478   5.084   3.303   2.676
 1513TIP3   OH2 4479   5.846   5.004   3.109
 1513TIP3    H1 4480   5.836   4.921   3.063
 1513TIP3    H2 4481   5.941   5.017   3.115
 1514TIP3   OH2 4482   1.499   7.731   5.337
 1514TIP3    H1 4483   1.547   7.728   5.420
 1514TIP3    H2 4484   1.531   7.655   5.289
 1515TIP3   OH2 4485   7.974   6.665   6.818
 1515TIP3    H1 4486   8.026   6.690   6.741
 1515TIP3    H2 4487   8.016   6.711   6.890
 1516TIP3   OH2 4488   3.470   4.246   0.244
 1516TIP3    H1 4489   3.388   4.226   0.289
 1516TIP3    H2 4490   3.450   4.236   0.151
 1517TIP3   OH2 4491   8.089   6.048   3.958
 1517TIP3    H1 4492   8.066   6.076   3.870
 1517TIP3    H2 4493   8.015   5.994   3.986
 1518TIP3   OH2 4494   3.037   4.292   1.814
 1518TIP3    H1 4495   3.090   4.218   1.841
 1518TIP3    H2 4496   3.094   4.368   1.826
 1519TIP3   OH2 4497   0.896   4.962   3.877
 1519TIP3    H1 4498   0.900   4.950   3.782
 1519TIP3    H2 4499   0.875   4.875   3.911
 1520TIP3   OH2 4500   6.185   4.422   6.411
 1520TIP3    H1 4501   6.129   4.355   6.374
 1520TIP3    H2 4502   6.274   4.393   6.391
 1521TIP3   OH2 4503   5.313   0.950   5.233
 1521TIP3    H1 4504   5.220   0.946   5.210
 1521TIP3    H2 4505   5.333   0.863   5.268
 1522TIP3   OH2 4506   6.918   2.232   2.535
 1522TIP3    H1 4507   6.985   2.293   2.564
 1522TIP3    H2 4508   6.840   2.255   2.585
 1523TIP3   OH2 4509   7.035   0.965   6.440
 1523TIP3    H1 4510   7.090   0.904   6.391
 1523TIP3    H2 4511   7.096   1.011   6.498
 1524TIP3   OH2 4512   3.885   3.171   5.028
 1524TIP3    H1 4513   3.916   3.180   4.938
 1524TIP3    H2 4514   3.791   3.158   5.020
 1525TIP3   OH2 4515   1.837   0.068   6.167
 1525TIP3    H1 4516   1.815   0.078   6.075
 1525TIP3    H2 4517   1.889  -0.012   6.171
 1526TIP3   OH2 4518   3.844   3.874   2.036
 1526TIP3    H1 4519   3.929   3.869   1.992
 1526TIP3    H2 4520   3.835   3.965   2.062
 1527TIP3   OH2 4521   4.452   5.507   2.974
 1527TIP3    H1 4522   4.536   5.465   2.956
 1527TIP3    H2 4523   4.476   5.594   3.006
 1528TIP3   OH2 4524   7.269   5.517   4.151
 1528TIP3    H1 4525   7.284   5.425   4.133
 1528TIP3    H2 4526   7.336   5.563   4.101
 1529TIP3   OH2 4527   4.183   3.689   2.407
 1529TIP3    H1 4528   4.188   3.724   2.318
 1529TIP3    H2 4529   4.107   3.632   2.407
 1530TIP3   OH2 4530   3.400   4.070   6.558
 1530TIP3    H1 4531   3.382   3.982   6.526
 1530TIP3    H2 4532   3.476   4.099   6.507
 1531TIP3   OH2 4533   1.064   7.312   5.615
 1531TIP3    H1 4534   0.982   7.318   5.566
 1531TIP3    H2 4535   1.108   7.234   5.579
 1532TIP3   OH2 4536   3.587   7.284   0.634
 1532TIP3    H1 4537   3.671   7.268   0.590
 1532TIP3    H2 4538   3.565   7.200   0.674
 1533TIP3   OH2 4539   1.781   7.565   2.831
 1533TIP3    H1 4540   1.810   7.626   2.762
 1533TIP3    H2 4541   1.853   7.563   2.893
 1534TIP3   OH2 4542   3.274   1.413   2.398
 1534TIP3    H1 4543   3.292   1.466   2.475
 1534TIP3    H2 4544   3.355   1.418   2.346
 1535TIP3   OH2 4545   1.051   0.713   4.331
 1535TIP3    H1 4546   1.105   0.668   4.396
 1535TIP3    H2 4547   1.074   0.673   4.248
 1536TIP3   OH2 4548   1.170   3.994   3.323
 1536TIP3    H1 4549   1.151   3.901   3.336
 1536TIP3    H2 4550   1.249   3.995   3.270
 1537TIP3   OH2 4551   0.824   7.455   3.865
 1537TIP3    H1 4552   0.908   7.436   3.823
 1537TIP3    H2 4553   0.760   7.453   3.793
 1538TIP3   OH2 4554   7.554   6.685   0.738
 1538TIP3    H1 4555   7.616   6.672   0.810
 1538TIP3    H2 4556   7.468   6.690   0.780
 1539TIP3   OH2 4557   6.969   2.907   0.456
 1539TIP3    H1 4558   7.022   2.953   0.521
 1539TIP3    H2 4559   6.890   2.959   0.448
 1540TIP3   OH2 4560   1.210   0.960   1.669
 1540TIP3    H1 4561   1.127   0.991   1.707
 1540TIP3    H2 4562   1.252   0.911   1.739
 1541TIP3   OH2 4563   5.674   0.158   1.444
 1541TIP3    H1 4564   5.693   0.252   1.433
 1541TIP3    H2 4565   5.760   0.117   1.448
 1542TIP3   OH2 4566   5.541   6.059   1.924
 1542TIP3    H1 4567   5.499   6.065   1.838
 1542TIP3    H2 4568   5.617   6.117   1.917
 1543TIP3   OH2 4569   0.855   2.087   2.447
 1543TIP3    H1 4570   0.764   2.086   2.479
 1543TIP3    H2 4571   0.890   2.001   2.473
 1544TIP3   OH2 4572   2.883   5.416   4.053
 1544TIP3    H1 4573   2.937   5.438   3.978
 1544TIP3    H2 4574   2.793   5.436   4.026
 1545TIP3   OH2 4575   5.923   2.692   4.466
 1545TIP3    H1 4576   5.969   2.641   4.400
 1545TIP3    H2 4577   5.927   2.639   4.545
 1546TIP3   OH2 4578   1.786   2.561   6.200
 1546TIP3    H1 4579   1.735   2.481   6.209
 1546TIP3    H2 4580   1.860   2.549   6.259
 1547TIP3   OH2 4581   4.860   2.501   2.084
 1547TIP3    H1 4582   4.842   2.411   2.109
 1547TIP3    H2 4583   4.880   2.497   1.990
 1548TIP3   OH2 4584   3.805   2.639   1.647
 1548TIP3    H1 4585   3.755   2.561   1.624
 1548TIP3    H2 4586   3.812   2.635   1.743
 1549TIP3   OH2 4587   6.935   6.969   0.301
 1549TIP3    H1 4588   6.866   7.005   0.245
 1549TIP3    H2 4589   7.015   6.983   0.251
 1550TIP3   OH2 4590   3.976   0.834   5.265
 1550TIP3    H1 4591   3.936   0.826   5.179
 1550TIP3    H2 4592   3.921   0.781   5.323
 1551TIP3   OH2 4593   4.250   1.078   2.436
 1551TIP3    H1 4594   4.187   1.007   2.449
 1551TIP3    H2 4595   4.306   1.048   2.365
 1552TIP3   OH2 4596   1.172   0.230   2.821
 1552TIP3    H1 4597   1.130   0.247   2.736
 1552TIP3    H2 4598   1.100   0.206   2.879
 1553TIP3   OH2 4599   5.328   3.958   4.088
 1553TIP3    H1 4600   5.236   3.982   4.096
 1553TIP3    H2 4601   5.374   4.022   4.142
 1554TIP3   OH2 4602   6.758   0.851   4.574
 1554TIP3    H1 4603   6.780   0.761   4.548
 1554TIP3    H2 4604   6.744   0.846   4.668
 1555TIP3   OH2 4605   2.242   0.549   5.430
 1555TIP3    H1 4606   2.232   0.513   5.518
 1555TIP3    H2 4607   2.154   0.576   5.404
 1556TIP3   OH2 4608   5.363   6.077   1.690
 1556TIP3    H1 4609   5.281   6.040   1.724
 1556TIP3    H2 4610   5.344   6.170   1.679
 1557TIP3   OH2 4611   4.401   7.435   3.029
 1557TIP3    H1 4612   4.473   7.469   3.082
 1557TIP3    H2 4613   4.371   7.358   3.077
 1558TIP3   OH2 4614   4.872   0.590   2.410
 1558TIP3    H1 4615   4.927   0.565   2.336
 1558TIP3    H2 4616   4.931   0.636   2.470
 1559TIP3   OH2 4617   2.317   2.491   2.457
 1559TIP3    H1 4618   2.264   2.544   2.516
 1559TIP3    H2 4619   2.261   2.417   2.434
 1560TIP3   OH2 4620   2.173   4.541   1.441
 1560TIP3    H1 4621   2.163   4.450   1.413
 1560TIP3    H2 4622   2.267   4.550   1.458
 1561TIP3   OH2 4623   8.206   4.093   3.610
 1561TIP3    H1 4624   8.228   4.068   3.520
 1561TIP3    H2 4625   8.187   4.010   3.654
 1562TIP3   OH2 4626   2.164   2.702   1.379
 1562TIP3    H1 4627   2.235   2.734   1.323
 1562TIP3    H2 4628   2.097   2.671   1.318
 1563TIP3   OH2 4629   3.107   5.768   5.128
 1563TIP3    H1 4630   3.093   5.721   5.210
 1563TIP3    H2 4631   3.202   5.769   5.118
 1564TIP3   OH2 4632   6.617   2.687   2.015
 1564TIP3    H1 4633   6.522   2.694   2.004
 1564TIP3    H2 4634   6.653   2.748   1.951
 1565TIP3   OH2 4635   5.897   7.141   4.838
 1565TIP3    H1 4636   5.909   7.087   4.760
 1565TIP3    H2 4637   5.958   7.105   4.902
 1566TIP3   OH2 4638   0.164   7.320   5.243
 1566TIP3    H1 4639   0.224   7.358   5.308
 1566TIP3    H2 4640   0.139   7.393   5.187
 1567TIP3   OH2 4641   3.107   5.150   2.024
 1567TIP3    H1 4642   3.067   5.155   1.937
 1567TIP3    H2 4643   3.063   5.077   2.067
 1568TIP3   OH2 4644   5.959   7.888   5.928
 1568TIP3    H1 4645   5.935   7.840   5.848
 1568TIP3    H2 4646   6.053   7.903   5.919
 1569TIP3   OH2 4647   6.480   0.181   2.548
 1569TIP3    H1 4648   6.502   0.091   2.523
 1569TIP3    H2 4649   6.518   0.192   2.635
 1570TIP3   OH2 4650   7.023   6.818   3.615
 1570TIP3    H1 4651   7.029   6.726   3.589
 1570TIP3    H2 4652   6.932   6.842   3.595
 1571TIP3   OH2 4653   2.328   3.614   0.455
 1571TIP3    H1 4654   2.245   3.577   0.425
 1571TIP3    H2 4655   2.341   3.576   0.542
 1572TIP3   OH2 4656   6.638   1.739   2.296
 1572TIP3    H1 4657   6.677   1.784   2.221
 1572TIP3    H2 4658   6.658   1.646   2.281
 1573TIP3   OH2 4659   0.924   6.075   1.965
 1573TIP3    H1 4660   0.859   6.110   2.025
 1573TIP3    H2 4661   0.995   6.139   1.966
 1574TIP3   OH2 4662   4.600   7.163   0.407
 1574TIP3    H1 4663   4.656   7.236   0.380
 1574TIP3    H2 4664   4.557   7.194   0.486
 1575TIP3   OH2 4665   4.284   6.665   4.305
 1575TIP3    H1 4666   4.194   6.688   4.325
 1575TIP3    H2 4667   4.298   6.695   4.216
 1576TIP3   OH2 4668   0.421   1.179   2.282
 1576TIP3    H1 4669   0.424   1.275   2.282
 1576TIP3    H2 4670   0.362   1.157   2.210
 1577TIP3   OH2 4671   7.381   2.140   1.502
 1577TIP3    H1 4672   7.417   2.217   1.546
 1577TIP3    H2 4673   7.443   2.070   1.521
 1578TIP3   OH2 4674   1.568   7.137   0.620
 1578TIP3    H1 4675   1.549   7.222   0.579
 1578TIP3    H2 4676   1.607   7.085   0.550
 1579TIP3   OH2 4677   5.952   5.388   5.080
 1579TIP3    H1 4678   5.987   5.390   4.991
 1579TIP3    H2 4679   5.901   5.469   5.088
 1580TIP3   OH2 4680   1.615   0.412   5.520
 1580TIP3    H1 4681   1.577   0.365   5.446
 1580TIP3    H2 4682   1.660   0.486   5.481
 1581TIP3   OH2 4683   5.496   0.656   0.834
 1581TIP3    H1 4684   5.491   0.589   0.901
 1581TIP3    H2 4685   5.464   0.613   0.754
 1582TIP3   OH2 4686   8.198   4.373   1.131
 1582TIP3    H1 4687   8.160   4.380   1.044
 1582TIP3    H2 4688   8.130   4.330   1.184
 1583TIP3   OH2 4689   0.157   3.369   5.319
 1583TIP3    H1 4690   0.107   3.428   5.375
 1583TIP3    H2 4691   0.110   3.369   5.236
 1584TIP3   OH2 4692   2.521   3.984   4.558
 1584TIP3    H1 4693   2.522   3.892   4.584
 1584TIP3    H2 4694   2.436   4.017   4.587
 1585TIP3   OH2 4695   0.512   6.741   0.957
 1585TIP3    H1 4696   0.581   6.790   1.002
 1585TIP3    H2 4697   0.431   6.787   0.980
 1586TIP3   OH2 4698   2.347   0.908   1.713
 1586TIP3    H1 4699   2.363   0.927   1.805
 1586TIP3    H2 4700   2.425   0.861   1.684
 1587TIP3   OH2 4701   2.033   3.760   1.795
 1587TIP3    H1 4702   2.074   3.727   1.715
 1587TIP3    H2 4703   1.944   3.783   1.768
 1588TIP3   OH2 4704   3.893   5.824   0.500
 1588TIP3    H1 4705   3.871   5.763   0.570
 1588TIP3    H2 4706   3.824   5.891   0.504
 1589TIP3   OH2 4707   4.671   6.718   6.431
 1589TIP3    H1 4708   4.631   6.803   6.411
 1589TIP3    H2 4709   4.600   6.655   6.418
 1590TIP3   OH2 4710   7.846   4.668   0.237
 1590TIP3    H1 4711   7.835   4.650   0.330
 1590TIP3    H2 4712   7.778   4.617   0.193
 1591TIP3   OH2 4713   0.401   6.223   3.463
 1591TIP3    H1 4714   0.405   6.179   3.549
 1591TIP3    H2 4715   0.450   6.165   3.405
 1592TIP3   OH2 4716   0.186   6.645   5.584
 1592TIP3    H1 4717   0.174   6.612   5.495
 1592TIP3    H2 4718   0.135   6.726   5.587
 1593TIP3   OH2 4719   3.312   3.047   1.233
 1593TIP3    H1 4720   3.345   3.135   1.213
 1593TIP3    H2 4721   3.217   3.058   1.241
 1594TIP3   OH2 4722   7.003   5.635   5.331
 1594TIP3    H1 4723   7.000   5.577   5.407
 1594TIP3    H2 4724   6.918   5.624   5.289
 1595TIP3   OH2 4725   6.279   4.112   6.046
 1595TIP3    H1 4726   6.362   4.103   6.094
 1595TIP3    H2 4727   6.289   4.193   5.996
 1596TIP3   OH2 4728   4.242   4.009   2.967
 1596TIP3    H1 4729   4.267   3.970   3.051
 1596TIP3    H2 4730   4.190   4.085   2.991
 1597TIP3   OH2 4731   3.746   3.591   0.196
 1597TIP3    H1 4732   3.696   3.528   0.144
 1597TIP3    H2 4733   3.731   3.675   0.153
 1598TIP3   OH2 4734   5.388   7.438   3.932
 1598TIP3    H1 4735   5.441   7.468   4.006
 1598TIP3    H2 4736   5.435   7.362   3.898
 1599TIP3   OH2 4737   6.606   5.161   6.319
 1599TIP3    H1 4738   6.695   5.195   6.325
 1599TIP3    H2 4739   6.580   5.144   6.410
 1600TIP3   OH2 4740   7.255   4.668   1.510
 1600TIP3    H1 4741   7.259   4.757   1.475
 1600TIP3    H2 4742   7.281   4.612   1.437
 1601TIP3   OH2 4743   4.114   2.505   5.106
 1601TIP3    H1 4744   4.115   2.531   5.014
 1601TIP3    H2 4745   4.139   2.413   5.105
 1602TIP3   OH2 4746   5.747   2.266   3.123
 1602TIP3    H1 4747   5.712   2.242   3.209
 1602TIP3    H2 4748   5.687   2.333   3.090
 1603TIP3   OH2 4749   3.893   7.005   1.953
 1603TIP3    H1 4750   3.933   6.953   1.883
 1603TIP3    H2 4751   3.914   6.958   2.033
 1604TIP3   OH2 4752   5.784   4.267   3.148
 1604TIP3    H1 4753   5.864   4.294   3.103
 1604TIP3    H2 4754   5.804   4.181   3.184
 1605TIP3   OH2 4755   3.478   6.532   2.932
 1605TIP3    H1 4756   3.543   6.570   2.873
 1605TIP3    H2 4757   3.394   6.551   2.891
 1606TIP3   OH2 4758   0.735   4.196   1.647
 1606TIP3    H1 4759   0.810   4.253   1.662
 1606TIP3    H2 4760   0.702   4.176   1.734
 1607TIP3   OH2 4761   7.054   0.237   4.252
 1607TIP3    H1 4762   7.132   0.190   4.222
 1607TIP3    H2 4763   7.060   0.234   4.348
 1608TIP3   OH2 4764   4.855   1.627   3.535
 1608TIP3    H1 4765   4.887   1.539   3.553
 1608TIP3    H2 4766   4.928   1.684   3.557
 1609TIP3   OH2 4767   3.799   3.464   3.850
 1609TIP3    H1 4768   3.750   3.505   3.778
 1609TIP3    H2 4769   3.866   3.529   3.873
 1610TIP3   OH2 4770   5.585   4.005   3.108
 1610TIP3    H1 4771   5.652   3.962   3.054
 1610TIP3    H2 4772   5.633   4.035   3.186
 1611TIP3   OH2 4773   2.323   7.187   5.181
 1611TIP3    H1 4774   2.370   7.123   5.127
 1611TIP3    H2 4775   2.239   7.144   5.201
 1612TIP3   OH2 4776   2.708   0.201   4.295
 1612TIP3    H1 4777   2.718   0.124   4.239
 1612TIP3    H2 4778   2.762   0.269   4.253
 1613TIP3   OH2 4779   0.660   7.007   4.885
 1613TIP3    H1 4780   0.735   6.971   4.933
 1613TIP3    H2 4781   0.601   6.933   4.875
 1614TIP3   OH2 4782   2.684   1.156   5.650
 1614TIP3    H1 4783   2.726   1.161   5.736
 1614TIP3    H2 4784   2.598   1.119   5.667
 1615TIP3   OH2 4785   4.487   4.422   2.310
 1615TIP3    H1 4786   4.543   4.350   2.280
 1615TIP3    H2 4787   4.515   4.439   2.400
 1616TIP3   OH2 4788   7.773   2.415   0.251
 1616TIP3    H1 4789   7.729   2.362   0.317
 1616TIP3    H2 4790   7.845   2.457   0.299
 1617TIP3   OH2 4791   6.817   3.154   3.363
 1617TIP3    H1 4792   6.908   3.146   3.391
 1617TIP3    H2 4793   6.780   3.224   3.418
 1618TIP3   OH2 4794   4.368   3.828   5.389
 1618TIP3    H1 4795   4.324   3.806   5.307
 1618TIP3    H2 4796   4.364   3.924   5.392
 1619TIP3   OH2 4797   6.687   2.268   4.820
 1619TIP3    H1 4798   6.700   2.198   4.755
 1619TIP3    H2 4799   6.734   2.343   4.785
 1620TIP3   OH2 4800   5.949   7.841   2.566
 1620TIP3    H1 4801   5.864   7.860   2.605
 1620TIP3    H2 4802   5.939   7.863   2.474
 1621TIP3   OH2 4803   4.534   3.416   6.829
 1621TIP3    H1 4804   4.547   3.389   6.920
 1621TIP3    H2 4805   4.607   3.375   6.782
 1622TIP3   OH2 4806   4.917   5.373   2.802
 1622TIP3    H1 4807   5.008   5.346   2.808
 1622TIP3    H2 4808   4.913   5.432   2.727
 1623TIP3   OH2 4809   6.618   1.239   1.791
 1623TIP3    H1 4810   6.570   1.241   1.709
 1623TIP3    H2 4811   6.648   1.329   1.805
 1624TIP3   OH2 4812   6.208   7.800   5.030
 1624TIP3    H1 4813   6.163   7.871   5.077
 1624TIP3    H2 4814   6.301   7.818   5.042
 1625TIP3   OH2 4815   1.773   0.228   3.786
 1625TIP3    H1 4816   1.819   0.307   3.814
 1625TIP3    H2 4817   1.816   0.204   3.703
 1626TIP3   OH2 4818   5.554   1.862   5.167
 1626TIP3    H1 4819   5.616   1.819   5.226
 1626TIP3    H2 4820   5.592   1.851   5.080
 1627TIP3   OH2 4821   4.450   0.459   4.268
 1627TIP3    H1 4822   4.436   0.373   4.227
 1627TIP3    H2 4823   4.495   0.439   4.350
 1628TIP3   OH2 4824   0.249   0.926   5.914
 1628TIP3    H1 4825   0.239   0.832   5.931
 1628TIP3    H2 4826   0.324   0.952   5.968
 1629TIP3   OH2 4827   6.072   7.595   6.140
 1629TIP3    H1 4828   5.982   7.621   6.119
 1629TIP3    H2 4829   6.062   7.524   6.204
 1630TIP3   OH2 4830   2.918   5.673   3.126
 1630TIP3    H1 4831   2.964   5.593   3.152
 1630TIP3    H2 4832   2.836   5.670   3.174
 1631TIP3   OH2 4833   4.090   4.117   0.588
 1631TIP3    H1 4834   4.132   4.203   0.580
 1631TIP3    H2 4835   4.045   4.105   0.505
 1632TIP3   OH2 4836   4.201   5.055   2.160
 1632TIP3    H1 4837   4.198   4.983   2.223
 1632TIP3    H2 4838   4.122   5.106   2.179
 1633TIP3   OH2 4839   0.563   2.562   0.916
 1633TIP3    H1 4840   0.533   2.502   0.847
 1633TIP3    H2 4841   0.608   2.506   0.979
 1634TIP3   OH2 4842   4.249   2.564   5.751
 1634TIP3    H1 4843   4.267   2.497   5.817
 1634TIP3    H2 4844   4.249   2.646   5.800
 1635TIP3   OH2 4845   4.688   4.668   3.920
 1635TIP3    H1 4846   4.593   4.658   3.926
 1635TIP3    H2 4847   4.716   4.592   3.869
 1636TIP3   OH2 4848   3.343   0.508   0.879
 1636TIP3    H1 4849   3.389   0.587   0.907
 1636TIP3    H2 4850   3.408   0.461   0.826
 1637TIP3   OH2 4851   6.206   7.665   4.347
 1637TIP3    H1 4852   6.130   7.620   4.310
 1637TIP3    H2 4853   6.216   7.627   4.434
 1638TIP3   OH2 4854   5.006   4.921   3.520
 1638TIP3    H1 4855   4.937   4.930   3.586
 1638TIP3    H2 4856   4.997   4.831   3.488
 1639TIP3   OH2 4857   3.181   7.514   4.084
 1639TIP3    H1 4858   3.263   7.556   4.058
 1639TIP3    H2 4859   3.196   7.484   4.173
 1640TIP3   OH2 4860   2.287   4.962   3.184
 1640TIP3    H1 4861   2.204   4.997   3.152
 1640TIP3    H2 4862   2.351   5.031   3.166
 1641TIP3   OH2 4863   6.167   0.154   6.739
 1641TIP3    H1 4864   6.199   0.225   6.794
 1641TIP3    H2 4865   6.242   0.128   6.686
 1642TIP3   OH2 4866   4.916   6.035   6.764
 1642TIP3    H1 4867   4.853   5.981   6.718
 1642TIP3    H2 4868   4.928   5.991   6.848
 1643TIP3   OH2 4869   5.161   5.958   6.252
 1643TIP3    H1 4870   5.244   5.910   6.242
 1643TIP3    H2 4871   5.158   6.017   6.177
 1644TIP3   OH2 4872   5.095   5.364   3.837
 1644TIP3    H1 4873   5.041   5.287   3.854
 1644TIP3    H2 4874   5.129   5.388   3.923
 1645TIP3   OH2 4875   7.328   2.838   1.410
 1645TIP3    H1 4876   7.350   2.827   1.318
 1645TIP3    H2 4877   7.396   2.897   1.444
 1646TIP3   OH2 4878   2.099   2.512   4.679
 1646TIP3    H1 4879   2.070   2.458   4.752
 1646TIP3    H2 4880   2.112   2.451   4.606
 1647TIP3   OH2 4881   6.411   0.865   0.124
 1647TIP3    H1 4882   6.436   0.902   0.209
 1647TIP3    H2 4883   6.355   0.791   0.146
 1648TIP3   OH2 4884   6.994   0.769   4.844
 1648TIP3    H1 4885   7.036   0.811   4.768
 1648TIP3    H2 4886   6.906   0.807   4.846
 1649TIP3   OH2 4887   1.430   5.474   0.824
 1649TIP3    H1 4888   1.350   5.448   0.869
 1649TIP3    H2 4889   1.441   5.566   0.847
 1650TIP3   OH2 4890   6.910   7.004   1.926
 1650TIP3    H1 4891   6.951   6.943   1.864
 1650TIP3    H2 4892   6.982   7.055   1.961
 1651TIP3   OH2 4893   5.485   0.148   0.968
 1651TIP3    H1 4894   5.552   0.102   1.018
 1651TIP3    H2 4895   5.534   0.213   0.917
 1652TIP3   OH2 4896   7.441   1.257   5.446
 1652TIP3    H1 4897   7.473   1.195   5.511
 1652TIP3    H2 4898   7.520   1.290   5.403
 1653TIP3   OH2 4899   5.553   6.764   6.155
 1653TIP3    H1 4900   5.475   6.764   6.210
 1653TIP3    H2 4901   5.521   6.790   6.069
 1654TIP3   OH2 4902   7.904   4.260   1.641
 1654TIP3    H1 4903   7.890   4.268   1.547
 1654TIP3    H2 4904   7.895   4.349   1.674
 1655TIP3   OH2 4905   0.229   7.193   4.370
 1655TIP3    H1 4906   0.210   7.279   4.407
 1655TIP3    H2 4907   0.228   7.206   4.276
 1656TIP3   OH2 4908   2.635   3.951   2.204
 1656TIP3    H1 4909   2.634   3.946   2.109
 1656TIP3    H2 4910   2.583   4.028   2.225
 1657TIP3   OH2 4911   2.456   6.805   3.451
 1657TIP3    H1 4912   2.463   6.778   3.542
 1657TIP3    H2 4913   2.386   6.751   3.415
 1658TIP3   OH2 4914   6.585   2.847   1.745
 1658TIP3    H1 4915   6.511   2.894   1.782
 1658TIP3    H2 4916   6.550   2.762   1.718
 1659TIP3   OH2 4917   5.426   4.720   6.008
 1659TIP3    H1 4918   5.418   4.641   6.062
 1659TIP3    H2 4919   5.353   4.776   6.036
 1660TIP3   OH2 4920   3.522   2.163   2.710
 1660TIP3    H1 4921   3.512   2.086   2.765
 1660TIP3    H2 4922   3.616   2.167   2.691
 1661TIP3   OH2 4923   5.016   7.127   5.352
 1661TIP3    H1 4924   5.049   7.038   5.360
 1661TIP3    H2 4925   4.922   7.119   5.372
 1662TIP3   OH2 4926   7.139   6.614   4.422
 1662TIP3    H1 4927   7.060   6.662   4.445
 1662TIP3    H2 4928   7.148   6.548   4.491
 1663TIP3   OH2 4929   3.082   6.464   2.329
 1663TIP3    H1 4930   3.157   6.517   2.302
 1663TIP3    H2 4931   3.020   6.528   2.366
 1664TIP3   OH2 4932   4.842   1.917   5.595
 1664TIP3    H1 4933   4.783   1.877   5.660
 1664TIP3    H2 4934   4.886   1.843   5.553
 1665TIP3   OH2 4935   3.878   4.878   6.397
 1665TIP3    H1 4936   3.892   4.847   6.308
 1665TIP3    H2 4937   3.888   4.973   6.391
 1666TIP3   OH2 4938   7.997   0.660   2.785
 1666TIP3    H1 4939   7.926   0.713   2.820
 1666TIP3    H2 4940   8.023   0.705   2.705
 1667TIP3   OH2 4941   3.747   6.140   5.029
 1667TIP3    H1 4942   3.795   6.058   5.032
 1667TIP3    H2 4943   3.815   6.207   5.017
 1668TIP3   OH2 4944   7.243   1.892   0.739
 1668TIP3    H1 4945   7.254   1.893   0.644
 1668TIP3    H2 4946   7.155   1.858   0.753
 1669TIP3   OH2 4947   2.928   3.425   6.229
 1669TIP3    H1 4948   2.969   3.509   6.247
 1669TIP3    H2 4949   2.989   3.381   6.170
 1670TIP3   OH2 4950   5.045   1.550   5.393
 1670TIP3    H1 4951   5.026   1.544   5.300
 1670TIP3    H2 4952   5.066   1.643   5.408
 1671TIP3   OH2 4953   3.551   2.203   3.742
 1671TIP3    H1 4954   3.612   2.276   3.742
 1671TIP3    H2 4955   3.468   2.240   3.711
 1672TIP3   OH2 4956   3.600   2.276   5.743
 1672TIP3    H1 4957   3.608   2.365   5.709
 1672TIP3    H2 4958   3.691   2.246   5.754
 1673TIP3   OH2 4959   0.101   2.798   0.655
 1673TIP3    H1 4960   0.140   2.733   0.714
 1673TIP3    H2 4961   0.171   2.862   0.641
 1674TIP3   OH2 4962   8.140   2.187   4.244
 1674TIP3    H1 4963   8.184   2.263   4.206
 1674TIP3    H2 4964   8.046   2.206   4.233
 1675TIP3   OH2 4965   4.929   2.027   0.575
 1675TIP3    H1 4966   4.889   2.019   0.661
 1675TIP3    H2 4967   4.876   1.970   0.519
 1676TIP3   OH2 4968   4.998   0.924   5.269
 1676TIP3    H1 4969   4.919   0.873   5.289
 1676TIP3    H2 4970   4.995   0.997   5.330
 1677TIP3   OH2 4971   0.050   1.278   2.238
 1677TIP3    H1 4972   0.002   1.302   2.159
 1677TIP3    H2 4973  -0.018   1.273   2.306
 1678TIP3   OH2 4974   6.324   5.628   3.805
 1678TIP3    H1 4975   6.339   5.649   3.897
 1678TIP3    H2 4976   6.351   5.706   3.758
 1679TIP3   OH2 4977   1.469   7.151   3.091
 1679TIP3    H1 4978   1.386   7.106   3.078
 1679TIP3    H2 4979   1.453   7.213   3.162
 1680TIP3   OH2 4980   4.271   0.897   1.421
 1680TIP3    H1 4981   4.250   0.868   1.510
 1680TIP3    H2 4982   4.195   0.948   1.394
 1681TIP3   OH2 4983   2.939   0.150   1.724
 1681TIP3    H1 4984   2.985   0.075   1.686
 1681TIP3    H2 4985   2.937   0.215   1.653
 1682TIP3   OH2 4986   5.762   1.307   4.816
 1682TIP3    H1 4987   5.739   1.394   4.847
 1682TIP3    H2 4988   5.721   1.300   4.730
 1683TIP3   OH2 4989   1.647   6.308   2.577
 1683TIP3    H1 4990   1.615   6.261   2.653
 1683TIP3    H2 4991   1.586   6.285   2.507
 1684TIP3   OH2 4992   7.893   1.934   2.313
 1684TIP3    H1 4993   7.896   2.017   2.265
 1684TIP3    H2 4994   7.886   1.867   2.245
 1685TIP3   OH2 4995   5.179   4.551   0.580
 1685TIP3    H1 4996   5.184   4.539   0.675
 1685TIP3    H2 4997   5.152   4.465   0.547
 1686TIP3   OH2 4998   3.965   0.140   4.110
 1686TIP3    H1 4999   3.994   0.184   4.030
 1686TIP3    H2 5000   3.949   0.049   4.084
 1687TIP3   OH2 5001   4.757   7.749   0.147
 1687TIP3    H1 5002   4.815   7.680   0.115
 1687TIP3    H2 5003   4.813   7.803   0.203
 1688TIP3   OH2 5004   5.338   0.582   2.825
 1688TIP3    H1 5005   5.294   0.636   2.759
 1688TIP3    H2 5006   5.420   0.556   2.783
 1689TIP3   OH2 5007   2.039   5.022   3.051
 1689TIP3    H1 5008   1.962   4.965   3.051
 1689TIP3    H2 5009   2.036   5.067   2.967
 1690TIP3   OH2 5010   1.917   2.367   5.983
 1690TIP3    H1 5011   2.000   2.320   5.991
 1690TIP3    H2 5012   1.943   2.458   5.969
 1691TIP3   OH2 5013   3.422   3.575   1.251
 1691TIP3    H1 5014   3.482   3.649   1.243
 1691TIP3    H2 5015   3.357   3.589   1.182
 1692TIP3   OH2 5016   4.654   7.466   4.483
 1692TIP3    H1 5017   4.646   7.414   4.404
 1692TIP3    H2 5018   4.608   7.415   4.550
 1693TIP3   OH2 5019   1.921   5.167   3.293
 1693TIP3    H1 5020   1.929   5.259   3.318
 1693TIP3    H2 5021   1.980   5.156   3.218
 1694TIP3   OH2 5022   7.412   5.856   0.556
 1694TIP3    H1 5023   7.386   5.927   0.498
 1694TIP3    H2 5024   7.409   5.895   0.644
 1695TIP3   OH2 5025   2.109   2.136   4.805
 1695TIP3    H1 5026   2.178   2.101   4.861
 1695TIP3    H2 5027   2.095   2.068   4.738
 1696TIP3   OH2 5028   2.248   6.070   1.000
 1696TIP3    H1 5029   2.278   6.057   1.090
 1696TIP3    H2 5030   2.158   6.100   1.009
 1697TIP3   OH2 5031   3.825   6.512   4.264
 1697TIP3    H1 5032   3.775   6.544   4.339
 1697TIP3    H2 5033   3.798   6.420   4.254
 1698TIP3   OH2 5034   1.788   0.777   6.679
 1698TIP3    H1 5035   1.846   0.712   6.638
 1698TIP3    H2 5036   1.835   0.805   6.758
 1699TIP3   OH2 5037   6.154   6.307   6.077
 1699TIP3    H1 5038   6.151   6.379   6.013
 1699TIP3    H2 5039   6.091   6.243   6.044
 1700TIP3   OH2 5040   4.764   1.099   4.320
 1700TIP3    H1 5041   4.689   1.134   4.368
 1700TIP3    H2 5042   4.729   1.076   4.234
 1701TIP3   OH2 5043   4.610   5.010   1.356
 1701TIP3    H1 5044   4.630   4.928   1.312
 1701TIP3    H2 5045   4.554   5.057   1.295
 1702TIP3   OH2 5046   2.117   5.180   4.309
 1702TIP3    H1 5047   2.143   5.135   4.390
 1702TIP3    H2 5048   2.154   5.268   4.317
 1703TIP3   OH2 5049   0.841   1.948   2.215
 1703TIP3    H1 5050   0.750   1.924   2.234
 1703TIP3    H2 5051   0.865   2.007   2.286
 1704TIP3   OH2 5052   1.179   6.867   2.132
 1704TIP3    H1 5053   1.168   6.854   2.227
 1704TIP3    H2 5054   1.215   6.784   2.101
 1705TIP3   OH2 5055   7.231   1.998   1.201
 1705TIP3    H1 5056   7.176   2.031   1.271
 1705TIP3    H2 5057   7.308   1.963   1.246
 1706TIP3   OH2 5058   5.947   5.092   6.076
 1706TIP3    H1 5059   6.038   5.118   6.061
 1706TIP3    H2 5060   5.930   5.116   6.167
 1707TIP3   OH2 5061   0.807   1.343   6.296
 1707TIP3    H1 5062   0.900   1.356   6.314
 1707TIP3    H2 5063   0.803   1.261   6.247
 1708TIP3   OH2 5064   6.197   5.503   0.393
 1708TIP3    H1 5065   6.168   5.550   0.315
 1708TIP3    H2 5066   6.210   5.571   0.459
 1709TIP3   OH2 5067   8.177   0.812   6.652
 1709TIP3    H1 5068   8.127   0.863   6.588
 1709TIP3    H2 5069   8.257   0.863   6.666
 1710TIP3   OH2 5070   7.156   3.022   6.229
 1710TIP3    H1 5071   7.173   3.092   6.167
 1710TIP3    H2 5072   7.216   2.952   6.204
 1711TIP3   OH2 5073   7.535   5.731   4.856
 1711TIP3    H1 5074   7.624   5.762   4.839
 1711TIP3    H2 5075   7.494   5.728   4.769
 1712TIP3   OH2 5076   6.953   5.476   0.079
 1712TIP3    H1 5077   6.861   5.502   0.090
 1712TIP3    H2 5078   6.998   5.517   0.152
 1713TIP3   OH2 5079   6.948   3.808   5.703
 1713TIP3    H1 5080   6.872   3.866   5.714
 1713TIP3    H2 5081   6.992   3.842   5.625
 1714TIP3   OH2 5082   3.060   3.181   3.898
 1714TIP3    H1 5083   3.125   3.119   3.866
 1714TIP3    H2 5084   3.079   3.263   3.852
 1715TIP3   OH2 5085   5.927   2.740   0.507
 1715TIP3    H1 5086   6.018   2.765   0.516
 1715TIP3    H2 5087   5.883   2.781   0.581
 1716TIP3   OH2 5088   3.539   7.696   4.691
 1716TIP3    H1 5089   3.596   7.667   4.762
 1716TIP3    H2 5090   3.450   7.677   4.723
 1717TIP3   OH2 5091   2.629   1.468   2.266
 1717TIP3    H1 5092   2.690   1.504   2.331
 1717TIP3    H2 5093   2.571   1.411   2.317
 1718TIP3   OH2 5094   5.655   3.892   2.102
 1718TIP3    H1 5095   5.620   3.980   2.114
 1718TIP3    H2 5096   5.741   3.894   2.144
 1719TIP3   OH2 5097   5.270   5.438   6.554
 1719TIP3    H1 5098   5.335   5.457   6.623
 1719TIP3    H2 5099   5.246   5.524   6.520
 1720TIP3   OH2 5100   1.804   5.244   3.900
 1720TIP3    H1 5101   1.741   5.270   3.967
 1720TIP3    H2 5102   1.765   5.274   3.818
 1721TIP3   OH2 5103   5.333   6.643   1.273
 1721TIP3    H1 5104   5.251   6.688   1.252
 1721TIP3    H2 5105   5.385   6.650   1.193
 1722TIP3   OH2 5106   5.245   5.388   2.417
 1722TIP3    H1 5107   5.158   5.360   2.389
 1722TIP3    H2 5108   5.268   5.328   2.488
 1723TIP3   OH2 5109   6.317   5.892   2.122
 1723TIP3    H1 5110   6.286   5.822   2.065
 1723TIP3    H2 5111   6.237   5.935   2.153
 1724TIP3   OH2 5112   4.944   0.202   4.586
 1724TIP3    H1 5113   4.991   0.165   4.511
 1724TIP3    H2 5114   4.865   0.148   4.593
 1725TIP3   OH2 5115   5.028   7.436   1.420
 1725TIP3    H1 5116   4.997   7.351   1.386
 1725TIP3    H2 5117   5.040   7.489   1.342
 1726TIP3   OH2 5118   1.595   3.440   1.132
 1726TIP3    H1 5119   1.617   3.521   1.086
 1726TIP3    H2 5120   1.671   3.422   1.186
 1727TIP3   OH2 5121   6.398   6.162   3.434
 1727TIP3    H1 5122   6.415   6.076   3.395
 1727TIP3    H2 5123   6.316   6.191   3.393
 1728TIP3   OH2 5124   5.565   2.332   4.695
 1728TIP3    H1 5125   5.591   2.384   4.619
 1728TIP3    H2 5126   5.640   2.274   4.711
 1729TIP3   OH2 5127   1.973   4.255   1.332
 1729TIP3    H1 5128   1.972   4.162   1.308
 1729TIP3    H2 5129   2.065   4.276   1.347
 1730TIP3   OH2 5130   2.331   4.134   2.206
 1730TIP3    H1 5131   2.290   4.072   2.267
 1730TIP3    H2 5132   2.394   4.182   2.260
 1731TIP3   OH2 5133   2.192   7.336   0.632
 1731TIP3    H1 5134   2.217   7.426   0.611
 1731TIP3    H2 5135   2.267   7.283   0.606
 1732TIP3   OH2 5136   1.088   7.249   2.417
 1732TIP3    H1 5137   1.010   7.301   2.396
 1732TIP3    H2 5138   1.161   7.305   2.390
 1733TIP3   OH2 5139   5.759   1.733   5.287
 1733TIP3    H1 5140   5.779   1.719   5.380
 1733TIP3    H2 5141   5.748   1.644   5.252
 1734TIP3   OH2 5142   0.605   5.021   3.263
 1734TIP3    H1 5143   0.658   5.098   3.281
 1734TIP3    H2 5144   0.517   5.044   3.294
 1735TIP3   OH2 5145   4.401   6.193   4.500
 1735TIP3    H1 5146   4.334   6.245   4.455
 1735TIP3    H2 5147   4.475   6.192   4.439
 1736TIP3   OH2 5148   7.031   0.978   6.122
 1736TIP3    H1 5149   7.092   0.905   6.116
 1736TIP3    H2 5150   7.088   1.055   6.133
 1737TIP3   OH2 5151   1.277   0.554   6.756
 1737TIP3    H1 5152   1.199   0.501   6.736
 1737TIP3    H2 5153   1.248   0.614   6.825
 1738TIP3   OH2 5154   2.694   1.949   0.792
 1738TIP3    H1 5155   2.616   1.910   0.753
 1738TIP3    H2 5156   2.768   1.909   0.746
 1739TIP3   OH2 5157   0.566   3.620   1.814
 1739TIP3    H1 5158   0.611   3.564   1.877
 1739TIP3    H2 5159   0.617   3.701   1.812
 1740TIP3   OH2 5160   4.714   6.464   3.451
 1740TIP3    H1 5161   4.649   6.402   3.487
 1740TIP3    H2 5162   4.664   6.544   3.435
 1741TIP3   OH2 5163   7.109   4.044   0.856
 1741TIP3    H1 5164   7.020   4.032   0.888
 1741TIP3    H2 5165   7.099   4.086   0.770
 1742TIP3   OH2 5166   8.054   1.573   0.985
 1742TIP3    H1 5167   8.120   1.508   0.960
 1742TIP3    H2 5168   8.019   1.541   1.068
 1743TIP3   OH2 5169   2.921   7.801   0.272
 1743TIP3    H1 5170   2.939   7.894   0.287
 1743TIP3    H2 5171   3.007   7.762   0.255
 1744TIP3   OH2 5172   5.074   2.122   6.673
 1744TIP3    H1 5173   4.994   2.166   6.644
 1744TIP3    H2 5174   5.117   2.187   6.729
 1745TIP3   OH2 5175   5.962   5.570   6.043
 1745TIP3    H1 5176   6.036   5.542   6.098
 1745TIP3    H2 5177   5.990   5.655   6.008
 1746TIP3   OH2 5178   2.457   3.534   0.246
 1746TIP3    H1 5179   2.475   3.440   0.243
 1746TIP3    H2 5180   2.435   3.552   0.338
 1747TIP3   OH2 5181   2.260   5.828   4.315
 1747TIP3    H1 5182   2.309   5.768   4.259
 1747TIP3    H2 5183   2.183   5.778   4.343
 1748TIP3   OH2 5184   0.781   6.397   1.939
 1748TIP3    H1 5185   0.798   6.320   1.993
 1748TIP3    H2 5186   0.856   6.455   1.955
 1749TIP3   OH2 5187   7.799   1.905   1.529
 1749TIP3    H1 5188   7.799   1.841   1.457
 1749TIP3    H2 5189   7.850   1.979   1.495
 1750TIP3   OH2 5190   5.094   5.900   2.483
 1750TIP3    H1 5191   5.126   5.989   2.477
 1750TIP3    H2 5192   5.130   5.866   2.565
 1751TIP3   OH2 5193   6.702   5.730   6.311
 1751TIP3    H1 5194   6.643   5.796   6.346
 1751TIP3    H2 5195   6.745   5.772   6.237
 1752TIP3   OH2 5196   7.661   0.255   2.877
 1752TIP3    H1 5197   7.675   0.184   2.814
 1752TIP3    H2 5198   7.621   0.212   2.953
 1753TIP3   OH2 5199   2.286   3.275   3.084
 1753TIP3    H1 5200   2.336   3.232   3.015
 1753TIP3    H2 5201   2.303   3.223   3.162
 1754TIP3   OH2 5202   0.966   3.674   2.825
 1754TIP3    H1 5203   1.034   3.624   2.871
 1754TIP3    H2 5204   0.909   3.707   2.894
 1755TIP3   OH2 5205   5.553   7.890   4.105
 1755TIP3    H1 5206   5.609   7.826   4.148
 1755TIP3    H2 5207   5.539   7.958   4.172
 1756TIP3   OH2 5208   5.177   7.682   0.549
 1756TIP3    H1 5209   5.263   7.655   0.516
 1756TIP3    H2 5210   5.116   7.662   0.477
 1757TIP3   OH2 5211   7.313   2.875   3.406
 1757TIP3    H1 5212   7.240   2.932   3.384
 1757TIP3    H2 5213   7.379   2.892   3.339
 1758TIP3   OH2 5214   6.928   0.182   3.892
 1758TIP3    H1 5215   6.913   0.120   3.963
 1758TIP3    H2 5216   6.843   0.188   3.847
 1759TIP3   OH2 5217   4.668   7.705   5.003
 1759TIP3    H1 5218   4.650   7.614   5.028
 1759TIP3    H2 5219   4.619   7.717   4.921
 1760TIP3   OH2 5220   1.393   0.401   2.812
 1760TIP3    H1 5221   1.302   0.379   2.832
 1760TIP3    H2 5222   1.394   0.422   2.719
 1761TIP3   OH2 5223   0.815   3.951   5.158
 1761TIP3    H1 5224   0.902   3.978   5.188
 1761TIP3    H2 5225   0.799   4.004   5.080
 1762TIP3   OH2 5226   2.376   0.345   6.700
 1762TIP3    H1 5227   2.431   0.326   6.624
 1762TIP3    H2 5228   2.398   0.435   6.724
 1763TIP3   OH2 5229   0.724   1.695   0.764
 1763TIP3    H1 5230   0.729   1.712   0.858
 1763TIP3    H2 5231   0.711   1.600   0.757
 1764TIP3   OH2 5232   7.750   5.981   1.790
 1764TIP3    H1 5233   7.821   6.043   1.770
 1764TIP3    H2 5234   7.769   5.905   1.735
 1765TIP3   OH2 5235   6.623   7.641   5.113
 1765TIP3    H1 5236   6.666   7.555   5.112
 1765TIP3    H2 5237   6.581   7.646   5.199
 1766TIP3   OH2 5238   1.383   4.662   0.630
 1766TIP3    H1 5239   1.316   4.731   0.631
 1766TIP3    H2 5240   1.384   4.630   0.541
 1767TIP3   OH2 5241   5.212   5.866   2.184
 1767TIP3    H1 5242   5.241   5.794   2.241
 1767TIP3    H2 5243   5.216   5.944   2.239
 1768TIP3   OH2 5244   6.931   5.172   5.832
 1768TIP3    H1 5245   6.991   5.241   5.805
 1768TIP3    H2 5246   6.954   5.154   5.923
 1769TIP3   OH2 5247   4.925   7.609   6.049
 1769TIP3    H1 5248   4.987   7.679   6.071
 1769TIP3    H2 5249   4.851   7.623   6.108
 1770TIP3   OH2 5250   5.499   7.864   5.940
 1770TIP3    H1 5251   5.494   7.799   6.011
 1770TIP3    H2 5252   5.509   7.811   5.860
 1771TIP3   OH2 5253   2.376   3.262   1.485
 1771TIP3    H1 5254   2.283   3.266   1.465
 1771TIP3    H2 5255   2.399   3.170   1.470
 1772TIP3   OH2 5256   3.238   6.593   0.208
 1772TIP3    H1 5257   3.158   6.562   0.166
 1772TIP3    H2 5258   3.234   6.688   0.201
 1773TIP3   OH2 5259   2.372   7.351   0.889
 1773TIP3    H1 5260   2.357   7.304   0.808
 1773TIP3    H2 5261   2.385   7.442   0.862
 1774TIP3   OH2 5262   5.951   3.416   4.819
 1774TIP3    H1 5263   5.918   3.505   4.804
 1774TIP3    H2 5264   5.894   3.360   4.767
 1775TIP3   OH2 5265   0.216   7.410   2.847
 1775TIP3    H1 5266   0.271   7.393   2.771
 1775TIP3    H2 5267   0.145   7.465   2.814
 1776TIP3   OH2 5268   1.016   7.647   3.334
 1776TIP3    H1 5269   1.045   7.718   3.391
 1776TIP3    H2 5270   0.928   7.673   3.306
 1777TIP3   OH2 5271   3.563   1.499   3.968
 1777TIP3    H1 5272   3.573   1.589   4.001
 1777TIP3    H2 5273   3.643   1.483   3.918
 1778TIP3   OH2 5274   5.639   0.654   0.547
 1778TIP3    H1 5275   5.695   0.712   0.598
 1778TIP3    H2 5276   5.571   0.626   0.608
 1779TIP3   OH2 5277   2.140   6.511   2.723
 1779TIP3    H1 5278   2.130   6.570   2.648
 1779TIP3    H2 5279   2.052   6.477   2.739
 1780TIP3   OH2 5280   4.257   3.145   3.247
 1780TIP3    H1 5281   4.170   3.178   3.223
 1780TIP3    H2 5282   4.275   3.187   3.331
 1781TIP3   OH2 5283   3.634   7.136   4.940
 1781TIP3    H1 5284   3.551   7.094   4.960
 1781TIP3    H2 5285   3.633   7.217   4.990
 1782TIP3   OH2 5286   1.631   7.882   2.857
 1782TIP3    H1 5287   1.549   7.929   2.847
 1782TIP3    H2 5288   1.610   7.791   2.834
 1783TIP3   OH2 5289   8.260   5.194   2.018
 1783TIP3    H1 5290   8.320   5.124   1.990
 1783TIP3    H2 5291   8.194   5.198   1.949
 1784TIP3   OH2 5292   4.778   5.702   3.892
 1784TIP3    H1 5293   4.781   5.640   3.965
 1784TIP3    H2 5294   4.870   5.721   3.873
 1785TIP3   OH2 5295   0.489   2.096   2.926
 1785TIP3    H1 5296   0.439   2.168   2.964
 1785TIP3    H2 5297   0.464   2.019   2.976
 1786TIP3   OH2 5298   4.392   2.204   4.551
 1786TIP3    H1 5299   4.479   2.196   4.512
 1786TIP3    H2 5300   4.337   2.144   4.500
 1787TIP3   OH2 5301   7.802   0.896   1.912
 1787TIP3    H1 5302   7.737   0.889   1.983
 1787TIP3    H2 5303   7.803   0.989   1.890
 1788TIP3   OH2 5304   2.985   3.621   6.633
 1788TIP3    H1 5305   2.912   3.675   6.604
 1788TIP3    H2 5306   2.944   3.541   6.666
 1789TIP3   OH2 5307   6.699   2.038   6.160
 1789TIP3    H1 5308   6.739   1.965   6.113
 1789TIP3    H2 5309   6.605   2.029   6.143
 1790TIP3   OH2 5310   1.659   4.854   2.456
 1790TIP3    H1 5311   1.625   4.801   2.385
 1790TIP3    H2 5312   1.635   4.806   2.536
 1791TIP3   OH2 5313   3.123   1.924   0.908
 1791TIP3    H1 5314   3.201   1.893   0.955
 1791TIP3    H2 5315   3.066   1.847   0.903
 1792TIP3   OH2 5316   3.714   3.105   2.396
 1792TIP3    H1 5317   3.797   3.063   2.421
 1792TIP3    H2 5318   3.674   3.044   2.334
 1793TIP3   OH2 5319   3.806   4.366   5.630
 1793TIP3    H1 5320   3.767   4.358   5.717
 1793TIP3    H2 5321   3.898   4.342   5.643
 1794TIP3   OH2 5322   2.035   2.944   1.189
 1794TIP3    H1 5323   2.084   2.881   1.136
 1794TIP3    H2 5324   1.998   2.891   1.260
 1795TIP3   OH2 5325   1.886   4.328   0.401
 1795TIP3    H1 5326   1.887   4.423   0.393
 1795TIP3    H2 5327   1.974   4.301   0.375
 1796TIP3   OH2 5328   0.169   7.875   2.056
 1796TIP3    H1 5329   0.166   7.851   2.149
 1796TIP3    H2 5330   0.093   7.831   2.018
 1797TIP3   OH2 5331   6.539   5.168   6.593
 1797TIP3    H1 5332   6.449   5.170   6.561
 1797TIP3    H2 5333   6.536   5.114   6.671
 1798TIP3   OH2 5334   4.319   2.129   1.981
 1798TIP3    H1 5335   4.352   2.148   2.068
 1798TIP3    H2 5336   4.224   2.116   1.993
 1799TIP3   OH2 5337   4.946   3.247   2.208
 1799TIP3    H1 5338   5.014   3.195   2.250
 1799TIP3    H2 5339   4.865   3.221   2.253
 1800TIP3   OH2 5340   5.780   6.191   4.207
 1800TIP3    H1 5341   5.760   6.275   4.166
 1800TIP3    H2 5342   5.861   6.207   4.256
 1801TIP3   OH2 5343   0.156  -0.005   6.098
 1801TIP3    H1 5344   0.223  -0.037   6.039
 1801TIP3    H2 5345   0.099   0.048   6.043
 1802TIP3   OH2 5346   3.871   1.968   1.932
 1802TIP3    H1 5347   3.783   1.931   1.945
 1802TIP3    H2 5348   3.869   2.005   1.844
 1803TIP3   OH2 5349   1.589   7.783   0.839
 1803TIP3    H1 5350   1.591   7.863   0.787
 1803TIP3    H2 5351   1.510   7.791   0.893
 1804TIP3   OH2 5352   3.409   0.965   5.648
 1804TIP3    H1 5353   3.417   1.061   5.644
 1804TIP3    H2 5354   3.320   0.948   5.616
 1805TIP3   OH2 5355   3.681   4.594   5.545
 1805TIP3    H1 5356   3.742   4.523   5.562
 1805TIP3    H2 5357   3.631   4.565   5.468
 1806TIP3   OH2 5358   4.518   3.900   3.417
 1806TIP3    H1 5359   4.457   3.935   3.352
 1806TIP3    H2 5360   4.462   3.870   3.488
 1807TIP3   OH2 5361   8.003   0.260   0.092
 1807TIP3    H1 5362   8.056   0.240   0.015
 1807TIP3    H2 5363   7.921   0.213   0.078
 1808TIP3   OH2 5364   0.445   4.250   4.906
 1808TIP3    H1 5365   0.417   4.183   4.968
 1808TIP3    H2 5366   0.372   4.312   4.903
 1809TIP3   OH2 5367   5.479   6.392   5.220
 1809TIP3    H1 5368   5.573   6.381   5.206
 1809TIP3    H2 5369   5.440   6.315   5.179
 1810TIP3   OH2 5370   6.891   0.010   6.653
 1810TIP3    H1 5371   6.930   0.003   6.741
 1810TIP3    H2 5372   6.823   0.076   6.663
 1811TIP3   OH2 5373   7.358   5.473   2.665
 1811TIP3    H1 5374   7.336   5.395   2.614
 1811TIP3    H2 5375   7.274   5.506   2.696
 1812TIP3   OH2 5376   2.466   3.944   3.596
 1812TIP3    H1 5377   2.374   3.929   3.573
 1812TIP3    H2 5378   2.486   3.878   3.662
 1813TIP3   OH2 5379   0.101   2.691   2.133
 1813TIP3    H1 5380   0.127   2.783   2.139
 1813TIP3    H2 5381   0.103   2.660   2.224
 1814TIP3   OH2 5382   6.098   0.883   0.018
 1814TIP3    H1 5383   6.193   0.898   0.027
 1814TIP3    H2 5384   6.058   0.943   0.080
 1815TIP3   OH2 5385   6.321   2.475   6.821
 1815TIP3    H1 5386   6.257   2.409   6.847
 1815TIP3    H2 5387   6.302   2.551   6.876
 1816TIP3   OH2 5388   8.296   1.612   0.180
 1816TIP3    H1 5389   8.244   1.609   0.099
 1816TIP3    H2 5390   8.387   1.616   0.150
 1817TIP3   OH2 5391   6.898   2.003   0.205
 1817TIP3    H1 5392   6.853   2.000   0.290
 1817TIP3    H2 5393   6.842   2.057   0.150
 1818TIP3   OH2 5394   6.791   2.889   4.323
 1818TIP3    H1 5395   6.702   2.867   4.352
 1818TIP3    H2 5396   6.805   2.834   4.246
 1819TIP3   OH2 5397   7.412   0.036   1.994
 1819TIP3    H1 5398   7.462   0.074   2.066
 1819TIP3    H2 5399   7.341   0.098   1.979
 1820TIP3   OH2 5400   7.999   7.551   5.288
 1820TIP3    H1 5401   8.082   7.531   5.331
 1820TIP3    H2 5402   7.991   7.485   5.219
 1821TIP3   OH2 5403   0.664   5.274   4.649
 1821TIP3    H1 5404   0.678   5.257   4.555
 1821TIP3    H2 5405   0.667   5.187   4.690
 1822TIP3   OH2 5406   6.719   5.062   1.176
 1822TIP3    H1 5407   6.695   5.152   1.198
 1822TIP3    H2 5408   6.753   5.067   1.087
 1823TIP3   OH2 5409   1.713   4.884   1.653
 1823TIP3    H1 5410   1.645   4.879   1.586
 1823TIP3    H2 5411   1.674   4.843   1.730
 1824TIP3   OH2 5412   3.886   6.297   4.526
 1824TIP3    H1 5413   3.822   6.326   4.591
 1824TIP3    H2 5414   3.971   6.310   4.568
 1825TIP3   OH2 5415   1.628   0.377   2.959
 1825TIP3    H1 5416   1.624   0.454   3.015
 1825TIP3    H2 5417   1.545   0.378   2.911
 1826TIP3   OH2 5418   1.647   2.758   4.332
 1826TIP3    H1 5419   1.700   2.826   4.373
 1826TIP3    H2 5420   1.590   2.727   4.402
 1827TIP3   OH2 5421   8.148   5.108   4.284
 1827TIP3    H1 5422   8.085   5.092   4.353
 1827TIP3    H2 5423   8.224   5.146   4.329
 1828TIP3   OH2 5424   2.690   0.827   2.029
 1828TIP3    H1 5425   2.753   0.822   1.957
 1828TIP3    H2 5426   2.650   0.914   2.020
 1829TIP3   OH2 5427   0.212   4.647   6.500
 1829TIP3    H1 5428   0.239   4.575   6.443
 1829TIP3    H2 5429   0.289   4.668   6.552
 1830TIP3   OH2 5430   0.806   6.164   0.361
 1830TIP3    H1 5431   0.726   6.168   0.308
 1830TIP3    H2 5432   0.877   6.184   0.300
 1831TIP3   OH2 5433   4.270   5.628   1.181
 1831TIP3    H1 5434   4.189   5.606   1.136
 1831TIP3    H2 5435   4.338   5.618   1.114
 1832TIP3   OH2 5436   3.681   4.062   0.251
 1832TIP3    H1 5437   3.623   4.135   0.232
 1832TIP3    H2 5438   3.653   3.993   0.190
 1833TIP3   OH2 5439   8.363   4.380   4.993
 1833TIP3    H1 5440   8.344   4.290   5.020
 1833TIP3    H2 5441   8.336   4.434   5.067
 1834TIP3   OH2 5442   2.716   5.211   5.274
 1834TIP3    H1 5443   2.766   5.196   5.355
 1834TIP3    H2 5444   2.625   5.197   5.299
 1835TIP3   OH2 5445   1.982   0.549   5.360
 1835TIP3    H1 5446   1.964   0.464   5.320
 1835TIP3    H2 5447   1.932   0.611   5.306
 1836TIP3   OH2 5448   2.295   6.519   1.601
 1836TIP3    H1 5449   2.287   6.508   1.695
 1836TIP3    H2 5450   2.208   6.498   1.566
 1837TIP3   OH2 5451   5.468   4.873   0.822
 1837TIP3    H1 5452   5.420   4.944   0.863
 1837TIP3    H2 5453   5.487   4.905   0.734
 1838TIP3   OH2 5454   5.567   5.827   4.623
 1838TIP3    H1 5455   5.532   5.912   4.651
 1838TIP3    H2 5456   5.548   5.823   4.529
 1839TIP3   OH2 5457   2.648   5.257   4.296
 1839TIP3    H1 5458   2.666   5.200   4.221
 1839TIP3    H2 5459   2.659   5.200   4.372
 1840TIP3   OH2 5460   2.287   4.934   0.533
 1840TIP3    H1 5461   2.215   4.898   0.584
 1840TIP3    H2 5462   2.270   5.029   0.532
 1841TIP3   OH2 5463   7.389   4.206   5.634
 1841TIP3    H1 5464   7.316   4.145   5.645
 1841TIP3    H2 5465   7.380   4.267   5.707
 1842TIP3   OH2 5466   4.332   2.225   1.643
 1842TIP3    H1 5467   4.372   2.197   1.726
 1842TIP3    H2 5468   4.284   2.304   1.666
 1843TIP3   OH2 5469   6.892   7.185   3.346
 1843TIP3    H1 5470   6.965   7.233   3.387
 1843TIP3    H2 5471   6.814   7.226   3.382
 1844TIP3   OH2 5472   1.412   6.047   6.477
 1844TIP3    H1 5473   1.337   6.092   6.439
 1844TIP3    H2 5474   1.449   6.111   6.539
 1845TIP3   OH2 5475   3.742   4.125   2.136
 1845TIP3    H1 5476   3.742   4.212   2.094
 1845TIP3    H2 5477   3.685   4.135   2.212
 1846TIP3   OH2 5478   8.302   6.492   6.373
 1846TIP3    H1 5479   8.291   6.502   6.278
 1846TIP3    H2 5480   8.262   6.571   6.410
 1847TIP3   OH2 5481   1.638   6.586   3.029
 1847TIP3    H1 5482   1.590   6.607   2.949
 1847TIP3    H2 5483   1.665   6.671   3.064
 1848TIP3   OH2 5484   3.894   0.535   3.754
 1848TIP3    H1 5485   3.913   0.628   3.768
 1848TIP3    H2 5486   3.803   0.524   3.783
 1849TIP3   OH2 5487   7.007   3.105   1.831
 1849TIP3    H1 5488   6.959   3.058   1.763
 1849TIP3    H2 5489   7.055   3.174   1.785
 1850TIP3   OH2 5490   5.545   2.145   1.953
 1850TIP3    H1 5491   5.569   2.236   1.932
 1850TIP3    H2 5492   5.604   2.120   2.024
 1851TIP3   OH2 5493   2.112   7.004   3.371
 1851TIP3    H1 5494   2.185   7.062   3.393
 1851TIP3    H2 5495   2.076   6.977   3.456
 1852TIP3   OH2 5496   8.142   5.067   0.113
 1852TIP3    H1 5497   8.104   5.132   0.054
 1852TIP3    H2 5498   8.127   4.983   0.070
 1853TIP3   OH2 5499   6.080   5.446   2.181
 1853TIP3    H1 5500   6.047   5.460   2.092
 1853TIP3    H2 5501   6.144   5.376   2.172
 1854TIP3   OH2 5502   3.565   5.166   6.541
 1854TIP3    H1 5503   3.500   5.108   6.581
 1854TIP3    H2 5504   3.513   5.228   6.490
 1855TIP3   OH2 5505   5.400   2.465   5.077
 1855TIP3    H1 5506   5.477   2.423   5.039
 1855TIP3    H2 5507   5.342   2.393   5.101
 1856TIP3   OH2 5508   2.795   2.744   1.404
 1856TIP3    H1 5509   2.824   2.656   1.381
 1856TIP3    H2 5510   2.875   2.793   1.419
 1857TIP3   OH2 5511   0.467   4.671   3.297
 1857TIP3    H1 5512   0.382   4.671   3.253
 1857TIP3    H2 5513   0.468   4.752   3.347
 1858TIP3   OH2 5514   0.086   5.681   0.059
 1858TIP3    H1 5515   0.069   5.775   0.060
 1858TIP3    H2 5516   0.060   5.650   0.146
 1859TIP3   OH2 5517   1.549   2.686   0.642
 1859TIP3    H1 5518   1.635   2.720   0.617
 1859TIP3    H2 5519   1.537   2.609   0.587
 1860TIP3   OH2 5520   7.826   2.949   4.227
 1860TIP3    H1 5521   7.818   2.928   4.134
 1860TIP3    H2 5522   7.736   2.961   4.257
 1861TIP3   OH2 5523   3.639   0.753   1.508
 1861TIP3    H1 5524   3.576   0.816   1.543
 1861TIP3    H2 5525   3.664   0.789   1.423
 1862TIP3   OH2 5526   2.624   4.153   5.083
 1862TIP3    H1 5527   2.669   4.145   4.999
 1862TIP3    H2 5528   2.621   4.247   5.099
 1863TIP3   OH2 5529   0.001   0.588   5.637
 1863TIP3    H1 5530   0.007   0.549   5.724
 1863TIP3    H2 5531   0.088   0.576   5.599
 1864TIP3   OH2 5532   1.153   7.032   6.722
 1864TIP3    H1 5533   1.154   7.113   6.774
 1864TIP3    H2 5534   1.082   7.046   6.659
 1865TIP3   OH2 5535   2.950   4.463   2.980
 1865TIP3    H1 5536   2.971   4.455   3.074
 1865TIP3    H2 5537   2.936   4.556   2.966
 1866TIP3   OH2 5538   4.359   6.984   1.173
 1866TIP3    H1 5539   4.305   6.964   1.096
 1866TIP3    H2 5540   4.420   7.051   1.142
 1867TIP3   OH2 5541   0.874   4.170   0.448
 1867TIP3    H1 5542   0.789   4.160   0.406
 1867TIP3    H2 5543   0.870   4.112   0.524
 1868TIP3   OH2 5544   2.286   4.672   6.155
 1868TIP3    H1 5545   2.378   4.655   6.175
 1868TIP3    H2 5546   2.288   4.735   6.084
 1869TIP3   OH2 5547   3.613   6.766   4.909
 1869TIP3    H1 5548   3.603   6.820   4.830
 1869TIP3    H2 5549   3.539   6.790   4.964
 1870TIP3   OH2 5550   0.404   0.403   6.828
 1870TIP3    H1 5551   0.477   0.352   6.792
 1870TIP3    H2 5552   0.390   0.472   6.764
 1871TIP3   OH2 5553   4.149   7.406   5.715
 1871TIP3    H1 5554   4.216   7.360   5.766
 1871TIP3    H2 5555   4.077   7.343   5.708
 1872TIP3   OH2 5556   8.245   1.066   3.645
 1872TIP3    H1 5557   8.180   1.094   3.581
 1872TIP3    H2 5558   8.213   1.099   3.729
 1873TIP3   OH2 5559   5.700   6.830   6.832
 1873TIP3    H1 5560   5.669   6.908   6.879
 1873TIP3    H2 5561   5.641   6.822   6.757
 1874TIP3   OH2 5562   4.865   1.202   2.991
 1874TIP3    H1 5563   4.813   1.273   2.952
 1874TIP3    H2 5564   4.812   1.172   3.065
 1875TIP3   OH2 5565   3.592   5.867   5.242
 1875TIP3    H1 5566   3.667   5.848   5.186
 1875TIP3    H2 5567   3.626   5.928   5.308
 1876TIP3   OH2 5568   3.846   6.296   1.317
 1876TIP3    H1 5569   3.839   6.211   1.360
 1876TIP3    H2 5570   3.940   6.308   1.303
 1877TIP3   OH2 5571   6.869   3.575   5.851
 1877TIP3    H1 5572   6.946   3.518   5.846
 1877TIP3    H2 5573   6.893   3.652   5.798
 1878TIP3   OH2 5574   7.540   1.102   5.673
 1878TIP3    H1 5575   7.616   1.056   5.708
 1878TIP3    H2 5576   7.465   1.049   5.702
 1879TIP3   OH2 5577   6.784   1.249   2.935
 1879TIP3    H1 5578   6.700   1.236   2.979
 1879TIP3    H2 5579   6.850   1.240   3.004
 1880TIP3   OH2 5580   1.534   1.283   1.540
 1880TIP3    H1 5581   1.541   1.332   1.622
 1880TIP3    H2 5582   1.597   1.212   1.549
 1881TIP3   OH2 5583   1.394   6.697   4.270
 1881TIP3    H1 5584   1.314   6.649   4.295
 1881TIP3    H2 5585   1.414   6.665   4.182
 1882TIP3   OH2 5586   3.728   6.297   6.743
 1882TIP3    H1 5587   3.678   6.374   6.768
 1882TIP3    H2 5588   3.819   6.324   6.749
 1883TIP3   OH2 5589   5.513   3.458   1.932
 1883TIP3    H1 5590   5.586   3.441   1.993
 1883TIP3    H2 5591   5.534   3.543   1.893
 1884TIP3   OH2 5592   4.227   6.225   0.293
 1884TIP3    H1 5593   4.306   6.277   0.279
 1884TIP3    H2 5594   4.245   6.174   0.371
 1885TIP3   OH2 5595   7.263   1.882   2.864
 1885TIP3    H1 5596   7.310   1.926   2.793
 1885TIP3    H2 5597   7.171   1.889   2.839
 1886TIP3   OH2 5598   8.055   6.128   2.960
 1886TIP3    H1 5599   8.104   6.046   2.966
 1886TIP3    H2 5600   7.968   6.106   2.993
 1887TIP3   OH2 5601   4.362   5.757   4.886
 1887TIP3    H1 5602   4.316   5.786   4.807
 1887TIP3    H2 5603   4.325   5.809   4.957
 1888TIP3   OH2 5604   1.052   4.263   2.324
 1888TIP3    H1 5605   1.003   4.329   2.276
 1888TIP3    H2 5606   1.135   4.306   2.346
 1889TIP3   OH2 5607   6.959   3.536   5.558
 1889TIP3    H1 5608   6.917   3.620   5.575
 1889TIP3    H2 5609   6.886   3.477   5.536
 1890TIP3   OH2 5610   2.531   0.988   6.533
 1890TIP3    H1 5611   2.517   1.074   6.493
 1890TIP3    H2 5612   2.572   1.008   6.617
 1891TIP3   OH2 5613   3.810   2.849   2.639
 1891TIP3    H1 5614   3.805   2.907   2.563
 1891TIP3    H2 5615   3.745   2.781   2.622
 1892TIP3   OH2 5616   4.099   3.782   1.295
 1892TIP3    H1 5617   4.137   3.695   1.310
 1892TIP3    H2 5618   4.006   3.772   1.313
 1893TIP3   OH2 5619   7.051   6.315   5.998
 1893TIP3    H1 5620   7.128   6.336   6.051
 1893TIP3    H2 5621   7.006   6.246   6.047
 1894TIP3   OH2 5622   0.367   0.955   4.055
 1894TIP3    H1 5623   0.320   0.873   4.042
 1894TIP3    H2 5624   0.460   0.931   4.046
 1895TIP3   OH2 5625   1.981   7.215   3.584
 1895TIP3    H1 5626   1.912   7.201   3.520
 1895TIP3    H2 5627   1.935   7.236   3.665
 1896TIP3   OH2 5628   1.166   3.549   2.979
 1896TIP3    H1 5629   1.255   3.586   2.977
 1896TIP3    H2 5630   1.174   3.473   3.037
 1897TIP3   OH2 5631   3.907   7.631   2.868
 1897TIP3    H1 5632   3.902   7.579   2.787
 1897TIP3    H2 5633   3.956   7.575   2.929
 1898TIP3   OH2 5634   4.209   4.505   4.962
 1898TIP3    H1 5635   4.163   4.422   4.951
 1898TIP3    H2 5636   4.146   4.571   4.933
 1899TIP3   OH2 5637   6.028   0.686   4.397
 1899TIP3    H1 5638   5.933   0.686   4.409
 1899TIP3    H2 5639   6.048   0.599   4.363
 1900TIP3   OH2 5640   1.393   2.287   1.067
 1900TIP3    H1 5641   1.439   2.233   1.003
 1900TIP3    H2 5642   1.305   2.298   1.030
 1901TIP3   OH2 5643   5.092   3.665   3.225
 1901TIP3    H1 5644   5.178   3.701   3.207
 1901TIP3    H2 5645   5.072   3.610   3.148
 1902TIP3   OH2 5646   1.809   6.739   3.878
 1902TIP3    H1 5647   1.767   6.816   3.841
 1902TIP3    H2 5648   1.812   6.676   3.806
 1903TIP3   OH2 5649   8.368   1.025   4.613
 1903TIP3    H1 5650   8.366   0.930   4.607
 1903TIP3    H2 5651   8.417   1.043   4.693
 1904TIP3   OH2 5652   7.737   4.530   4.546
 1904TIP3    H1 5653   7.643   4.551   4.548
 1904TIP3    H2 5654   7.775   4.599   4.492
 1905TIP3   OH2 5655   1.653   5.133   2.894
 1905TIP3    H1 5656   1.612   5.182   2.823
 1905TIP3    H2 5657   1.665   5.198   2.964
 1906TIP3   OH2 5658   7.994   1.354   3.649
 1906TIP3    H1 5659   7.986   1.447   3.666
 1906TIP3    H2 5660   7.915   1.316   3.687
 1907TIP3   OH2 5661   6.810   3.897   0.461
 1907TIP3    H1 5662   6.824   3.962   0.392
 1907TIP3    H2 5663   6.752   3.833   0.421
 1908TIP3   OH2 5664   0.277   3.627   2.358
 1908TIP3    H1 5665   0.352   3.686   2.347
 1908TIP3    H2 5666   0.247   3.642   2.447
 1909TIP3   OH2 5667   4.083   2.359   3.168
 1909TIP3    H1 5668   4.080   2.453   3.187
 1909TIP3    H2 5669   4.018   2.321   3.227
 1910TIP3   OH2 5670   6.901   4.692   5.222
 1910TIP3    H1 5671   6.991   4.717   5.240
 1910TIP3    H2 5672   6.900   4.596   5.232
 1911TIP3   OH2 5673   3.316   0.421   6.464
 1911TIP3    H1 5674   3.378   0.470   6.517
 1911TIP3    H2 5675   3.243   0.403   6.523
 1912TIP3   OH2 5676   0.522   1.313   6.627
 1912TIP3    H1 5677   0.479   1.243   6.676
 1912TIP3    H2 5678   0.470   1.321   6.547
 1913TIP3   OH2 5679   3.570   5.248   5.403
 1913TIP3    H1 5680   3.653   5.293   5.383
 1913TIP3    H2 5681   3.511   5.273   5.332
 1914TIP3   OH2 5682   5.842   1.361   5.227
 1914TIP3    H1 5683   5.763   1.310   5.208
 1914TIP3    H2 5684   5.824   1.402   5.312
 1915TIP3   OH2 5685   4.635   5.387   5.013
 1915TIP3    H1 5686   4.622   5.454   5.080
 1915TIP3    H2 5687   4.600   5.307   5.052
 1916TIP3   OH2 5688   6.037   3.714   6.488
 1916TIP3    H1 5689   5.949   3.684   6.512
 1916TIP3    H2 5690   6.078   3.737   6.571
 1917TIP3   OH2 5691   3.685   1.510   2.757
 1917TIP3    H1 5692   3.641   1.485   2.838
 1917TIP3    H2 5693   3.616   1.510   2.691
 1918TIP3   OH2 5694   7.466   7.647   2.642
 1918TIP3    H1 5695   7.478   7.650   2.547
 1918TIP3    H2 5696   7.550   7.675   2.678
 1919TIP3   OH2 5697   5.758   0.892   6.615
 1919TIP3    H1 5698   5.788   0.902   6.525
 1919TIP3    H2 5699   5.666   0.919   6.614
 1920TIP3   OH2 5700   4.380   0.540   2.191
 1920TIP3    H1 5701   4.327   0.533   2.270
 1920TIP3    H2 5702   4.463   0.498   2.214
 1921TIP3   OH2 5703   2.190   7.425   3.529
 1921TIP3    H1 5704   2.153   7.505   3.491
 1921TIP3    H2 5705   2.115   7.367   3.541
 1922TIP3   OH2 5706   0.368   3.948   6.353
 1922TIP3    H1 5707   0.461   3.936   6.335
 1922TIP3    H2 5708   0.326   3.939   6.268
 1923TIP3   OH2 5709   4.335   4.194   5.723
 1923TIP3    H1 5710   4.294   4.216   5.806
 1923TIP3    H2 5711   4.424   4.167   5.747
 1924TIP3   OH2 5712   0.027   3.535   3.627
 1924TIP3    H1 5713  -0.013   3.595   3.564
 1924TIP3    H2 5714   0.101   3.585   3.662
 1925TIP3   OH2 5715   4.709   1.309   1.068
 1925TIP3    H1 5716   4.712   1.351   1.154
 1925TIP3    H2 5717   4.649   1.364   1.017
 1926TIP3   OH2 5718   6.138   4.701   4.810
 1926TIP3    H1 5719   6.081   4.776   4.792
 1926TIP3    H2 5720   6.085   4.624   4.788
 1927TIP3   OH2 5721   7.826   5.899   5.806
 1927TIP3    H1 5722   7.823   5.808   5.836
 1927TIP3    H2 5723   7.919   5.919   5.798
 1928TIP3   OH2 5724   6.049   0.983   1.965
 1928TIP3    H1 5725   6.133   1.016   1.996
 1928TIP3    H2 5726   5.986   1.050   1.994
 1929TIP3   OH2 5727   7.994   1.186   1.480
 1929TIP3    H1 5728   8.000   1.174   1.385
 1929TIP3    H2 5729   8.037   1.269   1.497
 1930TIP3   OH2 5730   2.916   1.438   0.401
 1930TIP3    H1 5731   2.828   1.441   0.363
 1930TIP3    H2 5732   2.912   1.368   0.466
 1931TIP3   OH2 5733   5.529   6.630   4.006
 1931TIP3    H1 5734   5.488   6.634   3.920
 1931TIP3    H2 5735   5.574   6.714   4.015
 1932TIP3   OH2 5736   1.911   5.386   4.742
 1932TIP3    H1 5737   1.916   5.406   4.649
 1932TIP3    H2 5738   1.817   5.390   4.762
 1933TIP3   OH2 5739   4.070   4.749   4.089
 1933TIP3    H1 5740   4.021   4.667   4.095
 1933TIP3    H2 5741   4.038   4.791   4.009
 1934TIP3   OH2 5742   5.087   3.998   3.794
 1934TIP3    H1 5743   5.172   3.991   3.752
 1934TIP3    H2 5744   5.046   3.912   3.780
 1935TIP3   OH2 5745   3.160   7.847   5.604
 1935TIP3    H1 5746   3.179   7.936   5.635
 1935TIP3    H2 5747   3.231   7.794   5.639
 1936TIP3   OH2 5748   8.137   6.763   6.630
 1936TIP3    H1 5749   8.218   6.715   6.645
 1936TIP3    H2 5750   8.162   6.855   6.631
 1937TIP3   OH2 5751   5.888   5.267   2.849
 1937TIP3    H1 5752   5.980   5.245   2.836
 1937TIP3    H2 5753   5.840   5.194   2.810
 1938TIP3   OH2 5754   6.297   4.896   4.937
 1938TIP3    H1 5755   6.282   4.814   4.890
 1938TIP3    H2 5756   6.272   4.877   5.027
 1939TIP3   OH2 5757   4.784   1.188   2.098
 1939TIP3    H1 5758   4.873   1.222   2.091
 1939TIP3    H2 5759   4.774   1.165   2.190
 1940TIP3   OH2 5760   0.521   6.476   0.866
 1940TIP3    H1 5761   0.510   6.570   0.880
 1940TIP3    H2 5762   0.614   6.466   0.843
 1941TIP3   OH2 5763   1.417   3.519   2.276
 1941TIP3    H1 5764   1.421   3.435   2.230
 1941TIP3    H2 5765   1.386   3.581   2.210
 1942TIP3   OH2 5766   3.258   2.998   3.239
 1942TIP3    H1 5767   3.241   3.078   3.289
 1942TIP3    H2 5768   3.278   2.932   3.305
 1943TIP3   OH2 5769   7.738   3.550   3.028
 1943TIP3    H1 5770   7.727   3.478   2.966
 1943TIP3    H2 5771   7.778   3.510   3.105
 1944TIP3   OH2 5772   7.277   3.071   6.748
 1944TIP3    H1 5773   7.281   3.111   6.662
 1944TIP3    H2 5774   7.297   2.979   6.733
 1945TIP3   OH2 5775   1.110   6.771   0.135
 1945TIP3    H1 5776   1.071   6.776   0.222
 1945TIP3    H2 5777   1.036   6.761   0.076
 1946TIP3   OH2 5778   2.629   0.252   5.068
 1946TIP3    H1 5779   2.598   0.210   4.988
 1946TIP3    H2 5780   2.665   0.180   5.120
 1947TIP3   OH2 5781   1.516   4.969   2.145
 1947TIP3    H1 5782   1.464   4.999   2.070
 1947TIP3    H2 5783   1.543   4.881   2.121
 1948TIP3   OH2 5784   8.172   1.378   2.532
 1948TIP3    H1 5785   8.223   1.304   2.565
 1948TIP3    H2 5786   8.154   1.355   2.440
 1949TIP3   OH2 5787   5.974   6.595   1.194
 1949TIP3    H1 5788   6.042   6.583   1.261
 1949TIP3    H2 5789   5.964   6.690   1.187
 1950TIP3   OH2 5790   1.630   5.727   5.739
 1950TIP3    H1 5791   1.566   5.788   5.778
 1950TIP3    H2 5792   1.613   5.732   5.645
 1951TIP3   OH2 5793   1.530   3.278   3.027
 1951TIP3    H1 5794   1.557   3.356   3.075
 1951TIP3    H2 5795   1.606   3.220   3.032
 1952TIP3   OH2 5796   5.772   2.610   2.669
 1952TIP3    H1 5797   5.739   2.568   2.590
 1952TIP3    H2 5798   5.711   2.683   2.685
 1953TIP3   OH2 5799   6.381   6.780   0.700
 1953TIP3    H1 5800   6.392   6.731   0.782
 1953TIP3    H2 5801   6.343   6.864   0.727
 1954TIP3   OH2 5802   8.027   5.214   3.686
 1954TIP3    H1 5803   8.037   5.131   3.732
 1954TIP3    H2 5804   7.934   5.235   3.696
 1955TIP3   OH2 5805   4.868   6.187   0.387
 1955TIP3    H1 5806   4.902   6.149   0.468
 1955TIP3    H2 5807   4.800   6.247   0.416
 1956TIP3   OH2 5808   2.620   6.980   2.464
 1956TIP3    H1 5809   2.553   7.045   2.487
 1956TIP3    H2 5810   2.674   7.024   2.398
 1957TIP3   OH2 5811   4.929   0.409   3.379
 1957TIP3    H1 5812   5.020   0.417   3.406
 1957TIP3    H2 5813   4.933   0.390   3.285
 1958TIP3   OH2 5814   5.848   1.195   0.816
 1958TIP3    H1 5815   5.849   1.138   0.739
 1958TIP3    H2 5816   5.938   1.193   0.848
 1959TIP3   OH2 5817   0.135   7.212   2.380
 1959TIP3    H1 5818   0.156   7.138   2.438
 1959TIP3    H2 5819   0.089   7.274   2.436
 1960TIP3   OH2 5820   7.825   3.220   5.120
 1960TIP3    H1 5821   7.902   3.175   5.154
 1960TIP3    H2 5822   7.858   3.272   5.047
 1961TIP3   OH2 5823   6.844   1.928   3.949
 1961TIP3    H1 5824   6.821   1.861   4.013
 1961TIP3    H2 5825   6.902   1.884   3.888
 1962TIP3   OH2 5826   2.739   3.688   5.871
 1962TIP3    H1 5827   2.717   3.780   5.890
 1962TIP3    H2 5828   2.716   3.641   5.951
 1963TIP3   OH2 5829   3.089   0.274   0.638
 1963TIP3    H1 5830   3.119   0.363   0.618
 1963TIP3    H2 5831   3.007   0.287   0.686
 1964TIP3   OH2 5832   0.802   3.835   2.634
 1964TIP3    H1 5833   0.847   3.796   2.709
 1964TIP3    H2 5834   0.805   3.929   2.651
 1965TIP3   OH2 5835   8.249   0.182   3.414
 1965TIP3    H1 5836   8.234   0.157   3.323
 1965TIP3    H2 5837   8.291   0.268   3.409
 1966TIP3   OH2 5838   1.396   3.789   1.121
 1966TIP3    H1 5839   1.450   3.721   1.082
 1966TIP3    H2 5840   1.427   3.795   1.212
 1967TIP3   OH2 5841   5.571   2.720   3.067
 1967TIP3    H1 5842   5.609   2.803   3.039
 1967TIP3    H2 5843   5.612   2.701   3.151
 1968TIP3   OH2 5844   0.820   3.969   1.229
 1968TIP3    H1 5845   0.767   4.015   1.294
 1968TIP3    H2 5846   0.809   4.019   1.148
 1969TIP3   OH2 5847   5.147   5.691   6.513
 1969TIP3    H1 5848   5.070   5.661   6.464
 1969TIP3    H2 5849   5.200   5.738   6.448
 1970TIP3   OH2 5850   7.233   2.871   1.995
 1970TIP3    H1 5851   7.323   2.849   2.017
 1970TIP3    H2 5852   7.227   2.966   2.009
 1971TIP3   OH2 5853   6.346   4.678   6.578
 1971TIP3    H1 5854   6.252   4.684   6.592
 1971TIP3    H2 5855   6.369   4.590   6.606
 1972TIP3   OH2 5856   6.671   0.613   1.841
 1972TIP3    H1 5857   6.597   0.558   1.817
 1972TIP3    H2 5858   6.668   0.686   1.779
 1973TIP3   OH2 5859   3.484   1.922   6.188
 1973TIP3    H1 5860   3.396   1.907   6.223
 1973TIP3    H2 5861   3.542   1.909   6.263
 1974TIP3   OH2 5862   6.578   0.064   3.611
 1974TIP3    H1 5863   6.649   0.086   3.672
 1974TIP3    H2 5864   6.554   0.148   3.571
 1975TIP3   OH2 5865   0.196   7.255   1.559
 1975TIP3    H1 5866   0.205   7.161   1.545
 1975TIP3    H2 5867   0.174   7.263   1.652
 1976TIP3   OH2 5868   4.588   4.354   0.455
 1976TIP3    H1 5869   4.595   4.327   0.364
 1976TIP3    H2 5870   4.494   4.354   0.474
 1977TIP3   OH2 5871   0.675   4.532   5.384
 1977TIP3    H1 5872   0.682   4.522   5.479
 1977TIP3    H2 5873   0.661   4.443   5.352
 1978TIP3   OH2 5874   5.217   4.975   1.253
 1978TIP3    H1 5875   5.151   5.031   1.294
 1978TIP3    H2 5876   5.169   4.926   1.187
 1979TIP3   OH2 5877   0.584   6.795   2.048
 1979TIP3    H1 5878   0.496   6.781   2.013
 1979TIP3    H2 5879   0.596   6.890   2.048
 1980TIP3   OH2 5880   3.871   5.912   0.936
 1980TIP3    H1 5881   3.924   5.938   1.011
 1980TIP3    H2 5882   3.868   5.989   0.880
 1981TIP3   OH2 5883   1.300   4.433   4.720
 1981TIP3    H1 5884   1.313   4.357   4.776
 1981TIP3    H2 5885   1.244   4.492   4.771
 1982TIP3   OH2 5886   0.408   0.342   4.063
 1982TIP3    H1 5887   0.474   0.289   4.108
 1982TIP3    H2 5888   0.454   0.377   3.986
 1983TIP3   OH2 5889   2.508   3.943   3.157
 1983TIP3    H1 5890   2.517   3.927   3.063
 1983TIP3    H2 5891   2.596   3.928   3.193
 1984TIP3   OH2 5892   0.046   2.160   3.902
 1984TIP3    H1 5893  -0.006   2.082   3.883
 1984TIP3    H2 5894   0.051   2.207   3.819
 1985TIP3   OH2 5895   7.736   7.308   1.913
 1985TIP3    H1 5896   7.730   7.372   1.984
 1985TIP3    H2 5897   7.682   7.234   1.943
 1986TIP3   OH2 5898   3.584   3.473   6.844
 1986TIP3    H1 5899   3.618   3.474   6.755
 1986TIP3    H2 5900   3.510   3.534   6.843
 1987TIP3   OH2 5901   3.466   0.200   0.071
 1987TIP3    H1 5902   3.489   0.231   0.159
 1987TIP3    H2 5903   3.370   0.190   0.074
 1988TIP3   OH2 5904   6.086   1.142   3.014
 1988TIP3    H1 5905   5.995   1.135   2.986
 1988TIP3    H2 5906   6.104   1.058   3.057
 1989TIP3   OH2 5907   1.880   5.179   5.366
 1989TIP3    H1 5908   1.892   5.260   5.416
 1989TIP3    H2 5909   1.789   5.183   5.335
 1990TIP3   OH2 5910   8.374   5.534   5.821
 1990TIP3    H1 5911   8.386   5.558   5.729
 1990TIP3    H2 5912   8.373   5.617   5.868
 1991TIP3   OH2 5913   1.701   3.314   0.690
 1991TIP3    H1 5914   1.678   3.406   0.675
 1991TIP3    H2 5915   1.784   3.302   0.644
 1992TIP3   OH2 5916   5.946   5.209   4.694
 1992TIP3    H1 5917   5.909   5.254   4.619
 1992TIP3    H2 5918   5.974   5.279   4.753
 1993TIP3   OH2 5919   6.802   2.347   2.801
 1993TIP3    H1 5920   6.711   2.322   2.814
 1993TIP3    H2 5921   6.847   2.315   2.879
 1994TIP3   OH2 5922   0.009   7.145   5.919
 1994TIP3    H1 5923   0.027   7.235   5.893
 1994TIP3    H2 5924   0.092   7.112   5.953
 1995TIP3   OH2 5925   0.667   1.662   1.334
 1995TIP3    H1 5926   0.720   1.612   1.272
 1995TIP3    H2 5927   0.731   1.706   1.390
 1996TIP3   OH2 5928   0.749   0.778   5.686
 1996TIP3    H1 5929   0.824   0.790   5.745
 1996TIP3    H2 5930   0.760   0.688   5.653
 1997TIP3   OH2 5931   7.301   6.230   4.245
 1997TIP3    H1 5932   7.325   6.319   4.219
 1997TIP3    H2 5933   7.215   6.216   4.207
 1998TIP3   OH2 5934   4.136   3.977   5.702
 1998TIP3    H1 5935   4.072   3.954   5.635
 1998TIP3    H2 5936   4.216   3.996   5.653
 1999TIP3   OH2 5937   6.872   3.289   2.003
 1999TIP3    H1 5938   6.877   3.218   1.939
 1999TIP3    H2 5939   6.947   3.345   1.984
 2000TIP3   OH2 5940   4.393   3.165   1.237
 2000TIP3    H1 5941   4.483   3.192   1.251
 2000TIP3    H2 5942   4.380   3.173   1.142
 2001TIP3   OH2 5943   3.356   7.630   2.373
 2001TIP3    H1 5944   3.387   7.632   2.282
 2001TIP3    H2 5945   3.404   7.557   2.413
 2002TIP3   OH2 5946   1.086   7.751   3.667
 2002TIP3    H1 5947   1.057   7.660   3.671
 2002TIP3    H2 5948   1.118   7.762   3.578
 2003TIP3   OH2 5949   7.944   0.766   3.281
 2003TIP3    H1 5950   7.895   0.833   3.233
 2003TIP3    H2 5951   7.894   0.685   3.266
 2004TIP3   OH2 5952   5.787   2.506   6.071
 2004TIP3    H1 5953   5.866   2.480   6.119
 2004TIP3    H2 5954   5.788   2.602   6.074
 2005TIP3   OH2 5955   0.844   4.320   1.099
 2005TIP3    H1 5956   0.905   4.370   1.153
 2005TIP3    H2 5957   0.892   4.240   1.077
 2006TIP3   OH2 5958   2.185   1.021   2.147
 2006TIP3    H1 5959   2.248   1.093   2.155
 2006TIP3    H2 5960   2.119   1.054   2.086
 2007TIP3   OH2 5961   3.941   1.746   5.533
 2007TIP3    H1 5962   3.888   1.686   5.479
 2007TIP3    H2 5963   3.939   1.707   5.620
 2008TIP3   OH2 5964   1.870   7.050   1.569
 2008TIP3    H1 5965   1.790   7.001   1.547
 2008TIP3    H2 5966   1.941   6.987   1.557
 2009TIP3   OH2 5967   5.552   1.839   1.686
 2009TIP3    H1 5968   5.457   1.826   1.693
 2009TIP3    H2 5969   5.578   1.786   1.610
 2010TIP3   OH2 5970   4.126   2.914   1.994
 2010TIP3    H1 5971   4.118   2.834   2.047
 2010TIP3    H2 5972   4.053   2.969   2.023
 2011TIP3   OH2 5973   3.925   7.288   2.990
 2011TIP3    H1 5974   3.979   7.298   3.069
 2011TIP3    H2 5975   3.840   7.260   3.023
 2012TIP3   OH2 5976   7.935   1.438   1.177
 2012TIP3    H1 5977   7.903   1.364   1.125
 2012TIP3    H2 5978   7.906   1.419   1.266
 2013TIP3   OH2 5979   2.524   5.979   2.138
 2013TIP3    H1 5980   2.496   6.026   2.217
 2013TIP3    H2 5981   2.589   6.037   2.097
 2014TIP3   OH2 5982   7.073   4.111   0.603
 2014TIP3    H1 5983   7.135   4.096   0.532
 2014TIP3    H2 5984   6.987   4.114   0.560
 2015TIP3   OH2 5985   6.269   5.110   4.546
 2015TIP3    H1 5986   6.328   5.037   4.528
 2015TIP3    H2 5987   6.191   5.093   4.493
 2016TIP3   OH2 5988   3.032   2.541   1.047
 2016TIP3    H1 5989   2.966   2.482   1.009
 2016TIP3    H2 5990   3.107   2.484   1.064
 2017TIP3   OH2 5991   8.176   2.019   2.203
 2017TIP3    H1 5992   8.155   2.078   2.130
 2017TIP3    H2 5993   8.158   2.071   2.281
 2018TIP3   OH2 5994   2.187   3.867   1.441
 2018TIP3    H1 5995   2.281   3.875   1.457
 2018TIP3    H2 5996   2.180   3.794   1.379
 2019TIP3   OH2 5997   2.655   6.730   5.897
 2019TIP3    H1 5998   2.693   6.651   5.934
 2019TIP3    H2 5999   2.730   6.786   5.877
 2020TIP3   OH2 6000   1.729   7.473   4.755
 2020TIP3    H1 6001   1.725   7.402   4.690
 2020TIP3    H2 6002   1.651   7.525   4.737
 2021TIP3   OH2 6003   0.479   0.514   5.621
 2021TIP3    H1 6004   0.513   0.508   5.711
 2021TIP3    H2 6005   0.550   0.480   5.567
 2022TIP3   OH2 6006   0.066   3.844   4.824
 2022TIP3    H1 6007   0.079   3.778   4.755
 2022TIP3    H2 6008   0.119   3.918   4.795
 2023TIP3   OH2 6009   0.762   1.787   4.198
 2023TIP3    H1 6010   0.783   1.838   4.120
 2023TIP3    H2 6011   0.667   1.776   4.195
 2024TIP3   OH2 6012   7.253   0.236   5.701
 2024TIP3    H1 6013   7.240   0.230   5.795
 2024TIP3    H2 6014   7.264   0.330   5.684
 2025TIP3   OH2 6015   7.940   6.936   1.920
 2025TIP3    H1 6016   7.981   6.949   2.006
 2025TIP3    H2 6017   7.959   7.016   1.872
 2026TIP3   OH2 6018   5.242   0.273   1.022
 2026TIP3    H1 6019   5.310   0.205   1.025
 2026TIP3    H2 6020   5.290   0.355   1.028
 2027TIP3   OH2 6021   2.585   7.643   6.187
 2027TIP3    H1 6022   2.522   7.621   6.255
 2027TIP3    H2 6023   2.639   7.712   6.226
 2028TIP3   OH2 6024   8.356   1.321   2.000
 2028TIP3    H1 6025   8.406   1.361   1.928
 2028TIP3    H2 6026   8.309   1.249   1.959
 2029TIP3   OH2 6027   7.910   7.313   1.443
 2029TIP3    H1 6028   7.904   7.220   1.461
 2029TIP3    H2 6029   7.874   7.355   1.521
 2030TIP3   OH2 6030   5.336   2.249   1.044
 2030TIP3    H1 6031   5.314   2.299   0.966
 2030TIP3    H2 6032   5.376   2.169   1.011
 2031TIP3   OH2 6033   1.413   3.933   5.126
 2031TIP3    H1 6034   1.470   3.953   5.051
 2031TIP3    H2 6035   1.398   3.838   5.119
 2032TIP3   OH2 6036   3.846   6.189   4.018
 2032TIP3    H1 6037   3.777   6.221   4.076
 2032TIP3    H2 6038   3.927   6.221   4.058
 2033TIP3   OH2 6039   4.841   2.771   3.647
 2033TIP3    H1 6040   4.773   2.837   3.642
 2033TIP3    H2 6041   4.803   2.701   3.700
 2034TIP3   OH2 6042   5.929   1.458   3.515
 2034TIP3    H1 6043   5.900   1.368   3.530
 2034TIP3    H2 6044   5.866   1.493   3.452
 2035TIP3   OH2 6045   5.534   0.926   0.849
 2035TIP3    H1 6046   5.450   0.942   0.892
 2035TIP3    H2 6047   5.530   0.834   0.822
 2036TIP3   OH2 6048   8.183   1.847   6.228
 2036TIP3    H1 6049   8.244   1.778   6.203
 2036TIP3    H2 6050   8.215   1.877   6.314
 2037TIP3   OH2 6051   3.688   2.299   1.024
 2037TIP3    H1 6052   3.705   2.334   1.111
 2037TIP3    H2 6053   3.742   2.353   0.966
 2038TIP3   OH2 6054   7.204   7.024   6.468
 2038TIP3    H1 6055   7.230   6.997   6.556
 2038TIP3    H2 6056   7.179   7.116   6.478
 2039TIP3   OH2 6057   5.518   0.374   1.972
 2039TIP3    H1 6058   5.477   0.447   1.926
 2039TIP3    H2 6059   5.444   0.322   2.005
 2040TIP3   OH2 6060   0.921   4.876   2.936
 2040TIP3    H1 6061   0.971   4.955   2.915
 2040TIP3    H2 6062   0.831   4.907   2.944
 2041TIP3   OH2 6063   4.535   7.048   4.743
 2041TIP3    H1 6064   4.481   6.969   4.753
 2041TIP3    H2 6065   4.504   7.107   4.812
 2042TIP3   OH2 6066   2.380   4.342   0.718
 2042TIP3    H1 6067   2.473   4.358   0.735
 2042TIP3    H2 6068   2.347   4.302   0.798
 2043TIP3   OH2 6069   6.415   2.103   3.992
 2043TIP3    H1 6070   6.403   2.185   4.040
 2043TIP3    H2 6071   6.364   2.038   4.040
 2044TIP3   OH2 6072   6.391   3.217   6.666
 2044TIP3    H1 6073   6.296   3.224   6.655
 2044TIP3    H2 6074   6.403   3.192   6.757
 2045TIP3   OH2 6075   4.027   3.499   0.778
 2045TIP3    H1 6076   4.114   3.465   0.796
 2045TIP3    H2 6077   4.042   3.574   0.719
 2046TIP3   OH2 6078   7.058   5.505   3.553
 2046TIP3    H1 6079   7.048   5.506   3.648
 2046TIP3    H2 6080   7.130   5.565   3.536
 2047TIP3   OH2 6081   7.512   6.689   1.873
 2047TIP3    H1 6082   7.566   6.660   1.947
 2047TIP3    H2 6083   7.467   6.609   1.844
 2048TIP3   OH2 6084   7.025   3.287   4.928
 2048TIP3    H1 6085   7.095   3.290   4.862
 2048TIP3    H2 6086   7.024   3.196   4.957
 2049TIP3   OH2 6087   1.219   0.865   6.410
 2049TIP3    H1 6088   1.130   0.860   6.446
 2049TIP3    H2 6089   1.259   0.781   6.433
 2050TIP3   OH2 6090   1.148   2.415   4.623
 2050TIP3    H1 6091   1.188   2.500   4.604
 2050TIP3    H2 6092   1.219   2.352   4.609
 2051TIP3   OH2 6093   7.985   6.697   3.228
 2051TIP3    H1 6094   8.001   6.786   3.261
 2051TIP3    H2 6095   7.899   6.702   3.188
 2052TIP3   OH2 6096   3.962   0.725   1.696
 2052TIP3    H1 6097   3.894   0.716   1.763
 2052TIP3    H2 6098   3.925   0.681   1.619
 2053TIP3   OH2 6099   2.034   1.163   4.457
 2053TIP3    H1 6100   2.080   1.082   4.436
 2053TIP3    H2 6101   2.101   1.219   4.496
 2054TIP3   OH2 6102   0.478   0.804   4.411
 2054TIP3    H1 6103   0.405   0.838   4.360
 2054TIP3    H2 6104   0.545   0.872   4.406
 2055TIP3   OH2 6105   2.363   2.336   0.624
 2055TIP3    H1 6106   2.353   2.343   0.529
 2055TIP3    H2 6107   2.274   2.343   0.658
 2056TIP3   OH2 6108   5.536   7.299   5.885
 2056TIP3    H1 6109   5.447   7.286   5.852
 2056TIP3    H2 6110   5.533   7.267   5.976
 2057TIP3   OH2 6111   7.336   0.189   4.185
 2057TIP3    H1 6112   7.370   0.109   4.146
 2057TIP3    H2 6113   7.359   0.183   4.278
 2058TIP3   OH2 6114   0.699   4.536   2.530
 2058TIP3    H1 6115   0.785   4.505   2.560
 2058TIP3    H2 6116   0.664   4.586   2.603
 2059TIP3   OH2 6117   6.510   1.108   6.809
 2059TIP3    H1 6118   6.496   1.101   6.715
 2059TIP3    H2 6119   6.516   1.202   6.825
 2060TIP3   OH2 6120   7.900   5.016   1.558
 2060TIP3    H1 6121   7.824   5.066   1.589
 2060TIP3    H2 6122   7.871   4.978   1.475
 2061TIP3   OH2 6123   0.820   7.360   6.330
 2061TIP3    H1 6124   0.789   7.280   6.290
 2061TIP3    H2 6125   0.826   7.423   6.258
 2062TIP3   OH2 6126   3.247   7.225   5.406
 2062TIP3    H1 6127   3.258   7.316   5.378
 2062TIP3    H2 6128   3.291   7.221   5.491
 2063TIP3   OH2 6129   5.779   1.089   2.278
 2063TIP3    H1 6130   5.832   1.009   2.286
 2063TIP3    H2 6131   5.797   1.137   2.359
 2064TIP3   OH2 6132   5.579   3.762   2.759
 2064TIP3    H1 6133   5.557   3.672   2.780
 2064TIP3    H2 6134   5.498   3.801   2.727
 2065TIP3   OH2 6135   4.186   5.296   2.872
 2065TIP3    H1 6136   4.223   5.217   2.912
 2065TIP3    H2 6137   4.093   5.276   2.862
 2066TIP3   OH2 6138   8.231   6.019   1.490
 2066TIP3    H1 6139   8.275   6.100   1.467
 2066TIP3    H2 6140   8.301   5.954   1.497
 2067TIP3   OH2 6141   3.719   5.146   6.762
 2067TIP3    H1 6142   3.677   5.137   6.677
 2067TIP3    H2 6143   3.759   5.233   6.761
 2068TIP3   OH2 6144   0.303   4.364   5.185
 2068TIP3    H1 6145   0.267   4.275   5.183
 2068TIP3    H2 6146   0.396   4.352   5.203
 2069TIP3   OH2 6147   4.882   3.907   0.424
 2069TIP3    H1 6148   4.791   3.897   0.452
 2069TIP3    H2 6149   4.907   3.994   0.457
 2070TIP3   OH2 6150   4.951   6.255   4.175
 2070TIP3    H1 6151   5.004   6.262   4.096
 2070TIP3    H2 6152   4.866   6.291   4.151
 2071TIP3   OH2 6153   3.533   1.286   4.722
 2071TIP3    H1 6154   3.464   1.263   4.660
 2071TIP3    H2 6155   3.494   1.352   4.779
 2072TIP3   OH2 6156   7.236   0.421   2.981
 2072TIP3    H1 6157   7.269   0.478   3.051
 2072TIP3    H2 6158   7.273   0.458   2.901
 2073TIP3   OH2 6159   3.008   2.249   6.031
 2073TIP3    H1 6160   2.981   2.204   6.111
 2073TIP3    H2 6161   3.077   2.193   5.994
 2074TIP3   OH2 6162   6.574   6.656   1.757
 2074TIP3    H1 6163   6.653   6.607   1.779
 2074TIP3    H2 6164   6.606   6.740   1.723
 2075TIP3   OH2 6165   2.401   6.257   6.708
 2075TIP3    H1 6166   2.457   6.282   6.782
 2075TIP3    H2 6167   2.349   6.335   6.691
 2076TIP3   OH2 6168   0.833   0.059   0.335
 2076TIP3    H1 6169   0.878   0.019   0.410
 2076TIP3    H2 6170   0.788   0.135   0.371
 2077TIP3   OH2 6171   1.126   7.415   3.225
 2077TIP3    H1 6172   1.133   7.508   3.243
 2077TIP3    H2 6173   1.076   7.409   3.144
 2078TIP3   OH2 6174   8.351   3.143   0.082
 2078TIP3    H1 6175   8.385   3.226   0.048
 2078TIP3    H2 6176   8.428   3.095   0.109
 2079TIP3   OH2 6177   6.285   6.426   5.802
 2079TIP3    H1 6178   6.304   6.486   5.729
 2079TIP3    H2 6179   6.192   6.439   5.820
 2080TIP3   OH2 6180   5.850   0.791   3.830
 2080TIP3    H1 6181   5.764   0.797   3.873
 2080TIP3    H2 6182   5.892   0.717   3.873
 2081TIP3   OH2 6183   7.054   7.501   3.709
 2081TIP3    H1 6184   7.029   7.420   3.755
 2081TIP3    H2 6185   7.023   7.488   3.620
 2082TIP3   OH2 6186   6.471   1.367   5.885
 2082TIP3    H1 6187   6.459   1.272   5.880
 2082TIP3    H2 6188   6.546   1.379   5.943
 2083TIP3   OH2 6189   3.054   6.947   2.173
 2083TIP3    H1 6190   2.993   6.976   2.105
 2083TIP3    H2 6191   3.088   6.864   2.140
 2084TIP3   OH2 6192   8.036   3.829   6.584
 2084TIP3    H1 6193   8.050   3.756   6.644
 2084TIP3    H2 6194   8.000   3.790   6.505
 2085TIP3   OH2 6195   8.050   3.348   3.102
 2085TIP3    H1 6196   8.047   3.310   3.015
 2085TIP3    H2 6197   7.991   3.294   3.154
 2086TIP3   OH2 6198   2.910   4.984   0.488
 2086TIP3    H1 6199   2.964   4.977   0.409
 2086TIP3    H2 6200   2.840   5.044   0.463
 2087TIP3   OH2 6201   2.677   2.636   4.391
 2087TIP3    H1 6202   2.614   2.687   4.340
 2087TIP3    H2 6203   2.760   2.683   4.380
 2088TIP3   OH2 6204   2.050   4.816   2.661
 2088TIP3    H1 6205   2.106   4.885   2.625
 2088TIP3    H2 6206   1.993   4.862   2.722
 2089TIP3   OH2 6207   5.244   0.865   2.395
 2089TIP3    H1 6208   5.243   0.954   2.429
 2089TIP3    H2 6209   5.250   0.875   2.300
 2090TIP3   OH2 6210   0.712   5.300   6.566
 2090TIP3    H1 6211   0.789   5.311   6.510
 2090TIP3    H2 6212   0.639   5.294   6.506
 2091TIP3   OH2 6213   1.848   2.354   0.454
 2091TIP3    H1 6214   1.810   2.438   0.426
 2091TIP3    H2 6215   1.775   2.309   0.499
 2092TIP3   OH2 6216   1.780   2.096   4.740
 2092TIP3    H1 6217   1.701   2.149   4.727
 2092TIP3    H2 6218   1.817   2.128   4.822
 2093TIP3   OH2 6219   2.256   3.371   1.882
 2093TIP3    H1 6220   2.199   3.397   1.954
 2093TIP3    H2 6221   2.235   3.279   1.865
 2094TIP3   OH2 6222   6.912   0.344   1.813
 2094TIP3    H1 6223   6.920   0.335   1.718
 2094TIP3    H2 6224   6.897   0.437   1.827
 2095TIP3   OH2 6225   8.212   2.258   2.637
 2095TIP3    H1 6226   8.172   2.292   2.557
 2095TIP3    H2 6227   8.302   2.292   2.634
 2096TIP3   OH2 6228   7.807   5.335   2.316
 2096TIP3    H1 6229   7.829   5.243   2.302
 2096TIP3    H2 6230   7.732   5.350   2.259
 2097TIP3   OH2 6231   7.933   2.255   6.822
 2097TIP3    H1 6232   7.843   2.254   6.855
 2097TIP3    H2 6233   7.929   2.204   6.741
 2098TIP3   OH2 6234   6.465   2.089   1.160
 2098TIP3    H1 6235   6.451   2.164   1.219
 2098TIP3    H2 6236   6.560   2.078   1.158
 2099TIP3   OH2 6237   4.933   4.397   0.936
 2099TIP3    H1 6238   4.874   4.472   0.948
 2099TIP3    H2 6239   4.916   4.367   0.847
 2100TIP3   OH2 6240   3.409   1.431   6.294
 2100TIP3    H1 6241   3.504   1.436   6.297
 2100TIP3    H2 6242   3.380   1.492   6.362
 2101TIP3   OH2 6243   2.056   0.606   4.500
 2101TIP3    H1 6244   2.056   0.670   4.429
 2101TIP3    H2 6245   2.124   0.543   4.476
 2102TIP3   OH2 6246   1.954   3.868   3.516
 2102TIP3    H1 6247   1.868   3.826   3.517
 2102TIP3    H2 6248   1.942   3.947   3.463
 2103TIP3   OH2 6249   3.951   4.580   1.111
 2103TIP3    H1 6250   3.924   4.597   1.021
 2103TIP3    H2 6251   4.005   4.501   1.105
 2104TIP3   OH2 6252   2.939   4.062   0.878
 2104TIP3    H1 6253   2.912   4.044   0.968
 2104TIP3    H2 6254   2.913   3.984   0.829
 2105TIP3   OH2 6255   7.511   7.608   6.756
 2105TIP3    H1 6256   7.576   7.585   6.689
 2105TIP3    H2 6257   7.427   7.582   6.719
 2106TIP3   OH2 6258   8.358   2.494   1.635
 2106TIP3    H1 6259   8.359   2.449   1.551
 2106TIP3    H2 6260   8.451   2.506   1.656
 2107TIP3   OH2 6261   8.300   0.263   5.541
 2107TIP3    H1 6262   8.387   0.241   5.510
 2107TIP3    H2 6263   8.297   0.230   5.631
 2108TIP3   OH2 6264   4.239   5.536   4.354
 2108TIP3    H1 6265   4.331   5.560   4.339
 2108TIP3    H2 6266   4.243   5.459   4.410
 2109TIP3   OH2 6267   5.628   0.721   5.293
 2109TIP3    H1 6268   5.553   0.735   5.351
 2109TIP3    H2 6269   5.593   0.737   5.205
 2110TIP3   OH2 6270   1.291   3.999   6.402
 2110TIP3    H1 6271   1.332   4.014   6.317
 2110TIP3    H2 6272   1.345   3.932   6.444
 2111TIP3   OH2 6273   3.955   5.199   3.163
 2111TIP3    H1 6274   4.011   5.195   3.241
 2111TIP3    H2 6275   3.976   5.119   3.115
 2112TIP3   OH2 6276   5.898   6.283   1.831
 2112TIP3    H1 6277   5.829   6.298   1.895
 2112TIP3    H2 6278   5.890   6.191   1.806
 2113TIP3   OH2 6279   8.080   4.574   0.640
 2113TIP3    H1 6280   8.163   4.614   0.614
 2113TIP3    H2 6281   8.100   4.525   0.720
 2114TIP3   OH2 6282   5.289   1.814   6.710
 2114TIP3    H1 6283   5.217   1.818   6.647
 2114TIP3    H2 6284   5.328   1.901   6.707
 2115TIP3   OH2 6285   7.590   3.291   4.951
 2115TIP3    H1 6286   7.655   3.224   4.969
 2115TIP3    H2 6287   7.640   3.373   4.950
 2116TIP3   OH2 6288   8.140   0.093   5.372
 2116TIP3    H1 6289   8.061   0.067   5.420
 2116TIP3    H2 6290   8.180   0.160   5.428
 2117TIP3   OH2 6291   7.157   3.142   2.416
 2117TIP3    H1 6292   7.121   3.181   2.336
 2117TIP3    H2 6293   7.202   3.063   2.386
 2118TIP3   OH2 6294   2.060   3.386   3.781
 2118TIP3    H1 6295   2.043   3.354   3.869
 2118TIP3    H2 6296   2.049   3.309   3.725
 2119TIP3   OH2 6297   3.167   0.678   4.259
 2119TIP3    H1 6298   3.098   0.612   4.259
 2119TIP3    H2 6299   3.212   0.666   4.343
 2120TIP3   OH2 6300   6.540   6.618   5.064
 2120TIP3    H1 6301   6.544   6.581   4.975
 2120TIP3    H2 6302   6.528   6.712   5.050
 2121TIP3   OH2 6303   4.608   6.285   1.491
 2121TIP3    H1 6304   4.548   6.314   1.560
 2121TIP3    H2 6305   4.557   6.222   1.440
 2122TIP3   OH2 6306   7.895   7.616   5.892
 2122TIP3    H1 6307   7.932   7.633   5.978
 2122TIP3    H2 6308   7.875   7.702   5.856
 2123TIP3   OH2 6309   5.971   6.311   5.335
 2123TIP3    H1 6310   6.018   6.235   5.370
 2123TIP3    H2 6311   6.037   6.361   5.287
 2124TIP3   OH2 6312   1.084   6.951   3.427
 2124TIP3    H1 6313   1.035   6.959   3.345
 2124TIP3    H2 6314   1.104   6.858   3.434
 2125TIP3   OH2 6315   4.212   3.227   2.118
 2125TIP3    H1 6316   4.124   3.210   2.083
 2125TIP3    H2 6317   4.198   3.250   2.210
 2126TIP3   OH2 6318   5.902   6.871   6.616
 2126TIP3    H1 6319   5.860   6.870   6.701
 2126TIP3    H2 6320   5.990   6.905   6.633
 2127TIP3   OH2 6321   7.826   5.032   3.380
 2127TIP3    H1 6322   7.834   5.100   3.446
 2127TIP3    H2 6323   7.830   5.078   3.297
 2128TIP3   OH2 6324   6.340   0.200   1.698
 2128TIP3    H1 6325   6.387   0.273   1.657
 2128TIP3    H2 6326   6.345   0.129   1.634
 2129TIP3   OH2 6327   3.156   3.816   1.843
 2129TIP3    H1 6328   3.175   3.876   1.770
 2129TIP3    H2 6329   3.213   3.741   1.827
 2130TIP3   OH2 6330   1.634   4.309   1.680
 2130TIP3    H1 6331   1.681   4.392   1.672
 2130TIP3    H2 6332   1.680   4.250   1.620
 2131TIP3   OH2 6333   6.610   3.737   4.255
 2131TIP3    H1 6334   6.578   3.700   4.173
 2131TIP3    H2 6335   6.599   3.666   4.319
 2132TIP3   OH2 6336   7.412   2.005   6.655
 2132TIP3    H1 6337   7.404   2.095   6.625
 2132TIP3    H2 6338   7.506   1.992   6.666
 2133TIP3   OH2 6339   7.931   0.559   4.040
 2133TIP3    H1 6340   7.840   0.530   4.033
 2133TIP3    H2 6341   7.964   0.557   3.951
 2134TIP3   OH2 6342   1.217   3.040   2.463
 2134TIP3    H1 6343   1.233   3.018   2.371
 2134TIP3    H2 6344   1.235   3.133   2.469
 2135TIP3   OH2 6345   4.130   0.224   4.347
 2135TIP3    H1 6346   4.218   0.240   4.314
 2135TIP3    H2 6347   4.102   0.143   4.304
 2136TIP3   OH2 6348   6.160   2.772   3.383
 2136TIP3    H1 6349   6.097   2.754   3.313
 2136TIP3    H2 6350   6.148   2.701   3.445
 2137TIP3   OH2 6351   4.888   5.900   1.015
 2137TIP3    H1 6352   4.908   5.921   1.107
 2137TIP3    H2 6353   4.954   5.834   0.991
 2138TIP3   OH2 6354   6.471   4.516   0.773
 2138TIP3    H1 6355   6.460   4.466   0.692
 2138TIP3    H2 6356   6.411   4.475   0.835
 2139TIP3   OH2 6357   0.126   7.516   5.780
 2139TIP3    H1 6358   0.101   7.448   5.718
 2139TIP3    H2 6359   0.185   7.573   5.731
 2140TIP3   OH2 6360   2.235   5.631   6.006
 2140TIP3    H1 6361   2.197   5.580   6.077
 2140TIP3    H2 6362   2.161   5.664   5.956
 2141TIP3   OH2 6363   2.674   0.480   4.864
 2141TIP3    H1 6364   2.700   0.547   4.928
 2141TIP3    H2 6365   2.602   0.519   4.816
 2142TIP3   OH2 6366   6.395   4.065   2.589
 2142TIP3    H1 6367   6.311   4.100   2.617
 2142TIP3    H2 6368   6.401   3.980   2.631
 2143TIP3   OH2 6369   0.221   4.700   2.540
 2143TIP3    H1 6370   0.241   4.722   2.631
 2143TIP3    H2 6371   0.288   4.636   2.515
 2144TIP3   OH2 6372   4.578   5.891   0.352
 2144TIP3    H1 6373   4.486   5.918   0.357
 2144TIP3    H2 6374   4.616   5.923   0.434
 2145TIP3   OH2 6375   4.636   0.448   2.316
 2145TIP3    H1 6376   4.655   0.426   2.407
 2145TIP3    H2 6377   4.697   0.518   2.294
 2146TIP3   OH2 6378   7.091   1.303   2.403
 2146TIP3    H1 6379   7.147   1.230   2.430
 2146TIP3    H2 6380   7.082   1.357   2.481
 2147TIP3   OH2 6381   2.950   7.436   3.187
 2147TIP3    H1 6382   2.982   7.395   3.106
 2147TIP3    H2 6383   3.026   7.440   3.244
 2148TIP3   OH2 6384   6.508   2.749   4.226
 2148TIP3    H1 6385   6.440   2.810   4.253
 2148TIP3    H2 6386   6.522   2.768   4.134
 2149TIP3   OH2 6387   1.765   0.033   2.094
 2149TIP3    H1 6388   1.697   0.098   2.114
 2149TIP3    H2 6389   1.847   0.077   2.117
 2150TIP3   OH2 6390   4.638   4.004   6.734
 2150TIP3    H1 6391   4.662   3.955   6.654
 2150TIP3    H2 6392   4.644   3.939   6.804
 2151TIP3   OH2 6393   1.872   5.085   0.253
 2151TIP3    H1 6394   1.808   5.076   0.183
 2151TIP3    H2 6395   1.824   5.061   0.333
 2152TIP3   OH2 6396   6.288   0.591   2.370
 2152TIP3    H1 6397   6.354   0.580   2.302
 2152TIP3    H2 6398   6.295   0.512   2.423
 2153TIP3   OH2 6399   2.964   3.127   2.676
 2153TIP3    H1 6400   3.056   3.105   2.667
 2153TIP3    H2 6401   2.919   3.061   2.623
 2154TIP3   OH2 6402   3.532   7.524   1.173
 2154TIP3    H1 6403   3.470   7.521   1.246
 2154TIP3    H2 6404   3.604   7.578   1.205
 2155TIP3   OH2 6405   7.583   3.891   0.370
 2155TIP3    H1 6406   7.670   3.930   0.372
 2155TIP3    H2 6407   7.556   3.897   0.278
 2156TIP3   OH2 6408   6.239   3.750   1.631
 2156TIP3    H1 6409   6.296   3.755   1.707
 2156TIP3    H2 6410   6.278   3.811   1.568
 2157TIP3   OH2 6411   6.666   1.029   0.072
 2157TIP3    H1 6412   6.607   1.104   0.066
 2157TIP3    H2 6413   6.616   0.963   0.120
 2158TIP3   OH2 6414   3.530   1.633   5.005
 2158TIP3    H1 6415   3.451   1.590   4.973
 2158TIP3    H2 6416   3.554   1.583   5.084
 2159TIP3   OH2 6417   0.002   3.016   3.946
 2159TIP3    H1 6418   0.042   2.941   3.990
 2159TIP3    H2 6419   0.074   3.078   3.935
 2160TIP3   OH2 6420   4.175   6.456   5.004
 2160TIP3    H1 6421   4.194   6.464   5.098
 2160TIP3    H2 6422   4.144   6.366   4.995
 2161TIP3   OH2 6423   0.938   3.097   4.455
 2161TIP3    H1 6424   0.845   3.105   4.474
 2161TIP3    H2 6425   0.945   3.019   4.400
 2162TIP3   OH2 6426   2.863   1.033   5.852
 2162TIP3    H1 6427   2.929   0.966   5.835
 2162TIP3    H2 6428   2.812   0.999   5.926
 2163TIP3   OH2 6429   7.934   5.969   6.716
 2163TIP3    H1 6430   7.841   5.948   6.710
 2163TIP3    H2 6431   7.950   6.030   6.643
 2164TIP3   OH2 6432   0.113   5.319   3.342
 2164TIP3    H1 6433   0.208   5.303   3.344
 2164TIP3    H2 6434   0.089   5.310   3.250
 2165TIP3   OH2 6435   4.459   7.062   6.792
 2165TIP3    H1 6436   4.394   7.040   6.725
 2165TIP3    H2 6437   4.516   7.126   6.749
 2166TIP3   OH2 6438   3.870   7.591   3.890
 2166TIP3    H1 6439   3.937   7.659   3.902
 2166TIP3    H2 6440   3.834   7.578   3.978
 2167TIP3   OH2 6441   7.109   4.393   5.719
 2167TIP3    H1 6442   7.055   4.458   5.764
 2167TIP3    H2 6443   7.199   4.425   5.729
 2168TIP3   OH2 6444   6.460   2.052   1.920
 2168TIP3    H1 6445   6.545   2.094   1.935
 2168TIP3    H2 6446   6.440   2.069   1.828
 2169TIP3   OH2 6447   6.648   6.063   4.635
 2169TIP3    H1 6448   6.620   6.087   4.547
 2169TIP3    H2 6449   6.707   5.989   4.622
 2170TIP3   OH2 6450   1.535   7.145   6.596
 2170TIP3    H1 6451   1.453   7.192   6.585
 2170TIP3    H2 6452   1.511   7.052   6.595
 2171TIP3   OH2 6453   8.270   3.793   0.968
 2171TIP3    H1 6454   8.361   3.820   0.969
 2171TIP3    H2 6455   8.254   3.764   0.878
 2172TIP3   OH2 6456   3.335   2.790   3.387
 2172TIP3    H1 6457   3.383   2.828   3.461
 2172TIP3    H2 6458   3.386   2.714   3.360
 2173TIP3   OH2 6459   7.797   4.937   1.312
 2173TIP3    H1 6460   7.777   4.967   1.223
 2173TIP3    H2 6461   7.775   4.843   1.311
 2174TIP3   OH2 6462   6.179   7.373   3.924
 2174TIP3    H1 6463   6.084   7.371   3.917
 2174TIP3    H2 6464   6.199   7.317   3.999
 2175TIP3   OH2 6465   1.916   0.436   6.557
 2175TIP3    H1 6466   1.933   0.527   6.533
 2175TIP3    H2 6467   1.922   0.388   6.475
 2176TIP3   OH2 6468   5.746   4.946   0.658
 2176TIP3    H1 6469   5.802   4.965   0.733
 2176TIP3    H2 6470   5.800   4.971   0.582
 2177TIP3   OH2 6471   4.371   1.307   5.023
 2177TIP3    H1 6472   4.441   1.248   4.998
 2177TIP3    H2 6473   4.301   1.250   5.054
 2178TIP3   OH2 6474   5.119   6.887   5.333
 2178TIP3    H1 6475   5.044   6.838   5.366
 2178TIP3    H2 6476   5.144   6.842   5.252
 2179TIP3   OH2 6477   3.588   3.096   0.927
 2179TIP3    H1 6478   3.579   3.191   0.928
 2179TIP3    H2 6479   3.620   3.073   1.014
 2180TIP3   OH2 6480   1.871   6.781   2.211
 2180TIP3    H1 6481   1.850   6.689   2.227
 2180TIP3    H2 6482   1.966   6.785   2.211
 2181TIP3   OH2 6483   4.829   6.129   0.102
 2181TIP3    H1 6484   4.924   6.119   0.100
 2181TIP3    H2 6485   4.807   6.128   0.196
 2182TIP3   OH2 6486   3.988   7.122   3.282
 2182TIP3    H1 6487   3.981   7.045   3.338
 2182TIP3    H2 6488   4.042   7.183   3.334
 2183TIP3   OH2 6489   5.904   3.005   2.309
 2183TIP3    H1 6490   5.993   2.972   2.296
 2183TIP3    H2 6491   5.847   2.932   2.286
 2184TIP3   OH2 6492   1.328   3.906   1.825
 2184TIP3    H1 6493   1.326   3.832   1.886
 2184TIP3    H2 6494   1.236   3.916   1.799
 2185TIP3   OH2 6495   6.998   5.757   2.476
 2185TIP3    H1 6496   7.025   5.842   2.511
 2185TIP3    H2 6497   7.061   5.738   2.407
 2186TIP3   OH2 6498   1.234   6.903   1.428
 2186TIP3    H1 6499   1.229   6.996   1.451
 2186TIP3    H2 6500   1.301   6.898   1.361
 2187TIP3   OH2 6501   2.667   3.912   3.354
 2187TIP3    H1 6502   2.701   3.828   3.386
 2187TIP3    H2 6503   2.589   3.927   3.406
 2188TIP3   OH2 6504   2.468   0.854   5.628
 2188TIP3    H1 6505   2.419   0.843   5.547
 2188TIP3    H2 6506   2.402   0.872   5.695
 2189TIP3   OH2 6507   5.771   1.951   2.089
 2189TIP3    H1 6508   5.752   1.921   2.000
 2189TIP3    H2 6509   5.807   1.874   2.133
 2190TIP3   OH2 6510   1.697   4.498   5.474
 2190TIP3    H1 6511   1.756   4.562   5.514
 2190TIP3    H2 6512   1.609   4.532   5.493
 2191TIP3   OH2 6513   0.378   5.937   2.646
 2191TIP3    H1 6514   0.301   5.929   2.703
 2191TIP3    H2 6515   0.451   5.916   2.704
 2192TIP3   OH2 6516   1.263   7.533   1.270
 2192TIP3    H1 6517   1.309   7.609   1.234
 2192TIP3    H2 6518   1.304   7.518   1.355
 2193TIP3   OH2 6519   5.880   6.887   1.166
 2193TIP3    H1 6520   5.920   6.907   1.082
 2193TIP3    H2 6521   5.786   6.898   1.152
 2194TIP3   OH2 6522   6.581   1.539   5.638
 2194TIP3    H1 6523   6.675   1.525   5.653
 2194TIP3    H2 6524   6.538   1.497   5.712
 2195TIP3   OH2 6525   5.073   6.381   2.339
 2195TIP3    H1 6526   5.023   6.458   2.313
 2195TIP3    H2 6527   5.122   6.409   2.416
 2196TIP3   OH2 6528   3.832   1.873   4.835
 2196TIP3    H1 6529   3.913   1.823   4.845
 2196TIP3    H2 6530   3.785   1.858   4.917
 2197TIP3   OH2 6531   3.722   2.040   2.323
 2197TIP3    H1 6532   3.674   2.025   2.242
 2197TIP3    H2 6533   3.788   1.971   2.326
 2198TIP3   OH2 6534   3.860   2.443   2.285
 2198TIP3    H1 6535   3.926   2.388   2.328
 2198TIP3    H2 6536   3.783   2.388   2.278
 2199TIP3   OH2 6537   6.518   7.743   5.760
 2199TIP3    H1 6538   6.483   7.697   5.836
 2199TIP3    H2 6539   6.611   7.754   5.779
 2200TIP3   OH2 6540   6.803   0.319   4.272
 2200TIP3    H1 6541   6.797   0.276   4.186
 2200TIP3    H2 6542   6.885   0.287   4.309
 2201TIP3   OH2 6543   7.341   1.446   1.507
 2201TIP3    H1 6544   7.434   1.463   1.495
 2201TIP3    H2 6545   7.311   1.520   1.561
 2202TIP3   OH2 6546   8.209   5.059   2.463
 2202TIP3    H1 6547   8.266   5.133   2.441
 2202TIP3    H2 6548   8.135   5.099   2.509
 2203TIP3   OH2 6549   2.818   0.573   6.792
 2203TIP3    H1 6550   2.910   0.552   6.806
 2203TIP3    H2 6551   2.819   0.664   6.763
 2204TIP3   OH2 6552   7.083   6.441   5.301
 2204TIP3    H1 6553   7.078   6.497   5.224
 2204TIP3    H2 6554   7.113   6.499   5.371
 2205TIP3   OH2 6555   5.457   3.718   1.012
 2205TIP3    H1 6556   5.393   3.648   1.005
 2205TIP3    H2 6557   5.471   3.729   1.106
 2206TIP3   OH2 6558   5.494   7.471   4.182
 2206TIP3    H1 6559   5.415   7.503   4.226
 2206TIP3    H2 6560   5.519   7.393   4.230
 2207TIP3   OH2 6561   2.789   0.822   0.343
 2207TIP3    H1 6562   2.762   0.911   0.366
 2207TIP3    H2 6563   2.784   0.820   0.247
 2208TIP3   OH2 6564   0.008   4.563   5.641
 2208TIP3    H1 6565  -0.024   4.477   5.666
 2208TIP3    H2 6566   0.054   4.549   5.559
 2209TIP3   OH2 6567   5.833   4.914   4.123
 2209TIP3    H1 6568   5.902   4.850   4.101
 2209TIP3    H2 6569   5.858   4.993   4.076
 2210TIP3   OH2 6570   5.186   7.885   6.809
 2210TIP3    H1 6571   5.186   7.978   6.833
 2210TIP3    H2 6572   5.124   7.845   6.870
 2211TIP3   OH2 6573   0.500   4.261   6.303
 2211TIP3    H1 6574   0.441   4.289   6.234
 2211TIP3    H2 6575   0.588   4.269   6.265
 2212TIP3   OH2 6576   2.226   2.296   6.064
 2212TIP3    H1 6577   2.166   2.221   6.056
 2212TIP3    H2 6578   2.297   2.265   6.119
 2213TIP3   OH2 6579   3.852   3.363   6.055
 2213TIP3    H1 6580   3.850   3.437   5.994
 2213TIP3    H2 6581   3.856   3.286   5.998
 2214TIP3   OH2 6582   2.628   6.627   6.185
 2214TIP3    H1 6583   2.714   6.665   6.196
 2214TIP3    H2 6584   2.639   6.561   6.116
 2215TIP3   OH2 6585   0.365   5.608   4.326
 2215TIP3    H1 6586   0.420   5.588   4.402
 2215TIP3    H2 6587   0.368   5.529   4.272
 2216TIP3   OH2 6588   4.173   3.207   1.701
 2216TIP3    H1 6589   4.171   3.131   1.759
 2216TIP3    H2 6590   4.094   3.199   1.648
 2217TIP3   OH2 6591   6.353   6.274   2.749
 2217TIP3    H1 6592   6.278   6.326   2.779
 2217TIP3    H2 6593   6.359   6.291   2.655
 2218TIP3   OH2 6594   4.543   7.775   0.570
 2218TIP3    H1 6595   4.599   7.701   0.591
 2218TIP3    H2 6596   4.457   7.752   0.607
 2219TIP3   OH2 6597   2.311   4.635   1.734
 2219TIP3    H1 6598   2.285   4.607   1.822
 2219TIP3    H2 6599   2.319   4.553   1.685
 2220TIP3   OH2 6600   6.351   7.223   2.748
 2220TIP3    H1 6601   6.446   7.219   2.741
 2220TIP3    H2 6602   6.336   7.247   2.840
 2221TIP3   OH2 6603   5.694   5.780   4.104
 2221TIP3    H1 6604   5.688   5.840   4.179
 2221TIP3    H2 6605   5.711   5.837   4.030
 2222TIP3   OH2 6606   1.785   4.444   3.329
 2222TIP3    H1 6607   1.765   4.378   3.395
 2222TIP3    H2 6608   1.743   4.524   3.362
 2223TIP3   OH2 6609   1.065   6.236   4.545
 2223TIP3    H1 6610   1.131   6.206   4.482
 2223TIP3    H2 6611   1.113   6.294   4.604
 2224TIP3   OH2 6612   1.449   4.948   0.102
 2224TIP3    H1 6613   1.418   5.003   0.174
 2224TIP3    H2 6614   1.371   4.901   0.073
 2225TIP3   OH2 6615   0.472   4.655   4.909
 2225TIP3    H1 6616   0.537   4.587   4.925
 2225TIP3    H2 6617   0.388   4.609   4.912
 2226TIP3   OH2 6618   7.551   5.358   2.797
 2226TIP3    H1 6619   7.495   5.402   2.733
 2226TIP3    H2 6620   7.502   5.360   2.879
 2227TIP3   OH2 6621   1.957   6.918   1.193
 2227TIP3    H1 6622   1.966   6.833   1.236
 2227TIP3    H2 6623   2.023   6.973   1.234
 2228TIP3   OH2 6624   5.371   2.386   2.079
 2228TIP3    H1 6625   5.327   2.418   2.000
 2228TIP3    H2 6626   5.372   2.462   2.137
 2229TIP3   OH2 6627   4.312   3.275   3.475
 2229TIP3    H1 6628   4.336   3.368   3.485
 2229TIP3    H2 6629   4.335   3.236   3.560
 2230TIP3   OH2 6630   7.487   5.933   5.285
 2230TIP3    H1 6631   7.504   5.898   5.373
 2230TIP3    H2 6632   7.394   5.957   5.287
 2231TIP3   OH2 6633   6.423   2.400   0.492
 2231TIP3    H1 6634   6.496   2.400   0.553
 2231TIP3    H2 6635   6.349   2.365   0.543
 2232TIP3   OH2 6636   6.353   2.484   1.819
 2232TIP3    H1 6637   6.319   2.447   1.737
 2232TIP3    H2 6638   6.350   2.410   1.880
 2233TIP3   OH2 6639   5.181   3.107   5.728
 2233TIP3    H1 6640   5.188   3.118   5.823
 2233TIP3    H2 6641   5.269   3.081   5.700
 2234TIP3   OH2 6642   7.509   2.408   1.289
 2234TIP3    H1 6643   7.417   2.381   1.287
 2234TIP3    H2 6644   7.550   2.354   1.221
 2235TIP3   OH2 6645   1.330   7.194   6.252
 2235TIP3    H1 6646   1.242   7.192   6.290
 2235TIP3    H2 6647   1.372   7.268   6.295
 2236TIP3   OH2 6648   4.112   7.254   3.502
 2236TIP3    H1 6649   4.080   7.280   3.588
 2236TIP3    H2 6650   4.191   7.202   3.520
 2237TIP3   OH2 6651   3.341   5.285   2.149
 2237TIP3    H1 6652   3.278   5.244   2.089
 2237TIP3    H2 6653   3.414   5.224   2.152
 2238TIP3   OH2 6654   5.660   1.904   3.778
 2238TIP3    H1 6655   5.751   1.919   3.802
 2238TIP3    H2 6656   5.663   1.832   3.715
 2239TIP3   OH2 6657   3.822   2.425   6.791
 2239TIP3    H1 6658   3.750   2.475   6.753
 2239TIP3    H2 6659   3.895   2.437   6.731
 2240TIP3   OH2 6660   4.225   4.853   5.282
 2240TIP3    H1 6661   4.178   4.937   5.276
 2240TIP3    H2 6662   4.174   4.802   5.345
 2241TIP3   OH2 6663   6.887   4.428   0.978
 2241TIP3    H1 6664   6.801   4.399   1.007
 2241TIP3    H2 6665   6.901   4.383   0.895
 2242TIP3   OH2 6666   1.202   5.895   6.585
 2242TIP3    H1 6667   1.285   5.931   6.554
 2242TIP3    H2 6668   1.211   5.801   6.576
 2243TIP3   OH2 6669   6.150   2.076   1.623
 2243TIP3    H1 6670   6.203   2.011   1.668
 2243TIP3    H2 6671   6.168   2.062   1.530
 2244TIP3   OH2 6672   3.442   0.477   4.469
 2244TIP3    H1 6673   3.475   0.535   4.400
 2244TIP3    H2 6674   3.373   0.528   4.512
 2245TIP3   OH2 6675   5.641   4.062   0.984
 2245TIP3    H1 6676   5.635   4.122   1.059
 2245TIP3    H2 6677   5.640   3.975   1.024
 2246TIP3   OH2 6678   6.358   0.353   2.066
 2246TIP3    H1 6679   6.415   0.293   2.017
 2246TIP3    H2 6680   6.341   0.307   2.148
 2247TIP3   OH2 6681   5.863   1.544   4.489
 2247TIP3    H1 6682   5.889   1.456   4.461
 2247TIP3    H2 6683   5.919   1.564   4.563
 2248TIP3   OH2 6684   7.881   1.790   2.549
 2248TIP3    H1 6685   7.920   1.875   2.528
 2248TIP3    H2 6686   7.883   1.742   2.466
 2249TIP3   OH2 6687   5.778   0.003   3.794
 2249TIP3    H1 6688   5.830  -0.061   3.843
 2249TIP3    H2 6689   5.784   0.084   3.846
 2250TIP3   OH2 6690   3.085   1.389   1.319
 2250TIP3    H1 6691   3.108   1.358   1.407
 2250TIP3    H2 6692   3.004   1.344   1.297
 2251TIP3   OH2 6693   1.496   0.076   2.251
 2251TIP3    H1 6694   1.560   0.005   2.253
 2251TIP3    H2 6695   1.477   0.093   2.344
 2252TIP3   OH2 6696   1.601   3.361   0.084
 2252TIP3    H1 6697   1.594   3.270   0.058
 2252TIP3    H2 6698   1.556   3.410   0.015
 2253TIP3   OH2 6699   3.815   2.124   2.969
 2253TIP3    H1 6700   3.740   2.065   2.978
 2253TIP3    H2 6701   3.786   2.191   2.907
 2254TIP3   OH2 6702   1.835   4.194   6.877
 2254TIP3    H1 6703   1.820   4.107   6.840
 2254TIP3    H2 6704   1.807   4.255   6.808
 2255TIP3   OH2 6705   3.284   6.732   5.616
 2255TIP3    H1 6706   3.373   6.709   5.589
 2255TIP3    H2 6707   3.270   6.820   5.581
 2256TIP3   OH2 6708   0.078   0.818   2.212
 2256TIP3    H1 6709   0.032   0.774   2.141
 2256TIP3    H2 6710   0.170   0.796   2.199
 2257TIP3   OH2 6711   3.461   0.390   4.000
 2257TIP3    H1 6712   3.392   0.445   4.039
 2257TIP3    H2 6713   3.421   0.355   3.920
 2258TIP3   OH2 6714   8.279   2.330   4.009
 2258TIP3    H1 6715   8.301   2.413   3.967
 2258TIP3    H2 6716   8.324   2.264   3.956
 2259TIP3   OH2 6717   8.052   3.994   2.519
 2259TIP3    H1 6718   7.984   4.042   2.568
 2259TIP3    H2 6719   8.010   3.971   2.436
 2260TIP3   OH2 6720   7.322   6.000   0.843
 2260TIP3    H1 6721   7.313   6.081   0.793
 2260TIP3    H2 6722   7.233   5.965   0.848
 2261TIP3   OH2 6723   0.386   2.099   2.653
 2261TIP3    H1 6724   0.292   2.088   2.671
 2261TIP3    H2 6725   0.425   2.113   2.739
 2262TIP3   OH2 6726   4.417   4.962   6.234
 2262TIP3    H1 6727   4.340   4.961   6.177
 2262TIP3    H2 6728   4.382   4.961   6.323
 2263TIP3   OH2 6729   4.431   0.654   3.346
 2263TIP3    H1 6730   4.356   0.671   3.288
 2263TIP3    H2 6731   4.462   0.567   3.322
 2264TIP3   OH2 6732   6.456   0.509   5.777
 2264TIP3    H1 6733   6.487   0.434   5.727
 2264TIP3    H2 6734   6.388   0.549   5.722
 2265TIP3   OH2 6735   2.166   7.016   2.191
 2265TIP3    H1 6736   2.157   7.110   2.209
 2265TIP3    H2 6737   2.204   6.980   2.271
 2266TIP3   OH2 6738   6.386   5.614   4.071
 2266TIP3    H1 6739   6.308   5.586   4.119
 2266TIP3    H2 6740   6.449   5.542   4.083
 2267TIP3   OH2 6741   6.092   1.858   3.477
 2267TIP3    H1 6742   6.078   1.944   3.438
 2267TIP3    H2 6743   6.122   1.803   3.405
 2268TIP3   OH2 6744   6.670   6.567   2.957
 2268TIP3    H1 6745   6.684   6.509   2.882
 2268TIP3    H2 6746   6.759   6.588   2.987
 2269TIP3   OH2 6747   3.534   0.226   2.626
 2269TIP3    H1 6748   3.557   0.303   2.678
 2269TIP3    H2 6749   3.600   0.223   2.557
 2270TIP3   OH2 6750   1.044   5.568   2.792
 2270TIP3    H1 6751   1.067   5.645   2.844
 2270TIP3    H2 6752   1.029   5.499   2.857
 2271TIP3   OH2 6753   5.495   5.848   6.421
 2271TIP3    H1 6754   5.537   5.867   6.338
 2271TIP3    H2 6755   5.488   5.752   6.423
 2272TIP3   OH2 6756   7.570   5.378   1.560
 2272TIP3    H1 6757   7.519   5.449   1.599
 2272TIP3    H2 6758   7.636   5.422   1.507
 2273TIP3   OH2 6759   7.528   1.479   4.942
 2273TIP3    H1 6760   7.447   1.439   4.911
 2273TIP3    H2 6761   7.502   1.566   4.971
 2274TIP3   OH2 6762   6.246   6.753   0.122
 2274TIP3    H1 6763   6.212   6.838   0.151
 2274TIP3    H2 6764   6.195   6.689   0.171
 2275TIP3   OH2 6765   4.379   4.922   1.846
 2275TIP3    H1 6766   4.381   4.854   1.914
 2275TIP3    H2 6767   4.286   4.946   1.839
 2276TIP3   OH2 6768   5.269   5.423   4.054
 2276TIP3    H1 6769   5.238   5.361   4.120
 2276TIP3    H2 6770   5.360   5.440   4.078
 2277TIP3   OH2 6771   6.439   5.526   1.948
 2277TIP3    H1 6772   6.375   5.490   1.887
 2277TIP3    H2 6773   6.509   5.460   1.951
 2278TIP3   OH2 6774   4.386   3.525   3.564
 2278TIP3    H1 6775   4.481   3.537   3.573
 2278TIP3    H2 6776   4.365   3.565   3.480
 2279TIP3   OH2 6777   3.732   5.205   1.870
 2279TIP3    H1 6778   3.748   5.269   1.939
 2279TIP3    H2 6779   3.643   5.225   1.838
 2280TIP3   OH2 6780   5.785   1.860   1.820
 2280TIP3    H1 6781   5.702   1.833   1.781
 2280TIP3    H2 6782   5.830   1.909   1.750
 2281TIP3   OH2 6783   0.083   1.492   0.516
 2281TIP3    H1 6784   0.003   1.480   0.464
 2281TIP3    H2 6785   0.096   1.587   0.517
 2282TIP3   OH2 6786   7.701   0.950   2.366
 2282TIP3    H1 6787   7.655   1.031   2.387
 2282TIP3    H2 6788   7.688   0.939   2.272
 2283TIP3   OH2 6789   4.473   5.611   0.985
 2283TIP3    H1 6790   4.454   5.546   0.918
 2283TIP3    H2 6791   4.536   5.670   0.943
 2284TIP3   OH2 6792   6.460   2.117   1.656
 2284TIP3    H1 6793   6.404   2.195   1.647
 2284TIP3    H2 6794   6.418   2.051   1.602
 2285TIP3   OH2 6795   6.093   1.773   3.198
 2285TIP3    H1 6796   6.000   1.771   3.175
 2285TIP3    H2 6797   6.138   1.789   3.115
 2286TIP3   OH2 6798   8.109   1.328   5.832
 2286TIP3    H1 6799   8.161   1.331   5.752
 2286TIP3    H2 6800   8.043   1.261   5.815
 2287TIP3   OH2 6801   6.769   0.345   4.899
 2287TIP3    H1 6802   6.823   0.404   4.846
 2287TIP3    H2 6803   6.832   0.296   4.952
 2288TIP3   OH2 6804   1.869   7.761   3.975
 2288TIP3    H1 6805   1.844   7.699   4.044
 2288TIP3    H2 6806   1.891   7.706   3.900
 2289TIP3   OH2 6807   3.518   3.039   5.333
 2289TIP3    H1 6808   3.461   3.095   5.281
 2289TIP3    H2 6809   3.582   3.004   5.270
 2290TIP3   OH2 6810   2.174   2.895   5.175
 2290TIP3    H1 6811   2.270   2.904   5.172
 2290TIP3    H2 6812   2.156   2.862   5.262
 2291TIP3   OH2 6813   4.140   4.440   2.383
 2291TIP3    H1 6814   4.179   4.508   2.438
 2291TIP3    H2 6815   4.084   4.391   2.442
 2292TIP3   OH2 6816   8.338   0.943   6.261
 2292TIP3    H1 6817   8.360   0.924   6.169
 2292TIP3    H2 6818   8.387   0.877   6.311
 2293TIP3   OH2 6819   6.111   2.959   4.133
 2293TIP3    H1 6820   6.070   3.002   4.208
 2293TIP3    H2 6821   6.154   3.031   4.086
 2294TIP3   OH2 6822   7.318   2.715   4.654
 2294TIP3    H1 6823   7.308   2.806   4.625
 2294TIP3    H2 6824   7.230   2.678   4.646
 2295TIP3   OH2 6825   3.284   6.927   3.062
 2295TIP3    H1 6826   3.227   6.876   3.119
 2295TIP3    H2 6827   3.371   6.890   3.075
 2296TIP3   OH2 6828   6.557   2.347   1.059
 2296TIP3    H1 6829   6.574   2.275   0.999
 2296TIP3    H2 6830   6.470   2.379   1.034
 2297TIP3   OH2 6831   2.892   1.111   4.852
 2297TIP3    H1 6832   2.806   1.125   4.891
 2297TIP3    H2 6833   2.940   1.192   4.869
 2298TIP3   OH2 6834   2.455   0.256   5.814
 2298TIP3    H1 6835   2.517   0.216   5.875
 2298TIP3    H2 6836   2.424   0.334   5.859
 2299TIP3   OH2 6837   5.583   0.856   4.974
 2299TIP3    H1 6838   5.670   0.854   4.936
 2299TIP3    H2 6839   5.552   0.946   4.959
 2300TIP3   OH2 6840   7.382   7.803   6.526
 2300TIP3    H1 6841   7.418   7.873   6.580
 2300TIP3    H2 6842   7.457   7.769   6.477
 2301TIP3   OH2 6843   4.080   4.342   1.031
 2301TIP3    H1 6844   4.014   4.362   0.964
 2301TIP3    H2 6845   4.156   4.311   0.982
 2302TIP3   OH2 6846   4.696   0.386   4.427
 2302TIP3    H1 6847   4.703   0.303   4.379
 2302TIP3    H2 6848   4.785   0.422   4.424
 2303TIP3   OH2 6849   0.822   7.293   0.150
 2303TIP3    H1 6850   0.908   7.318   0.184
 2303TIP3    H2 6851   0.839   7.214   0.099
 2304TIP3   OH2 6852   7.664   0.295   3.783
 2304TIP3    H1 6853   7.597   0.234   3.752
 2304TIP3    H2 6854   7.617   0.377   3.798
 2305TIP3   OH2 6855   1.451   5.451   0.115
 2305TIP3    H1 6856   1.434   5.385   0.182
 2305TIP3    H2 6857   1.388   5.432   0.046
 2306TIP3   OH2 6858   7.381   3.943   5.318
 2306TIP3    H1 6859   7.306   3.884   5.311
 2306TIP3    H2 6860   7.427   3.915   5.397
 2307TIP3   OH2 6861   7.694   5.631   0.083
 2307TIP3    H1 6862   7.713   5.564   0.017
 2307TIP3    H2 6863   7.765   5.694   0.073
 2308TIP3   OH2 6864   1.853   1.180   1.273
 2308TIP3    H1 6865   1.817   1.143   1.353
 2308TIP3    H2 6866   1.780   1.177   1.211
 2309TIP3   OH2 6867   5.007   6.245   2.832
 2309TIP3    H1 6868   5.022   6.266   2.740
 2309TIP3    H2 6869   4.943   6.174   2.830
 2310TIP3   OH2 6870   3.608   2.303   2.316
 2310TIP3    H1 6871   3.554   2.380   2.333
 2310TIP3    H2 6872   3.564   2.232   2.363
 2311TIP3   OH2 6873   4.620   5.081   6.616
 2311TIP3    H1 6874   4.704   5.082   6.570
 2311TIP3    H2 6875   4.560   5.040   6.553
 2312TIP3   OH2 6876   3.652   1.292   4.962
 2312TIP3    H1 6877   3.627   1.276   4.871
 2312TIP3    H2 6878   3.721   1.229   4.979
 2313TIP3   OH2 6879   5.128   5.441   0.845
 2313TIP3    H1 6880   5.119   5.495   0.766
 2313TIP3    H2 6881   5.209   5.470   0.886
 2314TIP3   OH2 6882   5.305   5.219   1.556
 2314TIP3    H1 6883   5.369   5.195   1.623
 2314TIP3    H2 6884   5.224   5.177   1.584
 2315TIP3   OH2 6885   1.334   3.800   4.025
 2315TIP3    H1 6886   1.363   3.739   4.093
 2315TIP3    H2 6887   1.288   3.744   3.962
 2316TIP3   OH2 6888   0.094   2.015   2.287
 2316TIP3    H1 6889   0.176   1.968   2.302
 2316TIP3    H2 6890   0.045   1.958   2.228
 2317TIP3   OH2 6891   2.803   6.153   6.216
 2317TIP3    H1 6892   2.735   6.216   6.239
 2317TIP3    H2 6893   2.760   6.091   6.157
 2318TIP3   OH2 6894   7.046   2.575   0.590
 2318TIP3    H1 6895   7.121   2.601   0.537
 2318TIP3    H2 6896   7.081   2.563   0.678
 2319TIP3   OH2 6897   0.200   7.415   6.435
 2319TIP3    H1 6898   0.282   7.454   6.465
 2319TIP3    H2 6899   0.160   7.380   6.514
 2320TIP3   OH2 6900   1.067   4.840   3.361
 2320TIP3    H1 6901   1.142   4.783   3.346
 2320TIP3    H2 6902   1.011   4.825   3.284
 2321TIP3   OH2 6903   8.021   0.936   2.448
 2321TIP3    H1 6904   7.931   0.967   2.448
 2321TIP3    H2 6905   8.044   0.928   2.355
 2322TIP3   OH2 6906   4.732   0.598   6.085
 2322TIP3    H1 6907   4.823   0.571   6.084
 2322TIP3    H2 6908   4.732   0.688   6.052
 2323TIP3   OH2 6909   7.589   5.888   2.753
 2323TIP3    H1 6910   7.497   5.907   2.771
 2323TIP3    H2 6911   7.626   5.864   2.838
 2324TIP3   OH2 6912   3.675   5.404   2.071
 2324TIP3    H1 6913   3.615   5.470   2.037
 2324TIP3    H2 6914   3.640   5.381   2.157
 2325TIP3   OH2 6915   3.479   0.558   1.229
 2325TIP3    H1 6916   3.529   0.639   1.235
 2325TIP3    H2 6917   3.404   0.581   1.174
 2326TIP3   OH2 6918   8.292   5.328   5.108
 2326TIP3    H1 6919   8.225   5.304   5.172
 2326TIP3    H2 6920   8.248   5.388   5.048
 2327TIP3   OH2 6921   5.144   3.962   3.020
 2327TIP3    H1 6922   5.125   3.965   3.114
 2327TIP3    H2 6923   5.143   3.868   2.998
 2328TIP3   OH2 6924   6.581   2.254   5.557
 2328TIP3    H1 6925   6.633   2.195   5.612
 2328TIP3    H2 6926   6.614   2.341   5.578
 2329TIP3   OH2 6927   4.916   5.635   5.964
 2329TIP3    H1 6928   4.896   5.578   6.037
 2329TIP3    H2 6929   5.008   5.617   5.944
 2330TIP3   OH2 6930   8.288   3.120   2.968
 2330TIP3    H1 6931   8.212   3.161   2.926
 2330TIP3    H2 6932   8.324   3.062   2.901
 2331TIP3   OH2 6933   8.041   0.218   6.264
 2331TIP3    H1 6934   8.116   0.272   6.241
 2331TIP3    H2 6935   7.979   0.279   6.305
 2332TIP3   OH2 6936   0.331   3.854   1.998
 2332TIP3    H1 6937   0.235   3.856   1.989
 2332TIP3    H2 6938   0.362   3.814   1.917
 2333TIP3   OH2 6939   6.815   6.329   1.483
 2333TIP3    H1 6940   6.909   6.338   1.467
 2333TIP3    H2 6941   6.808   6.305   1.575
 2334TIP3   OH2 6942   7.046   1.246   3.068
 2334TIP3    H1 6943   7.043   1.282   3.157
 2334TIP3    H2 6944   7.044   1.151   3.080
 2335TIP3   OH2 6945   5.851   3.307   3.708
 2335TIP3    H1 6946   5.899   3.387   3.726
 2335TIP3    H2 6947   5.865   3.253   3.786
 2336TIP3   OH2 6948   3.728   7.785   4.285
 2336TIP3    H1 6949   3.738   7.820   4.373
 2336TIP3    H2 6950   3.635   7.768   4.276
 2337TIP3   OH2 6951   5.432   6.963   2.721
 2337TIP3    H1 6952   5.516   6.920   2.705
 2337TIP3    H2 6953   5.412   6.944   2.813
 2338TIP3   OH2 6954   4.977   7.124   3.373
 2338TIP3    H1 6955   5.025   7.112   3.291
 2338TIP3    H2 6956   4.923   7.202   3.358
 2339TIP3   OH2 6957   2.537   6.353   1.719
 2339TIP3    H1 6958   2.467   6.386   1.663
 2339TIP3    H2 6959   2.596   6.306   1.660
 2340TIP3   OH2 6960   7.320   0.913   5.751
 2340TIP3    H1 6961   7.342   0.853   5.680
 2340TIP3    H2 6962   7.296   0.857   5.824
 2341TIP3   OH2 6963   7.636   6.330   0.073
 2341TIP3    H1 6964   7.591   6.259   0.028
 2341TIP3    H2 6965   7.659   6.392   0.003
 2342TIP3   OH2 6966   3.425   3.579   6.272
 2342TIP3    H1 6967   3.348   3.523   6.262
 2342TIP3    H2 6968   3.498   3.518   6.282
 2343TIP3   OH2 6969   6.638   0.213   3.859
 2343TIP3    H1 6970   6.647   0.181   3.949
 2343TIP3    H2 6971   6.545   0.233   3.850
 2344TIP3   OH2 6972   2.246   4.979   5.233
 2344TIP3    H1 6973   2.185   5.048   5.206
 2344TIP3    H2 6974   2.192   4.914   5.277
 2345TIP3   OH2 6975   7.092   6.196   5.771
 2345TIP3    H1 6976   7.082   6.262   5.840
 2345TIP3    H2 6977   7.004   6.186   5.735
 2346TIP3   OH2 6978   0.604   7.615   6.264
 2346TIP3    H1 6979   0.636   7.614   6.354
 2346TIP3    H2 6980   0.679   7.589   6.212
 2347TIP3   OH2 6981   7.426   0.510   5.126
 2347TIP3    H1 6982   7.425   0.513   5.030
 2347TIP3    H2 6983   7.494   0.573   5.151
 2348TIP3   OH2 6984   4.568   5.152   4.060
 2348TIP3    H1 6985   4.623   5.088   4.106
 2348TIP3    H2 6986   4.504   5.179   4.126
 2349TIP3   OH2 6987   2.036  -0.011   1.377
 2349TIP3    H1 6988   2.022   0.017   1.287
 2349TIP3    H2 6989   2.050   0.070   1.426
 2350TIP3   OH2 6990   7.585   0.966   3.177
 2350TIP3    H1 6991   7.565   0.892   3.119
 2350TIP3    H2 6992   7.585   0.929   3.265
 2351TIP3   OH2 6993   4.525   3.086   3.162
 2351TIP3    H1 6994   4.434   3.117   3.168
 2351TIP3    H2 6995   4.519   2.992   3.179
 2352TIP3   OH2 6996   5.966   5.158   2.013
 2352TIP3    H1 6997   5.893   5.211   2.047
 2352TIP3    H2 6998   5.929   5.071   2.002
 2353TIP3   OH2 6999   5.486   6.446   0.699
 2353TIP3    H1 7000   5.396   6.473   0.682
 2353TIP3    H2 7001   5.489   6.353   0.676
 2354TIP3   OH2 7002   3.543   0.663   1.953
 2354TIP3    H1 7003   3.501   0.607   2.019
 2354TIP3    H2 7004   3.491   0.648   1.873
 2355TIP3   OH2 7005   2.976   2.828   6.338
 2355TIP3    H1 7006   2.966   2.790   6.250
 2355TIP3    H2 7007   2.897   2.800   6.385
 2356TIP3   OH2 7008   0.546   7.793   1.633
 2356TIP3    H1 7009   0.496   7.858   1.584
 2356TIP3    H2 7010   0.497   7.781   1.715
 2357TIP3   OH2 7011   0.228   1.383   6.637
 2357TIP3    H1 7012   0.257   1.365   6.547
 2357TIP3    H2 7013   0.270   1.467   6.658
 2358TIP3   OH2 7014   2.450   7.743   2.830
 2358TIP3    H1 7015   2.428   7.759   2.922
 2358TIP3    H2 7016   2.375   7.777   2.781
 2359TIP3   OH2 7017   6.543   4.247   6.478
 2359TIP3    H1 7018   6.522   4.324   6.425
 2359TIP3    H2 7019   6.488   4.256   6.556
 2360TIP3   OH2 7020   2.169   1.317   3.142
 2360TIP3    H1 7021   2.089   1.350   3.101
 2360TIP3    H2 7022   2.178   1.369   3.222
 2361TIP3   OH2 7023   2.759   2.228   4.602
 2361TIP3    H1 7024   2.721   2.315   4.589
 2361TIP3    H2 7025   2.721   2.197   4.684
 2362TIP3   OH2 7026   0.196   7.835   3.698
 2362TIP3    H1 7027   0.266   7.773   3.676
 2362TIP3    H2 7028   0.154   7.855   3.615
 2363TIP3   OH2 7029   6.788   3.554   4.631
 2363TIP3    H1 7030   6.871   3.598   4.647
 2363TIP3    H2 7031   6.777   3.494   4.704
 2364TIP3   OH2 7032   7.180   1.905   2.206
 2364TIP3    H1 7033   7.179   1.817   2.245
 2364TIP3    H2 7034   7.093   1.941   2.226
 2365TIP3   OH2 7035   1.358   6.600   5.606
 2365TIP3    H1 7036   1.444   6.621   5.571
 2365TIP3    H2 7037   1.335   6.675   5.661
 2366TIP3   OH2 7038   3.499   3.901   2.705
 2366TIP3    H1 7039   3.511   3.893   2.799
 2366TIP3    H2 7040   3.535   3.820   2.669
 2367TIP3   OH2 7041   2.280   4.236   0.968
 2367TIP3    H1 7042   2.218   4.302   1.000
 2367TIP3    H2 7043   2.237   4.152   0.987
 2368TIP3   OH2 7044   5.259   5.750   1.585
 2368TIP3    H1 7045   5.295   5.822   1.534
 2368TIP3    H2 7046   5.165   5.768   1.588
 2369TIP3   OH2 7047   2.270   6.629   1.061
 2369TIP3    H1 7048   2.198   6.691   1.064
 2369TIP3    H2 7049   2.239   6.553   1.111
 2370TIP3   OH2 7050   4.979   6.240   1.526
 2370TIP3    H1 7051   4.991   6.221   1.433
 2370TIP3    H2 7052   5.057   6.289   1.551
 2371TIP3   OH2 7053   0.833   2.054   6.249
 2371TIP3    H1 7054   0.887   2.058   6.170
 2371TIP3    H2 7055   0.810   1.962   6.258
 2372TIP3   OH2 7056   2.720   2.237   6.747
 2372TIP3    H1 7057   2.634   2.277   6.734
 2372TIP3    H2 7058   2.709   2.146   6.720
 2373TIP3   OH2 7059   5.624   1.183   6.815
 2373TIP3    H1 7060   5.678   1.202   6.739
 2373TIP3    H2 7061   5.537   1.164   6.779
 2374TIP3   OH2 7062   5.404   1.066   1.441
 2374TIP3    H1 7063   5.456   1.080   1.520
 2374TIP3    H2 7064   5.316   1.096   1.464
 2375TIP3   OH2 7065   5.565   1.607   4.229
 2375TIP3    H1 7066   5.650   1.587   4.191
 2375TIP3    H2 7067   5.584   1.662   4.305
 2376TIP3   OH2 7068   4.341   7.641   3.916
 2376TIP3    H1 7069   4.330   7.582   3.842
 2376TIP3    H2 7070   4.259   7.635   3.964
 2377TIP3   OH2 7071   6.526   0.669   5.420
 2377TIP3    H1 7072   6.476   0.612   5.362
 2377TIP3    H2 7073   6.485   0.656   5.506
 2378TIP3   OH2 7074   2.582   1.492   0.544
 2378TIP3    H1 7075   2.645   1.464   0.611
 2378TIP3    H2 7076   2.498   1.494   0.590
 2379TIP3   OH2 7077   6.143   6.396   1.659
 2379TIP3    H1 7078   6.222   6.365   1.702
 2379TIP3    H2 7079   6.071   6.365   1.713
 2380TIP3   OH2 7080   5.849   6.149   3.019
 2380TIP3    H1 7081   5.891   6.097   2.951
 2380TIP3    H2 7082   5.900   6.230   3.023
 2381TIP3   OH2 7083   7.045   2.450   6.606
 2381TIP3    H1 7084   6.996   2.486   6.680
 2381TIP3    H2 7085   7.056   2.523   6.546
 2382TIP3   OH2 7086   4.966   5.003   2.006
 2382TIP3    H1 7087   4.966   4.934   2.073
 2382TIP3    H2 7088   4.895   4.978   1.946
 2383TIP3   OH2 7089   3.747   0.547   6.272
 2383TIP3    H1 7090   3.709   0.600   6.342
 2383TIP3    H2 7091   3.833   0.522   6.306
 2384TIP3   OH2 7092   1.410   0.664   1.253
 2384TIP3    H1 7093   1.379   0.726   1.320
 2384TIP3    H2 7094   1.330   0.626   1.218
 2385TIP3   OH2 7095   3.291   5.024   5.552
 2385TIP3    H1 7096   3.253   4.936   5.561
 2385TIP3    H2 7097   3.338   5.038   5.634
 2386TIP3   OH2 7098   2.583   5.563   5.849
 2386TIP3    H1 7099   2.567   5.655   5.825
 2386TIP3    H2 7100   2.627   5.526   5.772
 2387TIP3   OH2 7101   5.675   4.367   0.478
 2387TIP3    H1 7102   5.712   4.438   0.425
 2387TIP3    H2 7103   5.582   4.387   0.484
 2388TIP3   OH2 7104   3.335   4.728   0.540
 2388TIP3    H1 7105   3.359   4.721   0.448
 2388TIP3    H2 7106   3.294   4.644   0.561
 2389TIP3   OH2 7107   5.010   7.163   0.597
 2389TIP3    H1 7108   4.979   7.247   0.564
 2389TIP3    H2 7109   5.100   7.157   0.564
 2390TIP3   OH2 7110   0.786   3.563   4.327
 2390TIP3    H1 7111   0.732   3.572   4.406
 2390TIP3    H2 7112   0.753   3.484   4.284
 2391TIP3   OH2 7113   0.771   6.422   5.649
 2391TIP3    H1 7114   0.847   6.385   5.693
 2391TIP3    H2 7115   0.755   6.362   5.576
 2392TIP3   OH2 7116   6.463   1.383   4.977
 2392TIP3    H1 7117   6.517   1.419   5.047
 2392TIP3    H2 7118   6.422   1.306   5.016
 2393TIP3   OH2 7119   6.388   2.427   6.397
 2393TIP3    H1 7120   6.366   2.465   6.312
 2393TIP3    H2 7121   6.484   2.431   6.401
 2394TIP3   OH2 7122   7.160   7.629   3.958
 2394TIP3    H1 7123   7.090   7.627   3.894
 2394TIP3    H2 7124   7.173   7.537   3.983
 2395TIP3   OH2 7125   2.696   3.459   0.962
 2395TIP3    H1 7126   2.767   3.399   0.983
 2395TIP3    H2 7127   2.618   3.417   0.998
 2396TIP3   OH2 7128   3.466   1.347   3.405
 2396TIP3    H1 7129   3.407   1.368   3.333
 2396TIP3    H2 7130   3.553   1.345   3.366
 2397TIP3   OH2 7131   6.492   4.077   6.195
 2397TIP3    H1 7132   6.525   4.147   6.252
 2397TIP3    H2 7133   6.446   4.018   6.254
 2398TIP3   OH2 7134   0.808   7.725   6.812
 2398TIP3    H1 7135   0.762   7.658   6.863
 2398TIP3    H2 7136   0.752   7.739   6.736
 2399TIP3   OH2 7137   3.884   1.241   0.599
 2399TIP3    H1 7138   3.919   1.317   0.646
 2399TIP3    H2 7139   3.922   1.165   0.643
 2400TIP3   OH2 7140   3.622   5.845   3.642
 2400TIP3    H1 7141   3.630   5.929   3.688
 2400TIP3    H2 7142   3.527   5.830   3.638
 2401TIP3   OH2 7143   6.131   6.198   3.283
 2401TIP3    H1 7144   6.152   6.292   3.287
 2401TIP3    H2 7145   6.163   6.171   3.197
 2402TIP3   OH2 7146   4.110   2.564   2.836
 2402TIP3    H1 7147   4.156   2.648   2.830
 2402TIP3    H2 7148   4.097   2.550   2.930
 2403TIP3   OH2 7149   1.168   0.617   1.712
 2403TIP3    H1 7150   1.206   0.679   1.774
 2403TIP3    H2 7151   1.112   0.671   1.656
 2404TIP3   OH2 7152   4.721   0.795   2.309
 2404TIP3    H1 7153   4.781   0.724   2.334
 2404TIP3    H2 7154   4.650   0.789   2.373
 2405TIP3   OH2 7155   7.971   0.366   5.277
 2405TIP3    H1 7156   7.924   0.434   5.323
 2405TIP3    H2 7157   8.062   0.377   5.303
 2406TIP3   OH2 7158   2.125   4.566   4.119
 2406TIP3    H1 7159   2.108   4.535   4.207
 2406TIP3    H2 7160   2.052   4.623   4.098
 2407TIP3   OH2 7161   7.604   0.359   4.555
 2407TIP3    H1 7162   7.551   0.421   4.606
 2407TIP3    H2 7163   7.688   0.357   4.601
 2408TIP3   OH2 7164   1.189   4.254   3.401
 2408TIP3    H1 7165   1.186   4.166   3.364
 2408TIP3    H2 7166   1.166   4.242   3.493
 2409TIP3   OH2 7167   3.144   6.755   4.222
 2409TIP3    H1 7168   3.052   6.774   4.205
 2409TIP3    H2 7169   3.156   6.773   4.315
 2410TIP3   OH2 7170   5.865   1.939   4.457
 2410TIP3    H1 7171   5.959   1.932   4.474
 2410TIP3    H2 7172   5.851   2.030   4.433
 2411TIP3   OH2 7173   5.926   7.381   1.615
 2411TIP3    H1 7174   5.989   7.396   1.686
 2411TIP3    H2 7175   5.842   7.408   1.651
 2412TIP3   OH2 7176   0.046   3.470   0.570
 2412TIP3    H1 7177  -0.026   3.527   0.541
 2412TIP3    H2 7178   0.018   3.439   0.656
 2413TIP3   OH2 7179   5.103   2.427   6.084
 2413TIP3    H1 7180   5.051   2.463   6.013
 2413TIP3    H2 7181   5.191   2.461   6.069
 2414TIP3   OH2 7182   8.429   5.962   2.737
 2414TIP3    H1 7183   8.395   5.874   2.753
 2414TIP3    H2 7184   8.358   6.020   2.764
 2415TIP3   OH2 7185   3.259   7.518   5.752
 2415TIP3    H1 7186   3.222   7.561   5.830
 2415TIP3    H2 7187   3.318   7.584   5.715
 2416TIP3   OH2 7188   1.578   6.449   2.223
 2416TIP3    H1 7189   1.548   6.540   2.224
 2416TIP3    H2 7190   1.661   6.452   2.176
 2417TIP3   OH2 7191   4.683   0.788   0.241
 2417TIP3    H1 7192   4.684   0.705   0.193
 2417TIP3    H2 7193   4.662   0.854   0.174
 2418TIP3   OH2 7194   4.250   4.921   6.455
 2418TIP3    H1 7195   4.228   4.971   6.533
 2418TIP3    H2 7196   4.197   4.842   6.461
 2419TIP3   OH2 7197   3.396   3.843   5.553
 2419TIP3    H1 7198   3.454   3.905   5.599
 2419TIP3    H2 7199   3.455   3.777   5.517
 2420TIP3   OH2 7200   2.077   5.844   2.308
 2420TIP3    H1 7201   2.036   5.927   2.335
 2420TIP3    H2 7202   2.065   5.786   2.384
 2421TIP3   OH2 7203   2.047   5.824   6.266
 2421TIP3    H1 7204   2.031   5.858   6.354
 2421TIP3    H2 7205   2.134   5.858   6.243
 2422TIP3   OH2 7206   6.338   4.910   2.151
 2422TIP3    H1 7207   6.310   4.839   2.094
 2422TIP3    H2 7208   6.262   4.926   2.207
 2423TIP3   OH2 7209   6.411   7.466   3.787
 2423TIP3    H1 7210   6.332   7.426   3.824
 2423TIP3    H2 7211   6.378   7.523   3.717
 2424TIP3   OH2 7212   6.118   2.128   5.659
 2424TIP3    H1 7213   6.069   2.080   5.592
 2424TIP3    H2 7214   6.180   2.182   5.609
 2425TIP3   OH2 7215   2.386   7.143   0.610
 2425TIP3    H1 7216   2.372   7.070   0.670
 2425TIP3    H2 7217   2.450   7.110   0.547
 2426TIP3   OH2 7218   5.815   1.401   5.496
 2426TIP3    H1 7219   5.764   1.320   5.490
 2426TIP3    H2 7220   5.749   1.470   5.507
 2427TIP3   OH2 7221   2.528   0.178   4.814
 2427TIP3    H1 7222   2.590   0.225   4.759
 2427TIP3    H2 7223   2.538   0.086   4.788
 2428TIP3   OH2 7224   7.003   4.717   3.219
 2428TIP3    H1 7225   6.961   4.799   3.192
 2428TIP3    H2 7226   7.064   4.696   3.148
 2429TIP3   OH2 7227   5.679   7.048   5.139
 2429TIP3    H1 7228   5.590   7.052   5.174
 2429TIP3    H2 7229   5.696   7.136   5.106
 2430TIP3   OH2 7230   2.678   7.390   1.790
 2430TIP3    H1 7231   2.632   7.474   1.795
 2430TIP3    H2 7232   2.768   7.414   1.765
 2431TIP3   OH2 7233   5.224   3.422   6.195
 2431TIP3    H1 7234   5.191   3.413   6.285
 2431TIP3    H2 7235   5.283   3.347   6.184
 2432TIP3   OH2 7236   3.976   3.937   5.477
 2432TIP3    H1 7237   3.901   3.889   5.511
 2432TIP3    H2 7238   3.990   3.901   5.389
 2433TIP3   OH2 7239   2.147   3.040   0.560
 2433TIP3    H1 7240   2.169   2.952   0.590
 2433TIP3    H2 7241   2.175   3.042   0.468
 2434TIP3   OH2 7242   2.445   3.179   5.623
 2434TIP3    H1 7243   2.523   3.127   5.641
 2434TIP3    H2 7244   2.401   3.133   5.552
 2435TIP3   OH2 7245   1.626   4.742   4.106
 2435TIP3    H1 7246   1.720   4.756   4.118
 2435TIP3    H2 7247   1.588   4.830   4.113
 2436TIP3   OH2 7248   0.567   2.496   2.473
 2436TIP3    H1 7249   0.611   2.491   2.558
 2436TIP3    H2 7250   0.637   2.512   2.410
 2437TIP3   OH2 7251   8.295   0.093   2.927
 2437TIP3    H1 7252   8.327   0.154   2.993
 2437TIP3    H2 7253   8.373   0.059   2.884
 2438TIP3   OH2 7254   7.164   3.140   4.113
 2438TIP3    H1 7255   7.134   3.121   4.024
 2438TIP3    H2 7256   7.257   3.159   4.104
 2439TIP3   OH2 7257   7.537   1.552   1.311
 2439TIP3    H1 7258   7.513   1.614   1.243
 2439TIP3    H2 7259   7.578   1.479   1.264
 2440TIP3   OH2 7260   3.481   5.864   0.129
 2440TIP3    H1 7261   3.480   5.803   0.055
 2440TIP3    H2 7262   3.557   5.920   0.112
 2441TIP3   OH2 7263   8.067   5.889   1.200
 2441TIP3    H1 7264   8.088   5.964   1.256
 2441TIP3    H2 7265   8.048   5.818   1.261
 2442TIP3   OH2 7266   2.484   0.348   2.917
 2442TIP3    H1 7267   2.573   0.381   2.904
 2442TIP3    H2 7268   2.450   0.400   2.990
 2443TIP3   OH2 7269   5.463   1.662   2.878
 2443TIP3    H1 7270   5.450   1.744   2.925
 2443TIP3    H2 7271   5.491   1.688   2.791
 2444TIP3   OH2 7272   4.022   1.944   4.208
 2444TIP3    H1 7273   4.077   1.890   4.151
 2444TIP3    H2 7274   3.967   1.882   4.255
 2445TIP3   OH2 7275   6.579   5.670   6.689
 2445TIP3    H1 7276   6.573   5.589   6.638
 2445TIP3    H2 7277   6.616   5.734   6.628
 2446TIP3   OH2 7278   4.361   5.458   4.998
 2446TIP3    H1 7279   4.449   5.423   4.991
 2446TIP3    H2 7280   4.354   5.520   4.925
 2447TIP3   OH2 7281   3.852   5.195   5.685
 2447TIP3    H1 7282   3.875   5.112   5.726
 2447TIP3    H2 7283   3.934   5.227   5.647
 2448TIP3   OH2 7284   3.232   7.538   1.793
 2448TIP3    H1 7285   3.177   7.485   1.735
 2448TIP3    H2 7286   3.251   7.481   1.868
 2449TIP3   OH2 7287   6.584   5.329   4.862
 2449TIP3    H1 7288   6.610   5.345   4.771
 2449TIP3    H2 7289   6.489   5.344   4.862
 2450TIP3   OH2 7290   4.119   2.248   0.233
 2450TIP3    H1 7291   4.051   2.290   0.286
 2450TIP3    H2 7292   4.105   2.155   0.246
 2451TIP3   OH2 7293   5.668   4.706   2.542
 2451TIP3    H1 7294   5.667   4.801   2.537
 2451TIP3    H2 7295   5.620   4.686   2.622
 2452TIP3   OH2 7296   5.852   4.554   1.736
 2452TIP3    H1 7297   5.801   4.504   1.800
 2452TIP3    H2 7298   5.786   4.608   1.691
 2453TIP3   OH2 7299   8.143   4.554   1.959
 2453TIP3    H1 7300   8.071   4.538   2.020
 2453TIP3    H2 7301   8.103   4.549   1.872
 2454TIP3   OH2 7302   1.626   3.617   6.741
 2454TIP3    H1 7303   1.658   3.627   6.651
 2454TIP3    H2 7304   1.571   3.538   6.738
 2455TIP3   OH2 7305   0.251   0.919   4.300
 2455TIP3    H1 7306   0.289   0.945   4.215
 2455TIP3    H2 7307   0.200   0.841   4.280
 2456TIP3   OH2 7308   3.183   7.802   3.547
 2456TIP3    H1 7309   3.244   7.823   3.617
 2456TIP3    H2 7310   3.158   7.887   3.511
 2457TIP3   OH2 7311   1.705   3.296   1.745
 2457TIP3    H1 7312   1.725   3.224   1.804
 2457TIP3    H2 7313   1.612   3.287   1.726
 2458TIP3   OH2 7314   4.880   5.546   5.015
 2458TIP3    H1 7315   4.801   5.504   4.980
 2458TIP3    H2 7316   4.893   5.623   4.960
 2459TIP3   OH2 7317   2.060   1.362   1.015
 2459TIP3    H1 7318   2.131   1.346   1.077
 2459TIP3    H2 7319   1.983   1.321   1.056
 2460TIP3   OH2 7320   2.799   3.018   6.507
 2460TIP3    H1 7321   2.755   3.009   6.422
 2460TIP3    H2 7322   2.728   3.040   6.568
 2461TIP3   OH2 7323   4.608   1.210   6.357
 2461TIP3    H1 7324   4.533   1.264   6.331
 2461TIP3    H2 7325   4.669   1.273   6.395
 2462TIP3   OH2 7326   5.448   4.575   1.005
 2462TIP3    H1 7327   5.397   4.655   1.006
 2462TIP3    H2 7328   5.396   4.513   0.953
 2463TIP3   OH2 7329   8.006   4.758   1.085
 2463TIP3    H1 7330   7.954   4.815   1.028
 2463TIP3    H2 7331   8.096   4.770   1.055
 2464TIP3   OH2 7332   7.936   6.219   4.295
 2464TIP3    H1 7333   8.023   6.186   4.275
 2464TIP3    H2 7334   7.881   6.141   4.299
 2465TIP3   OH2 7335   6.262   4.815   3.917
 2465TIP3    H1 7336   6.254   4.733   3.867
 2465TIP3    H2 7337   6.276   4.882   3.851
 2466TIP3   OH2 7338   8.060   2.980   1.354
 2466TIP3    H1 7339   8.055   2.946   1.265
 2466TIP3    H2 7340   8.031   3.071   1.346
 2467TIP3   OH2 7341   3.466   2.885   0.508
 2467TIP3    H1 7342   3.411   2.855   0.580
 2467TIP3    H2 7343   3.540   2.824   0.507
 2468TIP3   OH2 7344   5.181   5.699   4.607
 2468TIP3    H1 7345   5.126   5.774   4.581
 2468TIP3    H2 7346   5.121   5.624   4.605
 2469TIP3   OH2 7347   2.531   0.524   5.917
 2469TIP3    H1 7348   2.436   0.538   5.918
 2469TIP3    H2 7349   2.555   0.515   6.010
 2470TIP3   OH2 7350   1.888   2.989   1.601
 2470TIP3    H1 7351   1.854   3.001   1.689
 2470TIP3    H2 7352   1.867   2.898   1.579
 2471TIP3   OH2 7353   3.486   1.172   0.047
 2471TIP3    H1 7354   3.400   1.130   0.050
 2471TIP3    H2 7355   3.475   1.253   0.096
 2472TIP3   OH2 7356   7.329   1.458   3.223
 2472TIP3    H1 7357   7.247   1.425   3.262
 2472TIP3    H2 7358   7.398   1.409   3.267
 2473TIP3   OH2 7359   6.827   4.752   0.333
 2473TIP3    H1 7360   6.766   4.814   0.294
 2473TIP3    H2 7361   6.812   4.760   0.427
 2474TIP3   OH2 7362   3.908   6.781   0.970
 2474TIP3    H1 7363   3.895   6.768   1.064
 2474TIP3    H2 7364   3.820   6.789   0.934
 2475TIP3   OH2 7365   4.008   4.826   1.583
 2475TIP3    H1 7366   4.101   4.818   1.560
 2475TIP3    H2 7367   4.002   4.910   1.629
 2476TIP3   OH2 7368   6.148   1.916   3.742
 2476TIP3    H1 7369   6.130   1.903   3.648
 2476TIP3    H2 7370   6.234   1.958   3.744
 2477TIP3   OH2 7371   2.460   3.000   5.175
 2477TIP3    H1 7372   2.467   3.043   5.089
 2477TIP3    H2 7373   2.525   2.930   5.171
 2478TIP3   OH2 7374   0.686   3.340   6.465
 2478TIP3    H1 7375   0.733   3.345   6.548
 2478TIP3    H2 7376   0.662   3.248   6.457
 2479TIP3   OH2 7377   6.658   1.999   4.345
 2479TIP3    H1 7378   6.592   1.950   4.297
 2479TIP3    H2 7379   6.709   2.043   4.277
 2480TIP3   OH2 7380   5.471   2.554   3.783
 2480TIP3    H1 7381   5.431   2.483   3.733
 2480TIP3    H2 7382   5.409   2.571   3.854
 2481TIP3   OH2 7383   3.859   2.892   1.288
 2481TIP3    H1 7384   3.840   2.811   1.335
 2481TIP3    H2 7385   3.954   2.901   1.293
 2482TIP3   OH2 7386   1.833   5.425   3.390
 2482TIP3    H1 7387   1.848   5.433   3.484
 2482TIP3    H2 7388   1.859   5.510   3.353
 2483TIP3   OH2 7389   2.214   6.920   0.197
 2483TIP3    H1 7390   2.184   6.997   0.247
 2483TIP3    H2 7391   2.163   6.924   0.116
 2484TIP3   OH2 7392   7.537   4.010   3.079
 2484TIP3    H1 7393   7.566   4.100   3.088
 2484TIP3    H2 7394   7.488   3.992   3.159
 2485TIP3   OH2 7395   8.165   7.371   5.739
 2485TIP3    H1 7396   8.185   7.378   5.832
 2485TIP3    H2 7397   8.119   7.288   5.730
 2486TIP3   OH2 7398   1.609   5.680   1.150
 2486TIP3    H1 7399   1.529   5.712   1.109
 2486TIP3    H2 7400   1.666   5.658   1.076
 2487TIP3   OH2 7401   5.514   4.325   3.044
 2487TIP3    H1 7402   5.594   4.288   3.082
 2487TIP3    H2 7403   5.469   4.250   3.005
 2488TIP3   OH2 7404   2.591   7.159   2.958
 2488TIP3    H1 7405   2.650   7.233   2.942
 2488TIP3    H2 7406   2.623   7.091   2.899
 2489TIP3   OH2 7407   1.616   5.409   1.258
 2489TIP3    H1 7408   1.533   5.404   1.305
 2489TIP3    H2 7409   1.614   5.495   1.215
 2490TIP3   OH2 7410   0.042   0.464   5.881
 2490TIP3    H1 7411   0.094   0.385   5.896
 2490TIP3    H2 7412  -0.049   0.434   5.886
 2491TIP3   OH2 7413   8.408   1.435   3.405
 2491TIP3    H1 7414   8.314   1.449   3.392
 2491TIP3    H2 7415   8.433   1.377   3.333
 2492TIP3   OH2 7416   0.318   3.785   4.665
 2492TIP3    H1 7417   0.411   3.810   4.668
 2492TIP3    H2 7418   0.315   3.713   4.602
 2493TIP3   OH2 7419   2.540   3.711   5.591
 2493TIP3    H1 7420   2.578   3.699   5.504
 2493TIP3    H2 7421   2.555   3.629   5.637
 2494TIP3   OH2 7422   0.001   6.823   0.708
 2494TIP3    H1 7423  -0.002   6.733   0.674
 2494TIP3    H2 7424   0.036   6.813   0.797
 2495TIP3   OH2 7425   3.653   3.791   6.775
 2495TIP3    H1 7426   3.614   3.796   6.862
 2495TIP3    H2 7427   3.595   3.733   6.725
 2496TIP3   OH2 7428   2.214   0.104   0.961
 2496TIP3    H1 7429   2.160   0.120   0.884
 2496TIP3    H2 7430   2.161   0.136   1.034
 2497TIP3   OH2 7431   6.300   6.910   4.195
 2497TIP3    H1 7432   6.295   6.957   4.278
 2497TIP3    H2 7433   6.384   6.935   4.158
 2498TIP3   OH2 7434   0.774   2.046   0.694
 2498TIP3    H1 7435   0.742   1.988   0.763
 2498TIP3    H2 7436   0.729   2.016   0.615
 2499TIP3   OH2 7437   4.420   3.859   1.241
 2499TIP3    H1 7438   4.383   3.778   1.207
 2499TIP3    H2 7439   4.481   3.831   1.310
 2500TIP3   OH2 7440   7.528   0.957   1.682
 2500TIP3    H1 7441   7.606   0.907   1.658
 2500TIP3    H2 7442   7.543   1.044   1.643
 2501TIP3   OH2 7443   8.305   6.168   4.413
 2501TIP3    H1 7444   8.339   6.248   4.374
 2501TIP3    H2 7445   8.281   6.193   4.502
 2502TIP3   OH2 7446   0.275   6.023   5.403
 2502TIP3    H1 7447   0.204   5.991   5.346
 2502TIP3    H2 7448   0.355   5.996   5.359
 2503TIP3   OH2 7449   6.630   3.724   3.729
 2503TIP3    H1 7450   6.697   3.667   3.766
 2503TIP3    H2 7451   6.570   3.740   3.801
 2504TIP3   OH2 7452   4.893   7.555   0.024
 2504TIP3    H1 7453   4.979   7.553   0.067
 2504TIP3    H2 7454   4.901   7.492  -0.048
 2505TIP3   OH2 7455   2.930   0.346   4.134
 2505TIP3    H1 7456   3.004   0.288   4.115
 2505TIP3    H2 7457   2.968   0.416   4.188
 2506TIP3   OH2 7458   7.755   6.975   2.723
 2506TIP3    H1 7459   7.699   6.931   2.786
 2506TIP3    H2 7460   7.700   7.043   2.684
 2507TIP3   OH2 7461   5.675   6.540   0.090
 2507TIP3    H1 7462   5.580   6.541   0.103
 2507TIP3    H2 7463   5.706   6.474   0.152
 2508TIP3   OH2 7464   7.470   7.725   0.016
 2508TIP3    H1 7465   7.535   7.666  -0.023
 2508TIP3    H2 7466   7.465   7.698   0.108
 2509TIP3   OH2 7467   1.322   6.560   2.971
 2509TIP3    H1 7468   1.394   6.594   2.918
 2509TIP3    H2 7469   1.357   6.479   3.009
 2510TIP3   OH2 7470   4.537   5.431   6.016
 2510TIP3    H1 7471   4.469   5.370   6.045
 2510TIP3    H2 7472   4.490   5.497   5.964
 2511TIP3   OH2 7473   0.779   7.159   5.766
 2511TIP3    H1 7474   0.849   7.137   5.827
 2511TIP3    H2 7475   0.808   7.126   5.681
 2512TIP3   OH2 7476   0.388   1.227   4.047
 2512TIP3    H1 7477   0.381   1.133   4.030
 2512TIP3    H2 7478   0.406   1.265   3.961
 2513TIP3   OH2 7479   2.291   7.794   6.603
 2513TIP3    H1 7480   2.339   7.798   6.686
 2513TIP3    H2 7481   2.205   7.761   6.627
 2514TIP3   OH2 7482   6.187   2.847   2.448
 2514TIP3    H1 7483   6.204   2.930   2.404
 2514TIP3    H2 7484   6.274   2.810   2.464
 2515TIP3   OH2 7485   4.170   3.423   0.482
 2515TIP3    H1 7486   4.208   3.508   0.459
 2515TIP3    H2 7487   4.078   3.443   0.502
 2516TIP3   OH2 7488   7.601   0.083   5.902
 2516TIP3    H1 7489   7.594   0.152   5.836
 2516TIP3    H2 7490   7.690   0.048   5.891
 2517TIP3   OH2 7491   1.668   5.777   1.963
 2517TIP3    H1 7492   1.741   5.729   1.925
 2517TIP3    H2 7493   1.617   5.710   2.009
 2518TIP3   OH2 7494   5.669   2.646   4.995
 2518TIP3    H1 7495   5.738   2.591   5.030
 2518TIP3    H2 7496   5.698   2.668   4.906
 2519TIP3   OH2 7497   0.561   3.023   0.491
 2519TIP3    H1 7498   0.607   2.958   0.543
 2519TIP3    H2 7499   0.579   3.106   0.534
 2520TIP3   OH2 7500   2.800   4.566   0.206
 2520TIP3    H1 7501   2.855   4.491   0.185
 2520TIP3    H2 7502   2.841   4.639   0.159
 2521TIP3   OH2 7503   0.353   4.260   3.546
 2521TIP3    H1 7504   0.267   4.231   3.576
 2521TIP3    H2 7505   0.336   4.337   3.493
 2522TIP3   OH2 7506   2.748   4.133   4.525
 2522TIP3    H1 7507   2.791   4.065   4.474
 2522TIP3    H2 7508   2.657   4.104   4.531
 2523TIP3   OH2 7509   2.379   7.333   2.739
 2523TIP3    H1 7510   2.343   7.258   2.785
 2523TIP3    H2 7511   2.318   7.405   2.756
 2524TIP3   OH2 7512   0.148   1.567   1.269
 2524TIP3    H1 7513   0.092   1.545   1.343
 2524TIP3    H2 7514   0.237   1.548   1.299
 2525TIP3   OH2 7515   4.359   5.263   6.515
 2525TIP3    H1 7516   4.265   5.243   6.510
 2525TIP3    H2 7517   4.394   5.200   6.578
 2526TIP3   OH2 7518   4.532   2.743   3.519
 2526TIP3    H1 7519   4.601   2.692   3.561
 2526TIP3    H2 7520   4.564   2.833   3.518
 2527TIP3   OH2 7521   5.711   6.963   1.903
 2527TIP3    H1 7522   5.624   6.931   1.927
 2527TIP3    H2 7523   5.768   6.886   1.909
 2528TIP3   OH2 7524   8.390   6.728   1.236
 2528TIP3    H1 7525   8.298   6.712   1.213
 2528TIP3    H2 7526   8.409   6.665   1.304
 2529TIP3   OH2 7527   5.034   6.778   3.512
 2529TIP3    H1 7528   4.991   6.693   3.520
 2529TIP3    H2 7529   5.056   6.803   3.601
 2530TIP3   OH2 7530   1.864   3.741   2.534
 2530TIP3    H1 7531   1.796   3.678   2.562
 2530TIP3    H2 7532   1.946   3.693   2.543
 2531TIP3   OH2 7533   3.122   6.228   4.866
 2531TIP3    H1 7534   3.087   6.205   4.780
 2531TIP3    H2 7535   3.096   6.156   4.923
 2532TIP3   OH2 7536   1.157   6.821   5.646
 2532TIP3    H1 7537   1.226   6.862   5.594
 2532TIP3    H2 7538   1.136   6.885   5.713
 2533TIP3   OH2 7539   1.720   3.006   3.930
 2533TIP3    H1 7540   1.635   2.963   3.939
 2533TIP3    H2 7541   1.746   3.028   4.020
 2534TIP3   OH2 7542   4.432   6.076   3.155
 2534TIP3    H1 7543   4.523   6.078   3.123
 2534TIP3    H2 7544   4.436   6.020   3.233
 2535TIP3   OH2 7545   0.622   6.130   4.845
 2535TIP3    H1 7546   0.706   6.112   4.802
 2535TIP3    H2 7547   0.556   6.109   4.778
 2536TIP3   OH2 7548   4.198   7.276   1.687
 2536TIP3    H1 7549   4.203   7.371   1.695
 2536TIP3    H2 7550   4.289   7.247   1.694
 2537TIP3   OH2 7551   4.000   6.275   6.758
 2537TIP3    H1 7552   4.086   6.315   6.774
 2537TIP3    H2 7553   3.980   6.229   6.840
 2538TIP3   OH2 7554   5.141   4.546   6.646
 2538TIP3    H1 7555   5.196   4.521   6.572
 2538TIP3    H2 7556   5.197   4.534   6.723
 2539TIP3   OH2 7557   6.402   0.095   5.031
 2539TIP3    H1 7558   6.393   0.150   5.109
 2539TIP3    H2 7559   6.464   0.142   4.975
 2540TIP3   OH2 7560   0.896   2.223   2.082
 2540TIP3    H1 7561   0.896   2.303   2.029
 2540TIP3    H2 7562   0.895   2.253   2.173
 2541TIP3   OH2 7563   3.798   4.803   0.630
 2541TIP3    H1 7564   3.736   4.835   0.696
 2541TIP3    H2 7565   3.813   4.878   0.573
 2542TIP3   OH2 7566   0.880   0.830   4.517
 2542TIP3    H1 7567   0.936   0.774   4.462
 2542TIP3    H2 7568   0.838   0.889   4.455
 2543TIP3   OH2 7569   0.101   1.825   5.177
 2543TIP3    H1 7570   0.025   1.848   5.123
 2543TIP3    H2 7571   0.177   1.848   5.123
 2544TIP3   OH2 7572   7.097   7.284   6.430
 2544TIP3    H1 7573   7.144   7.329   6.360
 2544TIP3    H2 7574   7.050   7.353   6.476
 2545TIP3   OH2 7575   1.516   1.827   3.705
 2545TIP3    H1 7576   1.429   1.818   3.667
 2545TIP3    H2 7577   1.518   1.763   3.776
 2546TIP3   OH2 7578   5.015   2.477   1.727
 2546TIP3    H1 7579   5.049   2.404   1.677
 2546TIP3    H2 7580   4.934   2.444   1.766
 2547TIP3   OH2 7581   1.702   7.145   4.688
 2547TIP3    H1 7582   1.676   7.069   4.636
 2547TIP3    H2 7583   1.755   7.198   4.629
 2548TIP3   OH2 7584   3.063   0.777   5.233
 2548TIP3    H1 7585   3.108   0.857   5.208
 2548TIP3    H2 7586   3.133   0.713   5.244
 2549TIP3   OH2 7587   7.572   2.149   0.862
 2549TIP3    H1 7588   7.481   2.122   0.846
 2549TIP3    H2 7589   7.608   2.166   0.776
 2550TIP3   OH2 7590   4.198   1.729   2.630
 2550TIP3    H1 7591   4.283   1.731   2.587
 2550TIP3    H2 7592   4.147   1.666   2.578
 2551TIP3   OH2 7593   2.958   5.498   5.569
 2551TIP3    H1 7594   2.884   5.438   5.567
 2551TIP3    H2 7595   3.033   5.442   5.590
 2552TIP3   OH2 7596   0.854   5.609   1.491
 2552TIP3    H1 7597   0.822   5.525   1.523
 2552TIP3    H2 7598   0.829   5.671   1.559
 2553TIP3   OH2 7599   7.469   0.089   0.770
 2553TIP3    H1 7600   7.399   0.090   0.835
 2553TIP3    H2 7601   7.424   0.083   0.686
 2554TIP3   OH2 7602   6.892   4.181   3.494
 2554TIP3    H1 7603   6.951   4.232   3.438
 2554TIP3    H2 7604   6.826   4.146   3.435
 2555TIP3   OH2 7605   1.435   6.217   1.181
 2555TIP3    H1 7606   1.355   6.185   1.139
 2555TIP3    H2 7607   1.411   6.305   1.212
 2556TIP3   OH2 7608   1.075   4.640   6.798
 2556TIP3    H1 7609   1.009   4.706   6.776
 2556TIP3    H2 7610   1.038   4.594   6.873
 2557TIP3   OH2 7611   1.441   4.163   6.624
 2557TIP3    H1 7612   1.347   4.158   6.608
 2557TIP3    H2 7613   1.455   4.109   6.702
 2558TIP3   OH2 7614   3.031   2.315   3.036
 2558TIP3    H1 7615   3.014   2.298   2.943
 2558TIP3    H2 7616   3.039   2.227   3.075
 2559TIP3   OH2 7617   0.226   4.119   0.243
 2559TIP3    H1 7618   0.158   4.117   0.175
 2559TIP3    H2 7619   0.302   4.159   0.201
 2560TIP3   OH2 7620   0.269   7.493   0.144
 2560TIP3    H1 7621   0.284   7.458   0.232
 2560TIP3    H2 7622   0.353   7.482   0.099
 2561TIP3   OH2 7623   5.928   1.146   6.130
 2561TIP3    H1 7624   5.851   1.141   6.073
 2561TIP3    H2 7625   6.002   1.139   6.070
 2562TIP3   OH2 7626   2.555   2.054   2.067
 2562TIP3    H1 7627   2.491   2.013   2.008
 2562TIP3    H2 7628   2.510   2.130   2.102
 2563TIP3   OH2 7629   3.836   2.594   3.013
 2563TIP3    H1 7630   3.768   2.570   2.951
 2563TIP3    H2 7631   3.820   2.687   3.031
 2564TIP3   OH2 7632   6.471   7.212   2.062
 2564TIP3    H1 7633   6.400   7.260   2.018
 2564TIP3    H2 7634   6.530   7.185   1.991
 2565TIP3   OH2 7635   2.555   2.278   5.368
 2565TIP3    H1 7636   2.467   2.263   5.332
 2565TIP3    H2 7637   2.541   2.344   5.436
 2566TIP3   OH2 7638   6.033   3.654   5.266
 2566TIP3    H1 7639   6.008   3.728   5.212
 2566TIP3    H2 7640   5.970   3.585   5.243
 2567TIP3   OH2 7641   4.812   3.979   3.959
 2567TIP3    H1 7642   4.751   3.976   3.886
 2567TIP3    H2 7643   4.777   4.047   4.017
 2568TIP3   OH2 7644   2.538   3.560   1.296
 2568TIP3    H1 7645   2.445   3.574   1.277
 2568TIP3    H2 7646   2.541   3.545   1.391
 2569TIP3   OH2 7647   4.580   4.018   3.772
 2569TIP3    H1 7648   4.642   4.029   3.700
 2569TIP3    H2 7649   4.520   3.949   3.741
 2570TIP3   OH2 7650   3.775   0.495   1.207
 2570TIP3    H1 7651   3.750   0.560   1.273
 2570TIP3    H2 7652   3.723   0.518   1.130
 2571TIP3   OH2 7653   5.230   3.889   5.659
 2571TIP3    H1 7654   5.201   3.979   5.645
 2571TIP3    H2 7655   5.316   3.898   5.699
 2572TIP3   OH2 7656   7.521   5.089   2.607
 2572TIP3    H1 7657   7.428   5.095   2.629
 2572TIP3    H2 7658   7.538   5.168   2.556
 2573TIP3   OH2 7659   0.714   2.758   2.466
 2573TIP3    H1 7660   0.641   2.706   2.498
 2573TIP3    H2 7661   0.738   2.717   2.383
 2574TIP3   OH2 7662   0.844   5.811   1.718
 2574TIP3    H1 7663   0.841   5.895   1.672
 2574TIP3    H2 7664   0.937   5.786   1.717
 2575TIP3   OH2 7665   5.802   2.744   2.254
 2575TIP3    H1 7666   5.856   2.671   2.285
 2575TIP3    H2 7667   5.807   2.739   2.159
 2576TIP3   OH2 7668   4.775   4.071   4.868
 2576TIP3    H1 7669   4.729   3.990   4.843
 2576TIP3    H2 7670   4.851   4.074   4.811
 2577TIP3   OH2 7671   8.034   0.706   1.999
 2577TIP3    H1 7672   8.029   0.640   2.069
 2577TIP3    H2 7673   7.944   0.739   1.993
 2578TIP3   OH2 7674   7.898   2.874   2.141
 2578TIP3    H1 7675   7.913   2.953   2.089
 2578TIP3    H2 7676   7.951   2.806   2.098
 2579TIP3   OH2 7677   7.554   7.807   1.626
 2579TIP3    H1 7678   7.566   7.850   1.542
 2579TIP3    H2 7679   7.625   7.842   1.681
 2580TIP3   OH2 7680   3.018   0.610   5.959
 2580TIP3    H1 7681   3.003   0.538   5.897
 2580TIP3    H2 7682   2.947   0.602   6.022
 2581TIP3   OH2 7683   5.304   3.346   0.521
 2581TIP3    H1 7684   5.216   3.313   0.506
 2581TIP3    H2 7685   5.295   3.411   0.590
 2582TIP3   OH2 7686   5.593   5.592   2.203
 2582TIP3    H1 7687   5.662   5.587   2.270
 2582TIP3    H2 7688   5.570   5.685   2.199
 2583TIP3   OH2 7689   1.459   4.089   6.194
 2583TIP3    H1 7690   1.533   4.054   6.145
 2583TIP3    H2 7691   1.498   4.130   6.271
 2584TIP3   OH2 7692   4.113   0.792   2.759
 2584TIP3    H1 7693   4.171   0.867   2.743
 2584TIP3    H2 7694   4.158   0.741   2.826
 2585TIP3   OH2 7695   3.258   4.147   0.372
 2585TIP3    H1 7696   3.165   4.158   0.392
 2585TIP3    H2 7697   3.298   4.121   0.455
 2586TIP3   OH2 7698   8.231   5.909   6.229
 2586TIP3    H1 7699   8.179   5.979   6.191
 2586TIP3    H2 7700   8.180   5.829   6.213
 2587TIP3   OH2 7701   4.285   2.230   3.449
 2587TIP3    H1 7702   4.297   2.199   3.359
 2587TIP3    H2 7703   4.363   2.281   3.468
 2588TIP3   OH2 7704   1.996   4.826   1.594
 2588TIP3    H1 7705   1.909   4.848   1.629
 2588TIP3    H2 7706   2.004   4.732   1.609
 2589TIP3   OH2 7707   3.037   2.054   5.158
 2589TIP3    H1 7708   2.950   2.034   5.191
 2589TIP3    H2 7709   3.096   2.004   5.214
 2590TIP3   OH2 7710   5.210   5.045   3.790
 2590TIP3    H1 7711   5.215   5.105   3.715
 2590TIP3    H2 7712   5.301   5.026   3.811
 2591TIP3   OH2 7713   4.090   3.702   4.902
 2591TIP3    H1 7714   4.034   3.688   4.826
 2591TIP3    H2 7715   4.131   3.617   4.917
 2592TIP3   OH2 7716   1.621   3.850   0.565
 2592TIP3    H1 7717   1.575   3.902   0.632
 2592TIP3    H2 7718   1.678   3.913   0.521
 2593TIP3   OH2 7719   6.886   3.806   2.910
 2593TIP3    H1 7720   6.908   3.713   2.914
 2593TIP3    H2 7721   6.960   3.847   2.865
 2594TIP3   OH2 7722   4.930   0.430   3.108
 2594TIP3    H1 7723   4.887   0.513   3.128
 2594TIP3    H2 7724   5.015   0.456   3.072
 2595TIP3   OH2 7725   6.341   5.021   4.113
 2595TIP3    H1 7726   6.326   4.943   4.060
 2595TIP3    H2 7727   6.374   4.988   4.196
 2596TIP3   OH2 7728   4.862   3.464   6.584
 2596TIP3    H1 7729   4.845   3.426   6.670
 2596TIP3    H2 7730   4.790   3.526   6.571
 2597TIP3   OH2 7731   1.555   5.670   4.863
 2597TIP3    H1 7732   1.629   5.728   4.843
 2597TIP3    H2 7733   1.482   5.730   4.879
 2598TIP3   OH2 7734   2.099   1.404   3.649
 2598TIP3    H1 7735   2.087   1.497   3.632
 2598TIP3    H2 7736   2.193   1.393   3.659
 2599TIP3   OH2 7737   3.179   3.410   3.775
 2599TIP3    H1 7738   3.274   3.415   3.760
 2599TIP3    H2 7739   3.143   3.386   3.690
 2600TIP3   OH2 7740   6.215   6.559   5.544
 2600TIP3    H1 7741   6.122   6.540   5.540
 2600TIP3    H2 7742   6.246   6.547   5.455
 2601TIP3   OH2 7743   6.931   5.332   4.939
 2601TIP3    H1 7744   6.941   5.360   4.849
 2601TIP3    H2 7745   6.849   5.283   4.941
 2602TIP3   OH2 7746   6.136   1.901   1.357
 2602TIP3    H1 7747   6.047   1.914   1.391
 2602TIP3    H2 7748   6.137   1.948   1.274
 2603TIP3   OH2 7749   3.615   3.348   2.289
 2603TIP3    H1 7750   3.521   3.365   2.301
 2603TIP3    H2 7751   3.631   3.270   2.343
 2604TIP3   OH2 7752   7.979   6.288   5.565
 2604TIP3    H1 7753   8.026   6.351   5.510
 2604TIP3    H2 7754   7.901   6.336   5.595
 2605TIP3   OH2 7755   6.369   5.834   6.721
 2605TIP3    H1 7756   6.450   5.786   6.705
 2605TIP3    H2 7757   6.353   5.882   6.639
 2606TIP3   OH2 7758   0.438   7.101   2.614
 2606TIP3    H1 7759   0.407   7.070   2.699
 2606TIP3    H2 7760   0.532   7.083   2.614
 2607TIP3   OH2 7761   7.913   6.841   4.867
 2607TIP3    H1 7762   7.974   6.906   4.832
 2607TIP3    H2 7763   7.966   6.790   4.929
 2608TIP3   OH2 7764   7.665   6.190   0.329
 2608TIP3    H1 7765   7.655   6.261   0.266
 2608TIP3    H2 7766   7.623   6.223   0.409
 2609TIP3   OH2 7767   0.080   7.792   6.540
 2609TIP3    H1 7768   0.070   7.854   6.612
 2609TIP3    H2 7769   0.010   7.728   6.554
 2610TIP3   OH2 7770   3.567   7.815   6.347
 2610TIP3    H1 7771   3.656   7.810   6.312
 2610TIP3    H2 7772   3.534   7.725   6.342
 2611TIP3   OH2 7773   1.051   5.208   4.531
 2611TIP3    H1 7774   1.022   5.122   4.561
 2611TIP3    H2 7775   0.992   5.230   4.459
 2612TIP3   OH2 7776   8.215   2.942   1.989
 2612TIP3    H1 7777   8.295   2.928   1.938
 2612TIP3    H2 7778   8.241   2.926   2.080
 2613TIP3   OH2 7779   3.652   2.186   6.494
 2613TIP3    H1 7780   3.571   2.216   6.535
 2613TIP3    H2 7781   3.720   2.209   6.557
 2614TIP3   OH2 7782   6.044   1.794   1.633
 2614TIP3    H1 7783   6.010   1.874   1.594
 2614TIP3    H2 7784   6.015   1.724   1.574
 2615TIP3   OH2 7785   5.774   5.140   5.160
 2615TIP3    H1 7786   5.866   5.112   5.166
 2615TIP3    H2 7787   5.755   5.140   5.066
 2616TIP3   OH2 7788   0.599   1.956   5.469
 2616TIP3    H1 7789   0.544   2.009   5.526
 2616TIP3    H2 7790   0.655   2.020   5.423
 2617TIP3   OH2 7791   4.055   5.290   6.724
 2617TIP3    H1 7792   3.993   5.358   6.751
 2617TIP3    H2 7793   4.133   5.306   6.776
 2618TIP3   OH2 7794   4.755   4.688   2.162
 2618TIP3    H1 7795   4.834   4.670   2.111
 2618TIP3    H2 7796   4.738   4.781   2.148
 2619TIP3   OH2 7797   4.439   7.426   4.851
 2619TIP3    H1 7798   4.447   7.508   4.801
 2619TIP3    H2 7799   4.527   7.412   4.887
 2620TIP3   OH2 7800   5.543   5.323   6.113
 2620TIP3    H1 7801   5.572   5.407   6.149
 2620TIP3    H2 7802   5.530   5.341   6.020
 2621TIP3   OH2 7803   7.442   7.673   5.672
 2621TIP3    H1 7804   7.536   7.664   5.692
 2621TIP3    H2 7805   7.398   7.638   5.750
 2622TIP3   OH2 7806   3.717   6.994   5.192
 2622TIP3    H1 7807   3.710   6.907   5.230
 2622TIP3    H2 7808   3.637   7.004   5.139
 2623TIP3   OH2 7809   6.959   7.245   3.740
 2623TIP3    H1 7810   6.965   7.222   3.833
 2623TIP3    H2 7811   6.870   7.279   3.730
 2624TIP3   OH2 7812   1.602   5.116   5.616
 2624TIP3    H1 7813   1.538   5.132   5.546
 2624TIP3    H2 7814   1.622   5.203   5.650
 2625TIP3   OH2 7815   1.170   1.737   5.311
 2625TIP3    H1 7816   1.113   1.804   5.348
 2625TIP3    H2 7817   1.254   1.780   5.298
 2626TIP3   OH2 7818   1.534   6.640   3.833
 2626TIP3    H1 7819   1.578   6.724   3.848
 2626TIP3    H2 7820   1.541   6.626   3.738
 2627TIP3   OH2 7821   3.727   0.980   3.389
 2627TIP3    H1 7822   3.690   0.968   3.301
 2627TIP3    H2 7823   3.761   1.070   3.388
 2628TIP3   OH2 7824   1.687   5.670   2.842
 2628TIP3    H1 7825   1.612   5.714   2.881
 2628TIP3    H2 7826   1.660   5.652   2.752
 2629TIP3   OH2 7827   3.980   0.807   3.745
 2629TIP3    H1 7828   4.013   0.857   3.819
 2629TIP3    H2 7829   4.058   0.787   3.693
 2630TIP3   OH2 7830   1.495   2.718   3.094
 2630TIP3    H1 7831   1.508   2.720   3.189
 2630TIP3    H2 7832   1.533   2.634   3.067
 2631TIP3   OH2 7833   5.791   2.124   0.236
 2631TIP3    H1 7834   5.786   2.218   0.253
 2631TIP3    H2 7835   5.707   2.089   0.269
 2632TIP3   OH2 7836   5.871   3.400   2.432
 2632TIP3    H1 7837   5.819   3.447   2.366
 2632TIP3    H2 7838   5.810   3.339   2.472
 2633TIP3   OH2 7839   0.941   0.437   0.627
 2633TIP3    H1 7840   0.963   0.373   0.560
 2633TIP3    H2 7841   1.009   0.504   0.621
 2634TIP3   OH2 7842   5.879   2.654   1.208
 2634TIP3    H1 7843   5.956   2.696   1.246
 2634TIP3    H2 7844   5.867   2.575   1.260
 2635TIP3   OH2 7845   3.061   2.305   5.502
 2635TIP3    H1 7846   3.048   2.245   5.575
 2635TIP3    H2 7847   3.142   2.351   5.524
 2636TIP3   OH2 7848   4.359   2.455   4.390
 2636TIP3    H1 7849   4.407   2.415   4.318
 2636TIP3    H2 7850   4.348   2.384   4.453
 2637TIP3   OH2 7851   2.531   7.389   6.758
 2637TIP3    H1 7852   2.519   7.473   6.713
 2637TIP3    H2 7853   2.620   7.393   6.793
 2638TIP3   OH2 7854   4.916   3.770   0.802
 2638TIP3    H1 7855   4.877   3.733   0.723
 2638TIP3    H2 7856   4.998   3.809   0.773
 2639TIP3   OH2 7857   2.653   6.695   1.667
 2639TIP3    H1 7858   2.711   6.627   1.703
 2639TIP3    H2 7859   2.591   6.714   1.738
 2640TIP3   OH2 7860   7.676   7.888   3.653
 2640TIP3    H1 7861   7.648   7.906   3.743
 2640TIP3    H2 7862   7.594   7.876   3.605
 2641TIP3   OH2 7863   7.018   1.278   3.988
 2641TIP3    H1 7864   7.073   1.241   4.057
 2641TIP3    H2 7865   6.932   1.288   4.030
 2642TIP3   OH2 7866   6.484   7.242   5.933
 2642TIP3    H1 7867   6.533   7.206   6.007
 2642TIP3    H2 7868   6.469   7.166   5.876
 2643TIP3   OH2 7869   0.440   1.907   3.456
 2643TIP3    H1 7870   0.442   1.977   3.522
 2643TIP3    H2 7871   0.359   1.859   3.474
 2644TIP3   OH2 7872   2.842   3.601   1.286
 2644TIP3    H1 7873   2.755   3.560   1.291
 2644TIP3    H2 7874   2.825   3.695   1.295
 2645TIP3   OH2 7875   5.919   6.428   4.772
 2645TIP3    H1 7876   5.886   6.395   4.688
 2645TIP3    H2 7877   5.945   6.518   4.753
 2646TIP3   OH2 7878   2.050   4.274   5.562
 2646TIP3    H1 7879   1.994   4.241   5.632
 2646TIP3    H2 7880   2.111   4.202   5.544
 2647TIP3   OH2 7881   4.985   3.614   6.183
 2647TIP3    H1 7882   4.907   3.558   6.189
 2647TIP3    H2 7883   5.053   3.555   6.152
 2648TIP3   OH2 7884   7.569   7.586   3.749
 2648TIP3    H1 7885   7.483   7.609   3.712
 2648TIP3    H2 7886   7.626   7.577   3.672
 2649TIP3   OH2 7887   4.722   4.663   0.657
 2649TIP3    H1 7888   4.794   4.678   0.719
 2649TIP3    H2 7889   4.761   4.609   0.588
 2650TIP3   OH2 7890   3.397   0.876   1.545
 2650TIP3    H1 7891   3.391   0.967   1.517
 2650TIP3    H2 7892   3.333   0.830   1.492
 2651TIP3   OH2 7893   5.144   1.132   2.326
 2651TIP3    H1 7894   5.059   1.089   2.327
 2651TIP3    H2 7895   5.142   1.192   2.400
 2652TIP3   OH2 7896   3.040   6.112   3.734
 2652TIP3    H1 7897   2.996   6.069   3.807
 2652TIP3    H2 7898   3.130   6.080   3.738
 2653TIP3   OH2 7899   0.120   5.813   3.119
 2653TIP3    H1 7900   0.069   5.877   3.168
 2653TIP3    H2 7901   0.111   5.840   3.028
 2654TIP3   OH2 7902   6.104   3.802   6.761
 2654TIP3    H1 7903   6.037   3.861   6.795
 2654TIP3    H2 7904   6.104   3.728   6.822
 2655TIP3   OH2 7905   7.891   3.017   0.416
 2655TIP3    H1 7906   7.825   3.049   0.476
 2655TIP3    H2 7907   7.970   3.066   0.439
 2656TIP3   OH2 7908   7.084   4.956   3.625
 2656TIP3    H1 7909   7.092   4.953   3.721
 2656TIP3    H2 7910   7.126   5.038   3.600
 2657TIP3   OH2 7911   0.241   7.155   1.829
 2657TIP3    H1 7912   0.229   7.222   1.896
 2657TIP3    H2 7913   0.221   7.072   1.873
 2658TIP3   OH2 7914   1.138   1.234   1.196
 2658TIP3    H1 7915   1.132   1.193   1.282
 2658TIP3    H2 7916   1.108   1.167   1.135
 2659TIP3   OH2 7917   1.457   6.862   1.256
 2659TIP3    H1 7918   1.474   6.778   1.214
 2659TIP3    H2 7919   1.385   6.900   1.205
 2660TIP3   OH2 7920   8.091   3.187   6.246
 2660TIP3    H1 7921   8.144   3.139   6.310
 2660TIP3    H2 7922   8.005   3.146   6.251
 2661TIP3   OH2 7923   6.119   4.976   4.350
 2661TIP3    H1 7924   6.062   5.033   4.298
 2661TIP3    H2 7925   6.081   4.889   4.339
 2662TIP3   OH2 7926   7.796   4.440   3.574
 2662TIP3    H1 7927   7.779   4.371   3.638
 2662TIP3    H2 7928   7.884   4.421   3.542
 2663TIP3   OH2 7929   3.412   5.413   4.668
 2663TIP3    H1 7930   3.398   5.359   4.590
 2663TIP3    H2 7931   3.343   5.479   4.665
 2664TIP3   OH2 7932   4.557   4.575   6.651
 2664TIP3    H1 7933   4.633   4.528   6.618
 2664TIP3    H2 7934   4.591   4.634   6.718
 2665TIP3   OH2 7935   5.480   5.956   4.884
 2665TIP3    H1 7936   5.497   5.867   4.915
 2665TIP3    H2 7937   5.566   5.988   4.855
 2666TIP3   OH2 7938   1.679   5.222   2.117
 2666TIP3    H1 7939   1.635   5.157   2.172
 2666TIP3    H2 7940   1.750   5.255   2.172
 2667TIP3   OH2 7941   1.439   6.029   4.112
 2667TIP3    H1 7942   1.386   6.103   4.084
 2667TIP3    H2 7943   1.520   6.036   4.061
 2668TIP3   OH2 7944   6.609   6.517   1.160
 2668TIP3    H1 7945   6.653   6.579   1.218
 2668TIP3    H2 7946   6.678   6.484   1.103
 2669TIP3   OH2 7947   1.279   5.748   5.404
 2669TIP3    H1 7948   1.300   5.702   5.323
 2669TIP3    H2 7949   1.362   5.783   5.435
 2670TIP3   OH2 7950   0.371   5.363   3.184
 2670TIP3    H1 7951   0.384   5.453   3.211
 2670TIP3    H2 7952   0.428   5.352   3.108
 2671TIP3   OH2 7953   5.229   5.350   2.785
 2671TIP3    H1 7954   5.286   5.293   2.733
 2671TIP3    H2 7955   5.273   5.435   2.783
 2672TIP3   OH2 7956   7.619   0.422   5.469
 2672TIP3    H1 7957   7.703   0.463   5.448
 2672TIP3    H2 7958   7.587   0.470   5.545
 2673TIP3   OH2 7959   3.743   1.079   5.727
 2673TIP3    H1 7960   3.764   1.010   5.664
 2673TIP3    H2 7961   3.700   1.033   5.799
 2674TIP3   OH2 7962   6.698   7.695   2.730
 2674TIP3    H1 7963   6.730   7.649   2.653
 2674TIP3    H2 7964   6.652   7.771   2.695
 2675TIP3   OH2 7965   3.773   7.019   1.707
 2675TIP3    H1 7966   3.794   7.033   1.800
 2675TIP3    H2 7967   3.834   7.077   1.661
 2676TIP3   OH2 7968   4.328   1.046   0.948
 2676TIP3    H1 7969   4.370   0.961   0.961
 2676TIP3    H2 7970   4.338   1.064   0.854
 2677TIP3   OH2 7971   6.545   7.364   0.720
 2677TIP3    H1 7972   6.492   7.382   0.797
 2677TIP3    H2 7973   6.632   7.399   0.741
 2678TIP3   OH2 7974   3.099   3.418   4.326
 2678TIP3    H1 7975   3.134   3.483   4.386
 2678TIP3    H2 7976   3.150   3.429   4.246
 2679TIP3   OH2 7977   5.399   0.151   3.915
 2679TIP3    H1 7978   5.344   0.187   3.845
 2679TIP3    H2 7979   5.353   0.071   3.942
 2680TIP3   OH2 7980   1.468   3.180   3.760
 2680TIP3    H1 7981   1.500   3.089   3.753
 2680TIP3    H2 7982   1.491   3.205   3.850
 2681TIP3   OH2 7983   3.598   4.247   3.199
 2681TIP3    H1 7984   3.512   4.210   3.177
 2681TIP3    H2 7985   3.580   4.308   3.270
 2682TIP3   OH2 7986   2.286   7.156   2.890
 2682TIP3    H1 7987   2.284   7.069   2.931
 2682TIP3    H2 7988   2.215   7.204   2.932
 2683TIP3   OH2 7989   4.818   4.110   3.625
 2683TIP3    H1 7990   4.892   4.091   3.682
 2683TIP3    H2 7991   4.836   4.198   3.592
 2684TIP3   OH2 7992   2.108   6.884   0.593
 2684TIP3    H1 7993   2.049   6.932   0.651
 2684TIP3    H2 7994   2.187   6.871   0.644
 2685TIP3   OH2 7995   6.627   5.622   1.104
 2685TIP3    H1 7996   6.693   5.607   1.172
 2685TIP3    H2 7997   6.544   5.600   1.146
 2686TIP3   OH2 7998   7.777   7.726   5.041
 2686TIP3    H1 7999   7.736   7.805   5.005
 2686TIP3    H2 8000   7.812   7.681   4.964
 2687TIP3   OH2 8001   7.283   6.887   2.753
 2687TIP3    H1 8002   7.299   6.848   2.839
 2687TIP3    H2 8003   7.357   6.946   2.740
 2688TIP3   OH2 8004   6.081   5.675   0.175
 2688TIP3    H1 8005   6.101   5.766   0.156
 2688TIP3    H2 8006   6.022   5.678   0.251
 2689TIP3   OH2 8007   0.366   6.432   4.081
 2689TIP3    H1 8008   0.393   6.424   3.989
 2689TIP3    H2 8009   0.418   6.504   4.115
 2690TIP3   OH2 8010   4.646   4.726   5.934
 2690TIP3    H1 8011   4.687   4.812   5.924
 2690TIP3    H2 8012   4.552   4.744   5.934
 2691TIP3   OH2 8013   4.220   7.375   6.724
 2691TIP3    H1 8014   4.213   7.469   6.710
 2691TIP3    H2 8015   4.196   7.336   6.640
 2692TIP3   OH2 8016   7.530   3.715   0.599
 2692TIP3    H1 8017   7.575   3.751   0.523
 2692TIP3    H2 8018   7.585   3.739   0.673
 2693TIP3   OH2 8019   7.880   3.704   2.050
 2693TIP3    H1 8020   7.875   3.799   2.063
 2693TIP3    H2 8021   7.935   3.674   2.123
 2694TIP3   OH2 8022   7.845   6.687   2.620
 2694TIP3    H1 8023   7.808   6.774   2.636
 2694TIP3    H2 8024   7.939   6.702   2.613
 2695TIP3   OH2 8025   5.038   2.544   2.456
 2695TIP3    H1 8026   4.944   2.548   2.471
 2695TIP3    H2 8027   5.067   2.635   2.464
 2696TIP3   OH2 8028   0.180   7.664   6.177
 2696TIP3    H1 8029   0.174   7.601   6.106
 2696TIP3    H2 8030   0.217   7.615   6.250
 2697TIP3   OH2 8031   6.234   2.215   6.127
 2697TIP3    H1 8032   6.318   2.255   6.146
 2697TIP3    H2 8033   6.201   2.263   6.051
 2698TIP3   OH2 8034   3.842   3.315   1.258
 2698TIP3    H1 8035   3.902   3.244   1.281
 2698TIP3    H2 8036   3.847   3.322   1.163
 2699TIP3   OH2 8037   3.508   1.489   1.267
 2699TIP3    H1 8038   3.528   1.488   1.174
 2699TIP3    H2 8039   3.459   1.570   1.280
 2700TIP3   OH2 8040   0.251   1.871   4.119
 2700TIP3    H1 8041   0.167   1.875   4.073
 2700TIP3    H2 8042   0.284   1.961   4.116
 2701TIP3   OH2 8043   1.393   5.013   5.774
 2701TIP3    H1 8044   1.370   5.104   5.791
 2701TIP3    H2 8045   1.459   5.017   5.706
 2702TIP3   OH2 8046   2.153   6.732   3.900
 2702TIP3    H1 8047   2.235   6.780   3.885
 2702TIP3    H2 8048   2.118   6.769   3.981
 2703TIP3   OH2 8049   6.118   4.127   1.550
 2703TIP3    H1 8050   6.094   4.177   1.472
 2703TIP3    H2 8051   6.115   4.191   1.621
 2704TIP3   OH2 8052   7.044   2.038   4.171
 2704TIP3    H1 8053   6.973   2.061   4.111
 2704TIP3    H2 8054   7.084   1.961   4.133
 2705TIP3   OH2 8055   0.798   5.234   3.287
 2705TIP3    H1 8056   0.859   5.162   3.303
 2705TIP3    H2 8057   0.803   5.288   3.366
 2706TIP3   OH2 8058   5.894   4.692   0.788
 2706TIP3    H1 8059   5.923   4.612   0.744
 2706TIP3    H2 8060   5.816   4.719   0.740
 2707TIP3   OH2 8061   7.898   5.625   4.854
 2707TIP3    H1 8062   7.867   5.534   4.848
 2707TIP3    H2 8063   7.961   5.634   4.783
 2708TIP3   OH2 8064   5.053   1.580   2.730
 2708TIP3    H1 8065   5.045   1.635   2.807
 2708TIP3    H2 8066   5.013   1.631   2.660
 2709TIP3   OH2 8067   6.227   1.853   2.676
 2709TIP3    H1 8068   6.296   1.854   2.610
 2709TIP3    H2 8069   6.169   1.782   2.650
 2710TIP3   OH2 8070   0.716   2.571   2.254
 2710TIP3    H1 8071   0.635   2.533   2.220
 2710TIP3    H2 8072   0.774   2.574   2.179
 2711TIP3   OH2 8073   6.415   6.597   2.803
 2711TIP3    H1 8074   6.447   6.687   2.800
 2711TIP3    H2 8075   6.448   6.562   2.886
 2712TIP3   OH2 8076   4.493   2.510   1.949
 2712TIP3    H1 8077   4.499   2.486   1.856
 2712TIP3    H2 8078   4.480   2.605   1.948
 2713TIP3   OH2 8079   2.656   0.419   3.460
 2713TIP3    H1 8080   2.665   0.324   3.464
 2713TIP3    H2 8081   2.593   0.435   3.390
 2714TIP3   OH2 8082   2.116   1.068   2.868
 2714TIP3    H1 8083   2.169   1.004   2.917
 2714TIP3    H2 8084   2.137   1.051   2.776
 2715TIP3   OH2 8085   1.659   3.399   4.808
 2715TIP3    H1 8086   1.731   3.434   4.860
 2715TIP3    H2 8087   1.696   3.320   4.768
 2716TIP3   OH2 8088   7.279   2.105   3.379
 2716TIP3    H1 8089   7.327   2.119   3.461
 2716TIP3    H2 8090   7.316   2.169   3.319
 2717TIP3   OH2 8091   2.014   1.797   3.055
 2717TIP3    H1 8092   2.103   1.765   3.046
 2717TIP3    H2 8093   2.007   1.822   3.148
 2718TIP3   OH2 8094   1.601   4.692   2.696
 2718TIP3    H1 8095   1.579   4.600   2.716
 2718TIP3    H2 8096   1.583   4.738   2.778
 2719TIP3   OH2 8097   6.609   3.200   6.329
 2719TIP3    H1 8098   6.548   3.253   6.277
 2719TIP3    H2 8099   6.560   3.121   6.351
 2720TIP3   OH2 8100   5.265   1.834   1.693
 2720TIP3    H1 8101   5.251   1.879   1.609
 2720TIP3    H2 8102   5.183   1.846   1.741
 2721TIP3   OH2 8103   3.614   6.213   2.112
 2721TIP3    H1 8104   3.701   6.238   2.081
 2721TIP3    H2 8105   3.577   6.162   2.041
 2722TIP3   OH2 8106   6.945   4.819   5.614
 2722TIP3    H1 8107   6.983   4.906   5.605
 2722TIP3    H2 8108   7.010   4.761   5.574
 2723TIP3   OH2 8109   0.577   1.086   0.496
 2723TIP3    H1 8110   0.640   1.143   0.540
 2723TIP3    H2 8111   0.564   1.013   0.557
 2724TIP3   OH2 8112   3.736   7.117   6.166
 2724TIP3    H1 8113   3.806   7.057   6.193
 2724TIP3    H2 8114   3.777   7.203   6.166
 2725TIP3   OH2 8115   3.213   0.723   2.604
 2725TIP3    H1 8116   3.129   0.713   2.650
 2725TIP3    H2 8117   3.190   0.766   2.521
 2726TIP3   OH2 8118   4.495   3.523   5.292
 2726TIP3    H1 8119   4.432   3.521   5.364
 2726TIP3    H2 8120   4.547   3.602   5.308
 2727TIP3   OH2 8121   3.133   5.817   6.766
 2727TIP3    H1 8122   3.190   5.894   6.765
 2727TIP3    H2 8123   3.048   5.849   6.735
 2728TIP3   OH2 8124   4.091   3.012   4.232
 2728TIP3    H1 8125   4.152   3.018   4.305
 2728TIP3    H2 8126   4.045   2.929   4.246
 2729TIP3   OH2 8127   6.765   4.288   1.677
 2729TIP3    H1 8128   6.739   4.238   1.600
 2729TIP3    H2 8129   6.693   4.351   1.689
 2730TIP3   OH2 8130   4.526   6.860   5.305
 2730TIP3    H1 8131   4.454   6.806   5.272
 2730TIP3    H2 8132   4.512   6.864   5.400
 2731TIP3   OH2 8133   4.952   6.630   5.630
 2731TIP3    H1 8134   4.988   6.710   5.667
 2731TIP3    H2 8135   4.874   6.612   5.683
 2732TIP3   OH2 8136   1.411   7.397   4.042
 2732TIP3    H1 8137   1.456   7.422   3.962
 2732TIP3    H2 8138   1.462   7.323   4.076
 2733TIP3   OH2 8139   1.927   4.983   4.279
 2733TIP3    H1 8140   1.847   5.014   4.321
 2733TIP3    H2 8141   1.985   5.059   4.281
 2734TIP3   OH2 8142   7.433   4.856   0.297
 2734TIP3    H1 8143   7.458   4.943   0.328
 2734TIP3    H2 8144   7.464   4.853   0.206
 2735TIP3   OH2 8145   6.574   4.314   2.967
 2735TIP3    H1 8146   6.592   4.275   3.052
 2735TIP3    H2 8147   6.625   4.395   2.967
 2736TIP3   OH2 8148   3.870   5.857   2.945
 2736TIP3    H1 8149   3.896   5.925   3.007
 2736TIP3    H2 8150   3.793   5.816   2.986
 2737TIP3   OH2 8151   7.644   1.008   6.572
 2737TIP3    H1 8152   7.584   1.069   6.616
 2737TIP3    H2 8153   7.684   0.959   6.643
 2738TIP3   OH2 8154   3.545   2.710   5.123
 2738TIP3    H1 8155   3.605   2.645   5.085
 2738TIP3    H2 8156   3.602   2.776   5.161
 2739TIP3   OH2 8157   2.917   4.928   2.194
 2739TIP3    H1 8158   2.860   5.003   2.208
 2739TIP3    H2 8159   2.936   4.895   2.282
 2740TIP3   OH2 8160   8.085   0.252   3.146
 2740TIP3    H1 8161   8.069   0.289   3.059
 2740TIP3    H2 8162   8.056   0.319   3.207
 2741TIP3   OH2 8163   6.479   5.020   5.366
 2741TIP3    H1 8164   6.555   5.052   5.415
 2741TIP3    H2 8165   6.501   5.038   5.274
 2742TIP3   OH2 8166   0.328   7.858   5.092
 2742TIP3    H1 8167   0.390   7.925   5.121
 2742TIP3    H2 8168   0.377   7.776   5.096
 2743TIP3   OH2 8169   0.245   0.982   0.595
 2743TIP3    H1 8170   0.304   0.917   0.558
 2743TIP3    H2 8171   0.219   1.038   0.521
 2744TIP3   OH2 8172   6.607   3.952   2.235
 2744TIP3    H1 8173   6.573   3.935   2.147
 2744TIP3    H2 8174   6.642   4.041   2.230
 2745TIP3   OH2 8175   1.108   5.382   6.075
 2745TIP3    H1 8176   1.194   5.374   6.035
 2745TIP3    H2 8177   1.127   5.404   6.166
 2746TIP3   OH2 8178   3.774   5.050   0.538
 2746TIP3    H1 8179   3.762   5.073   0.446
 2746TIP3    H2 8180   3.685   5.051   0.575
 2747TIP3   OH2 8181   7.708   1.744   5.297
 2747TIP3    H1 8182   7.624   1.705   5.271
 2747TIP3    H2 8183   7.774   1.684   5.261
 2748TIP3   OH2 8184   4.812   1.368   5.931
 2748TIP3    H1 8185   4.882   1.434   5.926
 2748TIP3    H2 8186   4.834   1.305   5.862
 2749TIP3   OH2 8187   3.489   1.560   2.591
 2749TIP3    H1 8188   3.399   1.575   2.619
 2749TIP3    H2 8189   3.505   1.628   2.525
 2750TIP3   OH2 8190   2.919   1.307   3.431
 2750TIP3    H1 8191   2.872   1.385   3.403
 2750TIP3    H2 8192   3.006   1.339   3.458
 2751TIP3   OH2 8193   0.740   7.663   2.210
 2751TIP3    H1 8194   0.805   7.713   2.259
 2751TIP3    H2 8195   0.665   7.656   2.269
 2752TIP3   OH2 8196   7.738   6.117   2.277
 2752TIP3    H1 8197   7.749   6.045   2.340
 2752TIP3    H2 8198   7.739   6.074   2.192
 2753TIP3   OH2 8199   0.862   7.700   3.997
 2753TIP3    H1 8200   0.820   7.678   4.080
 2753TIP3    H2 8201   0.838   7.629   3.938
 2754TIP3   OH2 8202   1.635   2.514   4.196
 2754TIP3    H1 8203   1.634   2.462   4.277
 2754TIP3    H2 8204   1.642   2.605   4.226
 2755TIP3   OH2 8205   5.120   0.231   4.794
 2755TIP3    H1 8206   5.057   0.224   4.723
 2755TIP3    H2 8207   5.186   0.293   4.761
 2756TIP3   OH2 8208   7.525   3.058   2.991
 2756TIP3    H1 8209   7.542   3.004   2.914
 2756TIP3    H2 8210   7.461   3.008   3.042
 2757TIP3   OH2 8211   6.912   5.662   0.342
 2757TIP3    H1 8212   6.862   5.734   0.380
 2757TIP3    H2 8213   6.977   5.704   0.286
 2758TIP3   OH2 8214   0.296   0.970   4.994
 2758TIP3    H1 8215   0.242   0.902   5.032
 2758TIP3    H2 8216   0.379   0.964   5.042
 2759TIP3   OH2 8217   2.020   0.764   5.559
 2759TIP3    H1 8218   1.975   0.788   5.640
 2759TIP3    H2 8219   2.006   0.670   5.551
 2760TIP3   OH2 8220   1.185   0.843   1.915
 2760TIP3    H1 8221   1.259   0.830   1.975
 2760TIP3    H2 8222   1.162   0.935   1.926
 2761TIP3   OH2 8223   0.252   4.076   4.435
 2761TIP3    H1 8224   0.243   4.152   4.378
 2761TIP3    H2 8225   0.345   4.073   4.458
 2762TIP3   OH2 8226   7.734   3.774   1.599
 2762TIP3    H1 8227   7.787   3.854   1.599
 2762TIP3    H2 8228   7.799   3.704   1.587
 2763TIP3   OH2 8229   5.137   3.670   4.153
 2763TIP3    H1 8230   5.144   3.686   4.058
 2763TIP3    H2 8231   5.228   3.676   4.184
 2764TIP3   OH2 8232   1.509   6.186   2.825
 2764TIP3    H1 8233   1.420   6.158   2.800
 2764TIP3    H2 8234   1.532   6.130   2.899
 2765TIP3   OH2 8235   3.633   1.779   5.389
 2765TIP3    H1 8236   3.661   1.688   5.382
 2765TIP3    H2 8237   3.714   1.829   5.394
 2766TIP3   OH2 8238   7.816   5.488   1.035
 2766TIP3    H1 8239   7.804   5.563   0.976
 2766TIP3    H2 8240   7.840   5.528   1.119
 2767TIP3   OH2 8241   5.251   1.855   2.551
 2767TIP3    H1 8242   5.270   1.898   2.468
 2767TIP3    H2 8243   5.269   1.763   2.535
 2768TIP3   OH2 8244   0.455   5.979   0.788
 2768TIP3    H1 8245   0.366   6.012   0.802
 2768TIP3    H2 8246   0.509   6.057   0.785
 2769TIP3   OH2 8247   4.587   1.774   6.513
 2769TIP3    H1 8248   4.681   1.766   6.497
 2769TIP3    H2 8249   4.560   1.687   6.541
 2770TIP3   OH2 8250   4.351   7.487   3.330
 2770TIP3    H1 8251   4.446   7.472   3.327
 2770TIP3    H2 8252   4.313   7.410   3.287
 2771TIP3   OH2 8253   0.426   1.540   4.222
 2771TIP3    H1 8254   0.353   1.581   4.176
 2771TIP3    H2 8255   0.478   1.613   4.254
 2772TIP3   OH2 8256   1.169   4.611   0.427
 2772TIP3    H1 8257   1.128   4.558   0.496
 2772TIP3    H2 8258   1.123   4.694   0.430
 2773TIP3   OH2 8259   1.258   0.666   5.386
 2773TIP3    H1 8260   1.249   0.760   5.403
 2773TIP3    H2 8261   1.295   0.661   5.298
 2774TIP3   OH2 8262   1.630   2.036   2.307
 2774TIP3    H1 8263   1.554   2.053   2.364
 2774TIP3    H2 8264   1.696   2.099   2.336
 2775TIP3   OH2 8265   5.063   0.794   1.743
 2775TIP3    H1 8266   5.008   0.791   1.664
 2775TIP3    H2 8267   5.024   0.728   1.801
 2776TIP3   OH2 8268   5.249   6.641   0.881
 2776TIP3    H1 8269   5.245   6.596   0.797
 2776TIP3    H2 8270   5.161   6.676   0.894
 2777TIP3   OH2 8271   2.842   4.663   5.288
 2777TIP3    H1 8272   2.769   4.717   5.259
 2777TIP3    H2 8273   2.870   4.615   5.210
 2778TIP3   OH2 8274   6.825   7.768   0.938
 2778TIP3    H1 8275   6.892   7.761   1.005
 2778TIP3    H2 8276   6.868   7.812   0.865
 2779TIP3   OH2 8277   6.103   6.157   5.737
 2779TIP3    H1 8278   6.113   6.252   5.750
 2779TIP3    H2 8279   6.037   6.131   5.801
 2780TIP3   OH2 8280   5.525   7.424   1.090
 2780TIP3    H1 8281   5.531   7.333   1.117
 2780TIP3    H2 8282   5.499   7.420   0.998
 2781TIP3   OH2 8283   4.602   4.454   2.870
 2781TIP3    H1 8284   4.680   4.425   2.822
 2781TIP3    H2 8285   4.560   4.373   2.900
 2782TIP3   OH2 8286   0.633   1.860   3.122
 2782TIP3    H1 8287   0.550   1.812   3.116
 2782TIP3    H2 8288   0.698   1.793   3.142
 2783TIP3   OH2 8289   8.082   7.489   2.305
 2783TIP3    H1 8290   8.081   7.469   2.398
 2783TIP3    H2 8291   8.085   7.404   2.262
 2784TIP3   OH2 8292   2.124   0.705   6.230
 2784TIP3    H1 8293   2.114   0.614   6.201
 2784TIP3    H2 8294   2.038   0.744   6.217
 2785TIP3   OH2 8295   0.065   5.208   5.306
 2785TIP3    H1 8296   0.130   5.278   5.302
 2785TIP3    H2 8297   0.000   5.232   5.240
 2786TIP3   OH2 8298   2.576   0.407   1.220
 2786TIP3    H1 8299   2.528   0.364   1.149
 2786TIP3    H2 8300   2.508   0.451   1.271
 2787TIP3   OH2 8301   7.727   2.413   5.845
 2787TIP3    H1 8302   7.669   2.487   5.862
 2787TIP3    H2 8303   7.694   2.375   5.763
 2788TIP3   OH2 8304   2.301   1.762   1.580
 2788TIP3    H1 8305   2.234   1.768   1.513
 2788TIP3    H2 8306   2.352   1.684   1.556
 2789TIP3   OH2 8307   3.034   3.751   0.667
 2789TIP3    H1 8308   3.043   3.771   0.574
 2789TIP3    H2 8309   2.959   3.692   0.672
 2790TIP3   OH2 8310   3.566   5.547   5.865
 2790TIP3    H1 8311   3.516   5.469   5.840
 2790TIP3    H2 8312   3.500   5.608   5.899
 2791TIP3   OH2 8313   2.365   0.804   5.378
 2791TIP3    H1 8314   2.298   0.740   5.355
 2791TIP3    H2 8315   2.447   0.767   5.344
 2792TIP3   OH2 8316   6.169   2.251   3.629
 2792TIP3    H1 8317   6.141   2.336   3.597
 2792TIP3    H2 8318   6.089   2.198   3.632
 2793TIP3   OH2 8319   6.006   7.132   6.344
 2793TIP3    H1 8320   5.951   7.096   6.274
 2793TIP3    H2 8321   5.944   7.158   6.412
 2794TIP3   OH2 8322   7.560   3.627   3.281
 2794TIP3    H1 8323   7.625   3.557   3.282
 2794TIP3    H2 8324   7.543   3.642   3.188
 2795TIP3   OH2 8325   4.395   3.585   1.495
 2795TIP3    H1 8326   4.369   3.527   1.566
 2795TIP3    H2 8327   4.457   3.534   1.443
 2796TIP3   OH2 8328   4.973   7.284   3.651
 2796TIP3    H1 8329   5.016   7.208   3.611
 2796TIP3    H2 8330   4.952   7.341   3.577
 2797TIP3   OH2 8331   0.577   5.351   5.578
 2797TIP3    H1 8332   0.652   5.353   5.637
 2797TIP3    H2 8333   0.584   5.431   5.527
 2798TIP3   OH2 8334   7.853   2.469   0.848
 2798TIP3    H1 8335   7.791   2.434   0.911
 2798TIP3    H2 8336   7.890   2.546   0.890
 2799TIP3   OH2 8337   4.794   4.961   3.687
 2799TIP3    H1 8338   4.729   4.898   3.717
 2799TIP3    H2 8339   4.771   5.042   3.733
 2800TIP3   OH2 8340   6.019   1.688   2.617
 2800TIP3    H1 8341   5.946   1.657   2.563
 2800TIP3    H2 8342   6.060   1.607   2.650
 2801TIP3   OH2 8343   5.520   1.582   6.220
 2801TIP3    H1 8344   5.465   1.599   6.296
 2801TIP3    H2 8345   5.581   1.656   6.218
 2802TIP3   OH2 8346   5.444   3.640   1.630
 2802TIP3    H1 8347   5.462   3.552   1.664
 2802TIP3    H2 8348   5.352   3.655   1.650
 2803TIP3   OH2 8349   3.364   4.449   0.562
 2803TIP3    H1 8350   3.358   4.486   0.651
 2803TIP3    H2 8351   3.363   4.355   0.576
 2804TIP3   OH2 8352   1.354   5.381   2.346
 2804TIP3    H1 8353   1.353   5.421   2.258
 2804TIP3    H2 8354   1.322   5.450   2.404
 2805TIP3   OH2 8355   5.838   2.750   1.968
 2805TIP3    H1 8356   5.868   2.681   1.909
 2805TIP3    H2 8357   5.865   2.831   1.926
 2806TIP3   OH2 8358   7.196   3.549   2.487
 2806TIP3    H1 8359   7.215   3.641   2.468
 2806TIP3    H2 8360   7.233   3.501   2.413
 2807TIP3   OH2 8361   4.114   4.183   4.613
 2807TIP3    H1 8362   4.099   4.089   4.603
 2807TIP3    H2 8363   4.134   4.194   4.706
 2808TIP3   OH2 8364   6.870   4.474   4.474
 2808TIP3    H1 8365   6.930   4.440   4.408
 2808TIP3    H2 8366   6.840   4.558   4.438
 2809TIP3   OH2 8367   8.039   6.772   1.460
 2809TIP3    H1 8368   8.020   6.862   1.436
 2809TIP3    H2 8369   8.078   6.733   1.381
 2810TIP3   OH2 8370   1.954   4.196   4.001
 2810TIP3    H1 8371   1.903   4.122   3.969
 2810TIP3    H2 8372   2.021   4.210   3.934
 2811TIP3   OH2 8373   2.166   6.960   3.652
 2811TIP3    H1 8374   2.260   6.976   3.663
 2811TIP3    H2 8375   2.125   7.043   3.676
 2812TIP3   OH2 8376   6.940   1.628   2.041
 2812TIP3    H1 8377   6.980   1.570   2.106
 2812TIP3    H2 8378   7.007   1.637   1.973
 2813TIP3   OH2 8379   6.211   2.351   6.596
 2813TIP3    H1 8380   6.295   2.383   6.629
 2813TIP3    H2 8381   6.234   2.309   6.513
 2814TIP3   OH2 8382   5.102   7.668   3.531
 2814TIP3    H1 8383   5.160   7.603   3.571
 2814TIP3    H2 8384   5.160   7.723   3.479
 2815TIP3   OH2 8385   6.061   2.084   2.093
 2815TIP3    H1 8386   5.984   2.140   2.093
 2815TIP3    H2 8387   6.061   2.042   2.179
 2816TIP3   OH2 8388   2.960   1.820   0.181
 2816TIP3    H1 8389   2.946   1.902   0.229
 2816TIP3    H2 8390   3.041   1.834   0.132
 2817TIP3   OH2 8391   8.197   2.273   4.511
 2817TIP3    H1 8392   8.203   2.256   4.417
 2817TIP3    H2 8393   8.276   2.324   4.531
 2818TIP3   OH2 8394   2.635   1.996   6.660
 2818TIP3    H1 8395   2.558   1.938   6.662
 2818TIP3    H2 8396   2.649   2.015   6.568
 2819TIP3   OH2 8397   6.762   7.621   4.294
 2819TIP3    H1 8398   6.699   7.685   4.327
 2819TIP3    H2 8399   6.847   7.664   4.303
 2820TIP3   OH2 8400   4.927   2.355   4.086
 2820TIP3    H1 8401   4.951   2.265   4.105
 2820TIP3    H2 8402   4.867   2.349   4.011
 2821TIP3   OH2 8403   3.329   2.277   4.766
 2821TIP3    H1 8404   3.241   2.251   4.737
 2821TIP3    H2 8405   3.326   2.373   4.767
 2822TIP3   OH2 8406   2.434   1.375   0.110
 2822TIP3    H1 8407   2.372   1.379   0.183
 2822TIP3    H2 8408   2.393   1.428   0.042
 2823TIP3   OH2 8409   3.378   4.739   6.280
 2823TIP3    H1 8410   3.464   4.759   6.317
 2823TIP3    H2 8411   3.397   4.691   6.199
 2824TIP3   OH2 8412   1.605   4.637   2.295
 2824TIP3    H1 8413   1.673   4.581   2.331
 2824TIP3    H2 8414   1.624   4.643   2.201
 2825TIP3   OH2 8415   5.026   1.565   5.954
 2825TIP3    H1 8416   5.111   1.521   5.958
 2825TIP3    H2 8417   5.046   1.654   5.924
 2826TIP3   OH2 8418   0.131   2.956   5.603
 2826TIP3    H1 8419   0.117   3.051   5.599
 2826TIP3    H2 8420   0.049   2.921   5.637
 2827TIP3   OH2 8421   2.847   1.285   2.999
 2827TIP3    H1 8422   2.897   1.294   2.918
 2827TIP3    H2 8423   2.772   1.344   2.987
 2828TIP3   OH2 8424   4.221   2.941   3.681
 2828TIP3    H1 8425   4.209   2.923   3.775
 2828TIP3    H2 8426   4.310   2.974   3.674
 2829TIP3   OH2 8427   0.243   0.462   2.334
 2829TIP3    H1 8428   0.261   0.373   2.366
 2829TIP3    H2 8429   0.282   0.520   2.399
 2830TIP3   OH2 8430   6.812   5.645   4.786
 2830TIP3    H1 8431   6.889   5.688   4.748
 2830TIP3    H2 8432   6.842   5.615   4.872
 2831TIP3   OH2 8433   5.052   3.270   0.123
 2831TIP3    H1 8434   5.059   3.358   0.086
 2831TIP3    H2 8435   5.110   3.217   0.069
 2832TIP3   OH2 8436   2.141   7.534   0.875
 2832TIP3    H1 8437   2.054   7.496   0.886
 2832TIP3    H2 8438   2.182   7.481   0.806
 2833TIP3   OH2 8439   7.191   5.554   0.855
 2833TIP3    H1 8440   7.182   5.463   0.885
 2833TIP3    H2 8441   7.103   5.580   0.830
 2834TIP3   OH2 8442   1.503   3.549   1.499
 2834TIP3    H1 8443   1.470   3.544   1.588
 2834TIP3    H2 8444   1.440   3.499   1.447
 2835TIP3   OH2 8445   4.286   4.565   2.591
 2835TIP3    H1 8446   4.285   4.659   2.606
 2835TIP3    H2 8447   4.379   4.545   2.576
 2836TIP3   OH2 8448   7.254   4.778   0.467
 2836TIP3    H1 8449   7.294   4.791   0.381
 2836TIP3    H2 8450   7.230   4.867   0.496
 2837TIP3   OH2 8451   4.461   4.940   4.275
 2837TIP3    H1 8452   4.554   4.919   4.269
 2837TIP3    H2 8453   4.424   4.910   4.192
 2838TIP3   OH2 8454   4.989   4.241   5.501
 2838TIP3    H1 8455   5.017   4.332   5.510
 2838TIP3    H2 8456   5.028   4.197   5.576
 2839TIP3   OH2 8457   7.456   5.524   4.549
 2839TIP3    H1 8458   7.390   5.591   4.531
 2839TIP3    H2 8459   7.534   5.573   4.574
 2840TIP3   OH2 8460   1.546   5.355   4.568
 2840TIP3    H1 8461   1.472   5.323   4.518
 2840TIP3    H2 8462   1.508   5.381   4.653
 2841TIP3   OH2 8463   3.017   4.109   2.317
 2841TIP3    H1 8464   3.033   4.193   2.359
 2841TIP3    H2 8465   3.015   4.128   2.223
 2842TIP3   OH2 8466   1.720   1.161   1.891
 2842TIP3    H1 8467   1.709   1.243   1.843
 2842TIP3    H2 8468   1.632   1.126   1.901
 2843TIP3   OH2 8469   4.074   4.503   2.113
 2843TIP3    H1 8470   4.078   4.492   2.208
 2843TIP3    H2 8471   4.166   4.512   2.087
 2844TIP3   OH2 8472   4.200   2.126   2.279
 2844TIP3    H1 8473   4.169   2.082   2.358
 2844TIP3    H2 8474   4.120   2.143   2.229
 2845TIP3   OH2 8475   5.503   7.228   4.818
 2845TIP3    H1 8476   5.553   7.146   4.810
 2845TIP3    H2 8477   5.569   7.294   4.840
 2846TIP3   OH2 8478   4.244   6.047   3.400
 2846TIP3    H1 8479   4.339   6.036   3.405
 2846TIP3    H2 8480   4.211   5.959   3.379
 2847TIP3   OH2 8481   5.597   4.650   0.703
 2847TIP3    H1 8482   5.545   4.716   0.749
 2847TIP3    H2 8483   5.566   4.653   0.613
 2848TIP3   OH2 8484   1.701   3.550   0.588
 2848TIP3    H1 8485   1.666   3.638   0.579
 2848TIP3    H2 8486   1.792   3.558   0.559
 2849TIP3   OH2 8487   4.021   0.428   3.267
 2849TIP3    H1 8488   4.100   0.380   3.243
 2849TIP3    H2 8489   4.023   0.432   3.363
 2850TIP3   OH2 8490   7.973   6.260   2.242
 2850TIP3    H1 8491   7.897   6.237   2.295
 2850TIP3    H2 8492   8.020   6.177   2.228
 2851TIP3   OH2 8493   3.999   1.282   1.679
 2851TIP3    H1 8494   4.009   1.351   1.614
 2851TIP3    H2 8495   3.941   1.218   1.637
 2852TIP3   OH2 8496   8.011   3.752   5.500
 2852TIP3    H1 8497   8.011   3.742   5.596
 2852TIP3    H2 8498   7.928   3.796   5.481
 2853TIP3   OH2 8499   5.483   0.674   5.694
 2853TIP3    H1 8500   5.496   0.579   5.699
 2853TIP3    H2 8501   5.442   0.688   5.609
 2854TIP3   OH2 8502   2.908   1.722   3.002
 2854TIP3    H1 8503   2.839   1.712   3.067
 2854TIP3    H2 8504   2.890   1.805   2.959
 2855TIP3   OH2 8505   3.609   1.480   5.207
 2855TIP3    H1 8506   3.607   1.406   5.145
 2855TIP3    H2 8507   3.577   1.443   5.289
 2856TIP3   OH2 8508   8.327   1.670   5.836
 2856TIP3    H1 8509   8.244   1.711   5.810
 2856TIP3    H2 8510   8.300   1.597   5.891
 2857TIP3   OH2 8511   6.983   6.214   6.812
 2857TIP3    H1 8512   6.949   6.203   6.900
 2857TIP3    H2 8513   7.050   6.146   6.803
 2858TIP3   OH2 8514   6.815   2.521   1.921
 2858TIP3    H1 8515   6.737   2.484   1.963
 2858TIP3    H2 8516   6.836   2.598   1.974
 2859TIP3   OH2 8517   7.855   5.651   1.946
 2859TIP3    H1 8518   7.949   5.634   1.943
 2859TIP3    H2 8519   7.831   5.635   2.037
 2860TIP3   OH2 8520   1.985   1.155   2.345
 2860TIP3    H1 8521   1.927   1.219   2.386
 2860TIP3    H2 8522   1.928   1.102   2.290
 2861TIP3   OH2 8523   7.135   1.662   0.831
 2861TIP3    H1 8524   7.133   1.714   0.912
 2861TIP3    H2 8525   7.227   1.645   0.815
 2862TIP3   OH2 8526   5.220   2.970   4.720
 2862TIP3    H1 8527   5.198   2.877   4.722
 2862TIP3    H2 8528   5.195   2.999   4.633
 2863TIP3   OH2 8529   6.456   5.496   2.221
 2863TIP3    H1 8530   6.550   5.506   2.237
 2863TIP3    H2 8531   6.448   5.489   2.126
 2864TIP3   OH2 8532   2.806   6.536   2.397
 2864TIP3    H1 8533   2.802   6.449   2.358
 2864TIP3    H2 8534   2.765   6.593   2.332
 2865TIP3   OH2 8535   3.782   3.378   5.404
 2865TIP3    H1 8536   3.824   3.293   5.395
 2865TIP3    H2 8537   3.726   3.385   5.326
 2866TIP3   OH2 8538   0.200   2.245   2.199
 2866TIP3    H1 8539   0.217   2.294   2.279
 2866TIP3    H2 8540   0.143   2.173   2.227
 2867TIP3   OH2 8541   8.082   6.318   5.267
 2867TIP3    H1 8542   8.058   6.227   5.250
 2867TIP3    H2 8543   8.171   6.313   5.303
 2868TIP3   OH2 8544   2.219   1.211   2.494
 2868TIP3    H1 8545   2.158   1.145   2.460
 2868TIP3    H2 8546   2.170   1.293   2.489
 2869TIP3   OH2 8547   7.253   1.425   2.699
 2869TIP3    H1 8548   7.325   1.399   2.640
 2869TIP3    H2 8549   7.272   1.379   2.781
 2870TIP3   OH2 8550   0.834   5.197   3.989
 2870TIP3    H1 8551   0.888   5.243   3.926
 2870TIP3    H2 8552   0.836   5.105   3.961
 2871TIP3   OH2 8553   6.894   5.782   2.761
 2871TIP3    H1 8554   6.833   5.752   2.694
 2871TIP3    H2 8555   6.841   5.783   2.842
 2872TIP3   OH2 8556   1.933   4.185   2.086
 2872TIP3    H1 8557   1.855   4.184   2.031
 2872TIP3    H2 8558   1.920   4.259   2.145
 2873TIP3   OH2 8559   5.964   4.894   3.857
 2873TIP3    H1 8560   6.051   4.874   3.892
 2873TIP3    H2 8561   5.923   4.808   3.845
 2874TIP3   OH2 8562   4.939   3.705   4.355
 2874TIP3    H1 8563   5.010   3.714   4.292
 2874TIP3    H2 8564   4.915   3.795   4.377
 2875TIP3   OH2 8565   3.908   3.455   2.910
 2875TIP3    H1 8566   3.837   3.518   2.925
 2875TIP3    H2 8567   3.988   3.508   2.913
 2876TIP3   OH2 8568   2.097   0.838   3.507
 2876TIP3    H1 8569   2.048   0.813   3.585
 2876TIP3    H2 8570   2.051   0.794   3.435
 2877TIP3   OH2 8571   6.166   3.363   0.849
 2877TIP3    H1 8572   6.077   3.351   0.882
 2877TIP3    H2 8573   6.216   3.394   0.925
 2878TIP3   OH2 8574   7.377   1.756   1.056
 2878TIP3    H1 8575   7.282   1.745   1.058
 2878TIP3    H2 8576   7.401   1.736   0.965
 2879TIP3   OH2 8577   5.493   1.441   1.785
 2879TIP3    H1 8578   5.528   1.463   1.698
 2879TIP3    H2 8579   5.414   1.494   1.793
 2880TIP3   OH2 8580   6.090   0.762   5.880
 2880TIP3    H1 8581   6.079   0.696   5.812
 2880TIP3    H2 8582   6.046   0.840   5.846
 2881TIP3   OH2 8583   5.789   2.067   3.387
 2881TIP3    H1 8584   5.834   1.984   3.403
 2881TIP3    H2 8585   5.701   2.054   3.422
 2882TIP3   OH2 8586   4.547   0.879   4.618
 2882TIP3    H1 8587   4.491   0.952   4.591
 2882TIP3    H2 8588   4.486   0.808   4.640
 2883TIP3   OH2 8589   6.284   3.176   5.893
 2883TIP3    H1 8590   6.209   3.180   5.834
 2883TIP3    H2 8591   6.335   3.101   5.862
 2884TIP3   OH2 8592   4.875   5.305   3.561
 2884TIP3    H1 8593   4.959   5.283   3.523
 2884TIP3    H2 8594   4.868   5.249   3.639
 2885TIP3   OH2 8595   2.320   0.637   2.386
 2885TIP3    H1 8596   2.244   0.595   2.427
 2885TIP3    H2 8597   2.393   0.578   2.404
 2886TIP3   OH2 8598   4.592   4.743   6.324
 2886TIP3    H1 8599   4.684   4.721   6.343
 2886TIP3    H2 8600   4.597   4.801   6.248
 2887TIP3   OH2 8601   4.952   3.496   1.996
 2887TIP3    H1 8602   4.934   3.514   1.904
 2887TIP3    H2 8603   5.046   3.507   2.005
 2888TIP3   OH2 8604   6.460   1.387   5.411
 2888TIP3    H1 8605   6.466   1.294   5.431
 2888TIP3    H2 8606   6.496   1.431   5.488
 2889TIP3   OH2 8607   1.008   4.278   1.633
 2889TIP3    H1 8608   1.088   4.326   1.611
 2889TIP3    H2 8609   0.980   4.241   1.550
 2890TIP3   OH2 8610   0.876   4.630   1.957
 2890TIP3    H1 8611   0.812   4.701   1.947
 2890TIP3    H2 8612   0.906   4.638   2.048
 2891TIP3   OH2 8613   5.946   4.077   3.731
 2891TIP3    H1 8614   5.974   3.998   3.685
 2891TIP3    H2 8615   5.940   4.050   3.823
 2892TIP3   OH2 8616   0.059   5.462   4.081
 2892TIP3    H1 8617   0.106   5.540   4.109
 2892TIP3    H2 8618   0.025   5.484   3.994
 2893TIP3   OH2 8619   1.612   6.918   3.861
 2893TIP3    H1 8620   1.556   6.992   3.836
 2893TIP3    H2 8621   1.602   6.911   3.956
 2894TIP3   OH2 8622   6.159   0.397   2.940
 2894TIP3    H1 8623   6.137   0.369   3.029
 2894TIP3    H2 8624   6.200   0.321   2.900
 2895TIP3   OH2 8625   6.637   3.465   2.927
 2895TIP3    H1 8626   6.674   3.417   3.001
 2895TIP3    H2 8627   6.689   3.436   2.851
 2896TIP3   OH2 8628   7.378   6.649   2.678
 2896TIP3    H1 8629   7.309   6.629   2.616
 2896TIP3    H2 8630   7.349   6.728   2.723
 2897TIP3   OH2 8631   5.778   0.873   2.613
 2897TIP3    H1 8632   5.854   0.924   2.585
 2897TIP3    H2 8633   5.779   0.879   2.708
 2898TIP3   OH2 8634   8.259   4.156   2.626
 2898TIP3    H1 8635   8.188   4.116   2.575
 2898TIP3    H2 8636   8.214   4.221   2.681
 2899TIP3   OH2 8637   1.679   1.321   5.426
 2899TIP3    H1 8638   1.761   1.351   5.387
 2899TIP3    H2 8639   1.696   1.230   5.450
 2900TIP3   OH2 8640   8.270   7.904   1.722
 2900TIP3    H1 8641   8.314   7.858   1.793
 2900TIP3    H2 8642   8.329   7.976   1.700
 2901TIP3   OH2 8643   3.512   2.514   6.638
 2901TIP3    H1 8644   3.445   2.507   6.571
 2901TIP3    H2 8645   3.519   2.426   6.675
 2902TIP3   OH2 8646   7.949   6.493   0.037
 2902TIP3    H1 8647   7.996   6.410   0.035
 2902TIP3    H2 8648   7.889   6.489  -0.037
 2903TIP3   OH2 8649   1.970   6.662   1.339
 2903TIP3    H1 8650   1.912   6.599   1.380
 2903TIP3    H2 8651   2.019   6.611   1.274
 2904TIP3   OH2 8652   4.859   1.242   3.440
 2904TIP3    H1 8653   4.926   1.285   3.492
 2904TIP3    H2 8654   4.907   1.187   3.378
 2905TIP3   OH2 8655   1.433   3.812   6.502
 2905TIP3    H1 8656   1.514   3.828   6.550
 2905TIP3    H2 8657   1.456   3.741   6.441
 2906TIP3   OH2 8658   4.899   1.973   5.159
 2906TIP3    H1 8659   4.926   2.052   5.206
 2906TIP3    H2 8660   4.823   2.000   5.108
 2907TIP3   OH2 8661   6.659   6.800   2.296
 2907TIP3    H1 8662   6.568   6.815   2.322
 2907TIP3    H2 8663   6.653   6.730   2.231
 2908TIP3   OH2 8664   0.886   3.394   0.827
 2908TIP3    H1 8665   0.862   3.479   0.863
 2908TIP3    H2 8666   0.893   3.408   0.732
 2909TIP3   OH2 8667   4.595   7.851   6.315
 2909TIP3    H1 8668   4.562   7.918   6.376
 2909TIP3    H2 8669   4.656   7.898   6.259
 2910TIP3   OH2 8670   2.894   2.423   3.925
 2910TIP3    H1 8671   2.890   2.488   3.996
 2910TIP3    H2 8672   2.821   2.446   3.867
 2911TIP3   OH2 8673   3.973   3.833   0.625
 2911TIP3    H1 8674   4.015   3.917   0.611
 2911TIP3    H2 8675   3.883   3.845   0.595
 2912TIP3   OH2 8676   0.915   3.199   1.647
 2912TIP3    H1 8677   0.843   3.262   1.647
 2912TIP3    H2 8678   0.954   3.208   1.734
 2913TIP3   OH2 8679   5.218   2.126   5.419
 2913TIP3    H1 8680   5.288   2.072   5.457
 2913TIP3    H2 8681   5.254   2.215   5.421
 2914TIP3   OH2 8682   6.215   7.070   3.384
 2914TIP3    H1 8683   6.249   6.992   3.339
 2914TIP3    H2 8684   6.121   7.067   3.369
 2915TIP3   OH2 8685   0.886   7.071   6.618
 2915TIP3    H1 8686   0.808   7.075   6.563
 2915TIP3    H2 8687   0.911   6.979   6.617
 2916TIP3   OH2 8688   8.262   6.980   6.327
 2916TIP3    H1 8689   8.331   7.038   6.296
 2916TIP3    H2 8690   8.245   7.009   6.416
 2917TIP3   OH2 8691   8.099   3.577   4.486
 2917TIP3    H1 8692   8.163   3.516   4.521
 2917TIP3    H2 8693   8.144   3.621   4.414
 2918TIP3   OH2 8694   4.405   2.591   5.524
 2918TIP3    H1 8695   4.356   2.545   5.456
 2918TIP3    H2 8696   4.354   2.577   5.604
 2919TIP3   OH2 8697   6.708   3.633   2.012
 2919TIP3    H1 8698   6.753   3.567   2.065
 2919TIP3    H2 8699   6.684   3.588   1.932
 2920TIP3   OH2 8700   3.737   7.623   6.115
 2920TIP3    H1 8701   3.785   7.705   6.111
 2920TIP3    H2 8702   3.797   7.557   6.079
 2921TIP3   OH2 8703   3.340   7.421   2.765
 2921TIP3    H1 8704   3.298   7.415   2.851
 2921TIP3    H2 8705   3.286   7.482   2.716
 2922TIP3   OH2 8706   4.090   0.470   5.047
 2922TIP3    H1 8707   4.030   0.486   5.119
 2922TIP3    H2 8708   4.174   0.452   5.089
 2923TIP3   OH2 8709   0.738   2.124   3.077
 2923TIP3    H1 8710   0.664   2.065   3.092
 2923TIP3    H2 8711   0.698   2.210   3.064
 2924TIP3   OH2 8712   5.220   2.800   1.924
 2924TIP3    H1 8713   5.146   2.833   1.975
 2924TIP3    H2 8714   5.296   2.813   1.980
 2925TIP3   OH2 8715   7.786   6.991   3.916
 2925TIP3    H1 8716   7.837   7.013   3.837
 2925TIP3    H2 8717   7.728   7.066   3.928
 2926TIP3   OH2 8718   2.284   0.305   3.330
 2926TIP3    H1 8719   2.307   0.275   3.418
 2926TIP3    H2 8720   2.194   0.337   3.338
 2927TIP3   OH2 8721   6.131   5.350   1.534
 2927TIP3    H1 8722   6.137   5.269   1.483
 2927TIP3    H2 8723   6.038   5.358   1.554
 2928TIP3   OH2 8724   2.527   0.604   2.005
 2928TIP3    H1 8725   2.590   0.667   2.041
 2928TIP3    H2 8726   2.445   0.653   2.000
 2929TIP3   OH2 8727   1.805   2.673   5.955
 2929TIP3    H1 8728   1.789   2.629   6.039
 2929TIP3    H2 8729   1.898   2.660   5.939
 2930TIP3   OH2 8730   6.690   4.958   1.841
 2930TIP3    H1 8731   6.718   4.913   1.761
 2930TIP3    H2 8732   6.614   5.009   1.814
 2931TIP3   OH2 8733   3.015   0.654   6.267
 2931TIP3    H1 8734   2.973   0.728   6.223
 2931TIP3    H2 8735   3.062   0.609   6.197
 2932TIP3   OH2 8736   2.578   1.979   6.374
 2932TIP3    H1 8737   2.516   1.907   6.386
 2932TIP3    H2 8738   2.562   2.009   6.284
 2933TIP3   OH2 8739   0.934   3.129   5.407
 2933TIP3    H1 8740   0.855   3.153   5.455
 2933TIP3    H2 8741   0.997   3.198   5.430
 2934TIP3   OH2 8742   1.385   4.714   5.444
 2934TIP3    H1 8743   1.314   4.767   5.481
 2934TIP3    H2 8744   1.457   4.776   5.432
 2935TIP3   OH2 8745   5.562   5.043   0.146
 2935TIP3    H1 8746   5.590   4.953   0.165
 2935TIP3    H2 8747   5.642   5.095   0.157
 2936TIP3   OH2 8748   2.012   0.624   2.069
 2936TIP3    H1 8749   2.028   0.711   2.105
 2936TIP3    H2 8750   1.938   0.636   2.009
 2937TIP3   OH2 8751   1.993   1.458   4.308
 2937TIP3    H1 8752   2.088   1.459   4.294
 2937TIP3    H2 8753   1.980   1.511   4.386
 2938TIP3   OH2 8754   1.640   6.116   0.429
 2938TIP3    H1 8755   1.693   6.061   0.371
 2938TIP3    H2 8756   1.703   6.153   0.491
 2939TIP3   OH2 8757   3.516   5.733   2.809
 2939TIP3    H1 8758   3.543   5.652   2.766
 2939TIP3    H2 8759   3.547   5.723   2.900
 2940TIP3   OH2 8760   5.732   0.651   1.523
 2940TIP3    H1 8761   5.765   0.619   1.606
 2940TIP3    H2 8762   5.637   0.642   1.529
 2941TIP3   OH2 8763   1.627   7.887   6.059
 2941TIP3    H1 8764   1.620   7.894   5.964
 2941TIP3    H2 8765   1.637   7.794   6.075
 2942TIP3   OH2 8766   2.772   5.417   5.057
 2942TIP3    H1 8767   2.784   5.353   5.128
 2942TIP3    H2 8768   2.757   5.500   5.102
 2943TIP3   OH2 8769   2.214   4.072   0.530
 2943TIP3    H1 8770   2.213   3.980   0.555
 2943TIP3    H2 8771   2.271   4.114   0.596
 2944TIP3   OH2 8772   4.998   3.746   5.014
 2944TIP3    H1 8773   5.023   3.808   5.083
 2944TIP3    H2 8774   5.008   3.796   4.933
 2945TIP3   OH2 8775   0.623   2.314   3.786
 2945TIP3    H1 8776   0.677   2.257   3.731
 2945TIP3    H2 8777   0.612   2.266   3.868
 2946TIP3   OH2 8778   4.648   5.323   2.925
 2946TIP3    H1 8779   4.739   5.309   2.899
 2946TIP3    H2 8780   4.612   5.234   2.935
 2947TIP3   OH2 8781   1.953   2.193   2.401
 2947TIP3    H1 8782   1.949   2.213   2.308
 2947TIP3    H2 8783   2.028   2.242   2.434
 2948TIP3   OH2 8784   0.306   6.925   1.987
 2948TIP3    H1 8785   0.289   6.991   2.055
 2948TIP3    H2 8786   0.261   6.846   2.019
 2949TIP3   OH2 8787   0.802   7.366   1.211
 2949TIP3    H1 8788   0.764   7.437   1.159
 2949TIP3    H2 8789   0.879   7.339   1.161
 2950TIP3   OH2 8790   1.876   4.958   1.975
 2950TIP3    H1 8791   1.889   5.002   2.059
 2950TIP3    H2 8792   1.824   4.880   1.996
 2951TIP3   OH2 8793   4.877   6.807   1.348
 2951TIP3    H1 8794   4.803   6.776   1.295
 2951TIP3    H2 8795   4.851   6.787   1.439
 2952TIP3   OH2 8796   7.477   5.201   1.357
 2952TIP3    H1 8797   7.485   5.269   1.424
 2952TIP3    H2 8798   7.388   5.213   1.323
 2953TIP3   OH2 8799   5.828   7.444   3.016
 2953TIP3    H1 8800   5.745   7.400   2.998
 2953TIP3    H2 8801   5.890   7.373   3.030
 2954TIP3   OH2 8802   5.445   0.873   4.404
 2954TIP3    H1 8803   5.454   0.889   4.498
 2954TIP3    H2 8804   5.453   0.778   4.395
 2955TIP3   OH2 8805   2.872   5.420   2.709
 2955TIP3    H1 8806   2.850   5.489   2.772
 2955TIP3    H2 8807   2.890   5.467   2.628
 2956TIP3   OH2 8808   0.532   7.882   1.289
 2956TIP3    H1 8809   0.507   7.949   1.353
 2956TIP3    H2 8810   0.494   7.912   1.207
 2957TIP3   OH2 8811   6.939   5.183   2.000
 2957TIP3    H1 8812   6.991   5.167   1.921
 2957TIP3    H2 8813   6.880   5.108   2.006
 2958TIP3   OH2 8814   1.137   7.248   3.475
 2958TIP3    H1 8815   1.113   7.162   3.440
 2958TIP3    H2 8816   1.134   7.306   3.398
 2959TIP3   OH2 8817   4.678   0.317   0.880
 2959TIP3    H1 8818   4.705   0.323   0.788
 2959TIP3    H2 8819   4.755   0.281   0.925
 2960TIP3   OH2 8820   0.658   6.795   3.366
 2960TIP3    H1 8821   0.671   6.884   3.334
 2960TIP3    H2 8822   0.585   6.761   3.313
 2961TIP3   OH2 8823   2.172   5.519   2.846
 2961TIP3    H1 8824   2.215   5.501   2.762
 2961TIP3    H2 8825   2.079   5.518   2.825
 2962TIP3   OH2 8826   5.759   2.131   5.982
 2962TIP3    H1 8827   5.690   2.187   6.016
 2962TIP3    H2 8828   5.778   2.070   6.053
 2963TIP3   OH2 8829   6.468   4.330   3.414
 2963TIP3    H1 8830   6.394   4.330   3.475
 2963TIP3    H2 8831   6.432   4.365   3.333
 2964TIP3   OH2 8832   3.502   6.480   6.323
 2964TIP3    H1 8833   3.454   6.561   6.310
 2964TIP3    H2 8834   3.438   6.422   6.366
 2965TIP3   OH2 8835   6.776   3.680   5.086
 2965TIP3    H1 8836   6.841   3.750   5.100
 2965TIP3    H2 8837   6.797   3.615   5.153
 2966TIP3   OH2 8838   6.095   6.675   5.256
 2966TIP3    H1 8839   6.142   6.591   5.257
 2966TIP3    H2 8840   6.063   6.682   5.166
 2967TIP3   OH2 8841   5.901   3.651   6.143
 2967TIP3    H1 8842   5.974   3.624   6.198
 2967TIP3    H2 8843   5.827   3.597   6.172
 2968TIP3   OH2 8844   2.475   5.305   4.041
 2968TIP3    H1 8845   2.547   5.243   4.034
 2968TIP3    H2 8846   2.398   5.251   4.056
 2969TIP3   OH2 8847   1.730   6.938   3.512
 2969TIP3    H1 8848   1.744   6.856   3.464
 2969TIP3    H2 8849   1.646   6.926   3.555
 2970TIP3   OH2 8850   7.663   5.610   2.583
 2970TIP3    H1 8851   7.676   5.681   2.646
 2970TIP3    H2 8852   7.601   5.645   2.519
 2971TIP3   OH2 8853   1.780   0.392   4.471
 2971TIP3    H1 8854   1.829   0.317   4.439
 2971TIP3    H2 8855   1.798   0.462   4.408
 2972TIP3   OH2 8856   2.689   1.127   2.254
 2972TIP3    H1 8857   2.775   1.117   2.294
 2972TIP3    H2 8858   2.647   1.196   2.305
 2973TIP3   OH2 8859   0.221   6.083   0.858
 2973TIP3    H1 8860   0.176   6.136   0.923
 2973TIP3    H2 8861   0.151   6.049   0.802
 2974TIP3   OH2 8862   6.344   3.346   1.393
 2974TIP3    H1 8863   6.255   3.331   1.426
 2974TIP3    H2 8864   6.332   3.399   1.314
 2975TIP3   OH2 8865   6.902   4.956   3.118
 2975TIP3    H1 8866   6.961   5.030   3.135
 2975TIP3    H2 8867   6.815   4.995   3.116
 2976TIP3   OH2 8868   4.706   3.686   3.068
 2976TIP3    H1 8869   4.769   3.658   3.001
 2976TIP3    H2 8870   4.666   3.605   3.099
 2977TIP3   OH2 8871   7.599   1.430   4.450
 2977TIP3    H1 8872   7.631   1.457   4.537
 2977TIP3    H2 8873   7.633   1.341   4.439
 2978TIP3   OH2 8874   7.715   6.530   5.068
 2978TIP3    H1 8875   7.768   6.510   5.145
 2978TIP3    H2 8876   7.777   6.534   4.996
 2979TIP3   OH2 8877   0.860   1.961   1.201
 2979TIP3    H1 8878   0.926   1.911   1.154
 2979TIP3    H2 8879   0.858   1.923   1.289
 2980TIP3   OH2 8880   3.925   5.549   1.428
 2980TIP3    H1 8881   3.841   5.504   1.429
 2980TIP3    H2 8882   3.963   5.528   1.343
 2981TIP3   OH2 8883   1.779   3.990   4.057
 2981TIP3    H1 8884   1.684   3.980   4.049
 2981TIP3    H2 8885   1.790   4.053   4.128
 2982TIP3   OH2 8886   7.803   2.828   4.462
 2982TIP3    H1 8887   7.835   2.875   4.386
 2982TIP3    H2 8888   7.809   2.736   4.437
 2983TIP3   OH2 8889   0.975   3.601   1.045
 2983TIP3    H1 8890   1.010   3.519   1.079
 2983TIP3    H2 8891   0.881   3.584   1.033
 2984TIP3   OH2 8892   6.264   6.989   0.871
 2984TIP3    H1 8893   6.218   6.924   0.924
 2984TIP3    H2 8894   6.194   7.044   0.836
 2985TIP3   OH2 8895   6.387   7.636   3.996
 2985TIP3    H1 8896   6.438   7.585   3.933
 2985TIP3    H2 8897   6.298   7.601   3.989
 2986TIP3   OH2 8898   4.940   2.239   4.876
 2986TIP3    H1 8899   4.845   2.240   4.884
 2986TIP3    H2 8900   4.962   2.325   4.839
 2987TIP3   OH2 8901   3.473   7.602   3.576
 2987TIP3    H1 8902   3.434   7.641   3.498
 2987TIP3    H2 8903   3.520   7.674   3.618
 2988TIP3   OH2 8904   2.539   4.223   2.361
 2988TIP3    H1 8905   2.598   4.180   2.423
 2988TIP3    H2 8906   2.595   4.244   2.286
 2989TIP3   OH2 8907   6.481   2.788   6.441
 2989TIP3    H1 8908   6.428   2.867   6.429
 2989TIP3    H2 8909   6.419   2.722   6.472
 2990TIP3   OH2 8910   7.490   2.771   2.014
 2990TIP3    H1 8911   7.500   2.740   1.923
 2990TIP3    H2 8912   7.559   2.725   2.062
 2991TIP3   OH2 8913   6.364   6.294   5.377
 2991TIP3    H1 8914   6.336   6.220   5.430
 2991TIP3    H2 8915   6.445   6.323   5.418
 2992TIP3   OH2 8916   1.401   4.424   5.000
 2992TIP3    H1 8917   1.474   4.425   5.062
 2992TIP3    H2 8918   1.384   4.517   4.982
 2993TIP3   OH2 8919   6.784   5.950   3.868
 2993TIP3    H1 8920   6.757   5.964   3.777
 2993TIP3    H2 8921   6.710   5.982   3.920
 2994TIP3   OH2 8922   2.398   2.405   4.986
 2994TIP3    H1 8923   2.399   2.494   4.949
 2994TIP3    H2 8924   2.428   2.349   4.914
 2995TIP3   OH2 8925   0.184   2.396   0.813
 2995TIP3    H1 8926   0.222   2.480   0.842
 2995TIP3    H2 8927   0.249   2.331   0.839
 2996TIP3   OH2 8928   6.184   6.930   5.338
 2996TIP3    H1 8929   6.275   6.923   5.365
 2996TIP3    H2 8930   6.158   6.841   5.314
 2997TIP3   OH2 8931   4.404   1.668   4.711
 2997TIP3    H1 8932   4.374   1.694   4.799
 2997TIP3    H2 8933   4.323   1.655   4.661
 2998TIP3   OH2 8934   8.185   2.532   2.814
 2998TIP3    H1 8935   8.100   2.491   2.828
 2998TIP3    H2 8936   8.166   2.607   2.758
 2999TIP3   OH2 8937   5.209   1.335   1.041
 2999TIP3    H1 8938   5.243   1.295   1.121
 2999TIP3    H2 8939   5.128   1.378   1.068
 3000TIP3   OH2 8940   4.356   5.561   5.832
 3000TIP3    H1 8941   4.428   5.533   5.776
 3000TIP3    H2 8942   4.285   5.581   5.772
 3001TIP3   OH2 8943   4.007   2.997   0.020
 3001TIP3    H1 8944   4.090   2.984  -0.025
 3001TIP3    H2 8945   4.003   3.092   0.036
 3002TIP3   OH2 8946   7.868   6.658   5.517
 3002TIP3    H1 8947   7.897   6.598   5.449
 3002TIP3    H2 8948   7.788   6.697   5.482
 3003TIP3   OH2 8949   1.217   2.643   3.851
 3003TIP3    H1 8950   1.128   2.629   3.817
 3003TIP3    H2 8951   1.272   2.587   3.796
 3004TIP3   OH2 8952   3.897   1.584   4.570
 3004TIP3    H1 8953   3.944   1.521   4.626
 3004TIP3    H2 8954   3.813   1.596   4.613
 3005TIP3   OH2 8955   3.083   2.102   5.698
 3005TIP3    H1 8956   3.121   2.015   5.689
 3005TIP3    H2 8957   2.994   2.093   5.664
 3006TIP3   OH2 8958   3.059   7.458   0.320
 3006TIP3    H1 8959   3.013   7.381   0.285
 3006TIP3    H2 8960   3.099   7.427   0.401
 3007TIP3   OH2 8961   0.264   7.837   4.511
 3007TIP3    H1 8962   0.197   7.898   4.541
 3007TIP3    H2 8963   0.340   7.855   4.566
 3008TIP3   OH2 8964   2.403   7.535   6.351
 3008TIP3    H1 8965   2.467   7.471   6.319
 3008TIP3    H2 8966   2.332   7.530   6.287
 3009TIP3   OH2 8967   6.997   5.965   5.541
 3009TIP3    H1 8968   6.965   5.940   5.454
 3009TIP3    H2 8969   7.091   5.948   5.537
 3010TIP3   OH2 8970   7.712   3.210   5.840
 3010TIP3    H1 8971   7.667   3.197   5.757
 3010TIP3    H2 8972   7.779   3.276   5.821
 3011TIP3   OH2 8973   7.075   3.195   0.054
 3011TIP3    H1 8974   7.090   3.113   0.102
 3011TIP3    H2 8975   7.095   3.173  -0.037
 3012TIP3   OH2 8976   2.101   6.100   4.612
 3012TIP3    H1 8977   2.145   6.180   4.642
 3012TIP3    H2 8978   2.011   6.108   4.645
 3013TIP3   OH2 8979   5.435   3.097   4.837
 3013TIP3    H1 8980   5.455   3.083   4.929
 3013TIP3    H2 8981   5.360   3.040   4.820
 3014TIP3   OH2 8982   4.875   2.278   0.796
 3014TIP3    H1 8983   4.880   2.351   0.858
 3014TIP3    H2 8984   4.889   2.200   0.850
 3015TIP3   OH2 8985   4.624   6.651   0.640
 3015TIP3    H1 8986   4.560   6.623   0.706
 3015TIP3    H2 8987   4.594   6.738   0.613
 3016TIP3   OH2 8988   5.289   5.615   1.325
 3016TIP3    H1 8989   5.309   5.706   1.347
 3016TIP3    H2 8990   5.232   5.585   1.397
 3017TIP3   OH2 8991   6.374   3.937   6.437
 3017TIP3    H1 8992   6.375   3.880   6.514
 3017TIP3    H2 8993   6.404   4.022   6.469
 3018TIP3   OH2 8994   3.907   4.760   5.234
 3018TIP3    H1 8995   3.926   4.791   5.322
 3018TIP3    H2 8996   3.933   4.668   5.234
 3019TIP3   OH2 8997   2.111   0.335   3.881
 3019TIP3    H1 8998   2.033   0.388   3.866
 3019TIP3    H2 8999   2.082   0.245   3.864
 3020TIP3   OH2 9000   5.058   3.988   2.156
 3020TIP3    H1 9001   5.031   4.074   2.124
 3020TIP3    H2 9002   5.123   3.958   2.091
 3021TIP3   OH2 9003   1.136   1.487   5.213
 3021TIP3    H1 9004   1.158   1.551   5.281
 3021TIP3    H2 9005   1.073   1.533   5.157
 3022TIP3   OH2 9006   6.080   6.053   5.465
 3022TIP3    H1 9007   5.998   6.015   5.497
 3022TIP3    H2 9008   6.130   6.072   5.544
 3023TIP3   OH2 9009   3.476   0.728   4.740
 3023TIP3    H1 9010   3.448   0.804   4.689
 3023TIP3    H2 9011   3.560   0.703   4.702
 3024TIP3   OH2 9012   0.325   7.452   2.355
 3024TIP3    H1 9013   0.309   7.424   2.445
 3024TIP3    H2 9014   0.302   7.376   2.302
 3025TIP3   OH2 9015   8.396   4.951   0.185
 3025TIP3    H1 9016   8.447   4.894   0.127
 3025TIP3    H2 9017   8.346   5.007   0.126
 3026TIP3   OH2 9018   4.776   6.088   1.280
 3026TIP3    H1 9019   4.769   6.044   1.364
 3026TIP3    H2 9020   4.690   6.079   1.240
 3027TIP3   OH2 9021   7.732   5.211   0.206
 3027TIP3    H1 9022   7.753   5.124   0.239
 3027TIP3    H2 9023   7.677   5.195   0.130
 3028TIP3   OH2 9024   4.791   7.565   6.313
 3028TIP3    H1 9025   4.778   7.491   6.372
 3028TIP3    H2 9026   4.818   7.637   6.372
 3029TIP3   OH2 9027   4.787   3.987   3.105
 3029TIP3    H1 9028   4.801   3.965   3.197
 3029TIP3    H2 9029   4.802   3.905   3.058
 3030TIP3   OH2 9030   7.527   2.263   0.288
 3030TIP3    H1 9031   7.586   2.197   0.252
 3030TIP3    H2 9032   7.492   2.308   0.212
 3031TIP3   OH2 9033   1.890   6.708   3.416
 3031TIP3    H1 9034   1.958   6.653   3.376
 3031TIP3    H2 9035   1.913   6.712   3.508
 3032TIP3   OH2 9036   3.524   5.643   2.038
 3032TIP3    H1 9037   3.476   5.713   2.082
 3032TIP3    H2 9038   3.578   5.688   1.973
 3033TIP3   OH2 9039   6.550   3.475   1.807
 3033TIP3    H1 9040   6.615   3.456   1.739
 3033TIP3    H2 9041   6.514   3.561   1.782
 3034TIP3   OH2 9042   1.923   6.497   5.188
 3034TIP3    H1 9043   1.894   6.576   5.141
 3034TIP3    H2 9044   1.961   6.531   5.270
 3035TIP3   OH2 9045   3.847   7.087   3.884
 3035TIP3    H1 9046   3.825   7.137   3.963
 3035TIP3    H2 9047   3.799   7.129   3.814
 3036TIP3   OH2 9048   3.196   0.496   0.549
 3036TIP3    H1 9049   3.148   0.570   0.511
 3036TIP3    H2 9050   3.272   0.536   0.591
 3037TIP3   OH2 9051   1.616   4.350   2.730
 3037TIP3    H1 9052   1.707   4.368   2.706
 3037TIP3    H2 9053   1.616   4.260   2.762
 3038TIP3   OH2 9054   6.994   7.257   2.434
 3038TIP3    H1 9055   6.932   7.318   2.395
 3038TIP3    H2 9056   7.012   7.193   2.365
 3039TIP3   OH2 9057   5.439   5.924   5.627
 3039TIP3    H1 9058   5.389   5.846   5.602
 3039TIP3    H2 9059   5.443   5.976   5.547
 3040TIP3   OH2 9060   7.480   3.720   6.787
 3040TIP3    H1 9061   7.523   3.775   6.721
 3040TIP3    H2 9062   7.417   3.777   6.830
 3041TIP3   OH2 9063   2.802   3.800   6.563
 3041TIP3    H1 9064   2.831   3.874   6.510
 3041TIP3    H2 9065   2.728   3.834   6.614
 3042TIP3   OH2 9066   7.618   2.122   6.289
 3042TIP3    H1 9067   7.635   2.167   6.207
 3042TIP3    H2 9068   7.542   2.167   6.326
 3043TIP3   OH2 9069   0.608   7.089   2.987
 3043TIP3    H1 9070   0.556   7.055   2.914
 3043TIP3    H2 9071   0.669   7.019   3.009
 3044TIP3   OH2 9072   5.680   5.024   1.829
 3044TIP3    H1 9073   5.684   4.966   1.752
 3044TIP3    H2 9074   5.726   5.103   1.801
 3045TIP3   OH2 9075   6.014   0.500   2.296
 3045TIP3    H1 9076   6.098   0.544   2.310
 3045TIP3    H2 9077   5.968   0.556   2.234
 3046TIP3   OH2 9078   1.773   4.203   2.349
 3046TIP3    H1 9079   1.683   4.221   2.325
 3046TIP3    H2 9080   1.771   4.117   2.391
 3047TIP3   OH2 9081   5.770   7.374   1.226
 3047TIP3    H1 9082   5.699   7.433   1.203
 3047TIP3    H2 9083   5.728   7.302   1.272
 3048TIP3   OH2 9084   5.941   5.818   3.007
 3048TIP3    H1 9085   5.846   5.822   2.996
 3048TIP3    H2 9086   5.955   5.834   3.101
 3049TIP3   OH2 9087   7.283   2.632   2.309
 3049TIP3    H1 9088   7.326   2.558   2.266
 3049TIP3    H2 9089   7.312   2.626   2.400
 3050TIP3   OH2 9090   7.010   7.286   0.932
 3050TIP3    H1 9091   7.033   7.258   0.844
 3050TIP3    H2 9092   6.995   7.204   0.980
 3051TIP3   OH2 9093   0.739   7.450   4.598
 3051TIP3    H1 9094   0.823   7.470   4.639
 3051TIP3    H2 9095   0.694   7.534   4.591
 3052TIP3   OH2 9096   2.472   0.954   2.279
 3052TIP3    H1 9097   2.549   1.011   2.282
 3052TIP3    H2 9098   2.508   0.866   2.266
 3053TIP3   OH2 9099   4.281   6.522   0.366
 3053TIP3    H1 9100   4.341   6.463   0.411
 3053TIP3    H2 9101   4.195   6.481   0.375
 3054TIP3   OH2 9102   4.261   0.775   3.134
 3054TIP3    H1 9103   4.195   0.783   3.203
 3054TIP3    H2 9104   4.292   0.865   3.121
 3055TIP3   OH2 9105   3.666   0.833   5.044
 3055TIP3    H1 9106   3.719   0.865   4.971
 3055TIP3    H2 9107   3.701   0.745   5.061
 3056TIP3   OH2 9108   3.159   5.016   5.292
 3056TIP3    H1 9109   3.120   4.941   5.337
 3056TIP3    H2 9110   3.231   5.044   5.350
 3057TIP3   OH2 9111   3.925   2.416   1.395
 3057TIP3    H1 9112   3.953   2.460   1.315
 3057TIP3    H2 9113   3.830   2.413   1.389
 3058TIP3   OH2 9114   5.621   4.253   1.193
 3058TIP3    H1 9115   5.691   4.310   1.161
 3058TIP3    H2 9116   5.589   4.297   1.271
 3059TIP3   OH2 9117   4.034   6.599   6.424
 3059TIP3    H1 9118   4.066   6.687   6.407
 3059TIP3    H2 9119   3.995   6.604   6.511
 3060TIP3   OH2 9120   6.579   0.543   0.175
 3060TIP3    H1 9121   6.611   0.576   0.259
 3060TIP3    H2 9122   6.498   0.496   0.198
 3061TIP3   OH2 9123   6.004   2.326   5.439
 3061TIP3    H1 9124   5.954   2.392   5.487
 3061TIP3    H2 9125   5.952   2.247   5.446
 3062TIP3   OH2 9126   1.814   4.656   3.827
 3062TIP3    H1 9127   1.775   4.572   3.804
 3062TIP3    H2 9128   1.739   4.717   3.830
 3063TIP3   OH2 9129   5.120   2.057   2.186
 3063TIP3    H1 9130   5.120   2.152   2.197
 3063TIP3    H2 9131   5.206   2.029   2.215
 3064TIP3   OH2 9132   6.035   1.171   5.308
 3064TIP3    H1 9133   5.991   1.128   5.235
 3064TIP3    H2 9134   5.997   1.259   5.310
 3065TIP3   OH2 9135   8.002   1.866   0.908
 3065TIP3    H1 9136   8.042   1.784   0.937
 3065TIP3    H2 9137   8.052   1.891   0.830
 3066TIP3   OH2 9138   5.663   1.729   4.465
 3066TIP3    H1 9139   5.716   1.809   4.469
 3066TIP3    H2 9140   5.726   1.658   4.471
 3067TIP3   OH2 9141   1.312   2.490   3.281
 3067TIP3    H1 9142   1.302   2.567   3.337
 3067TIP3    H2 9143   1.398   2.455   3.305
 3068TIP3   OH2 9144   7.373   1.596   1.809
 3068TIP3    H1 9145   7.309   1.661   1.838
 3068TIP3    H2 9146   7.322   1.516   1.797
 3069TIP3   OH2 9147   2.454   2.740   6.799
 3069TIP3    H1 9148   2.486   2.823   6.833
 3069TIP3    H2 9149   2.359   2.745   6.809
 3070TIP3   OH2 9150   1.549   7.159   0.108
 3070TIP3    H1 9151   1.534   7.066   0.125
 3070TIP3    H2 9152   1.590   7.162   0.022
 3071TIP3   OH2 9153   4.695   7.313   6.416
 3071TIP3    H1 9154   4.615   7.362   6.434
 3071TIP3    H2 9155   4.672   7.222   6.435
 3072TIP3   OH2 9156   2.489   6.043   0.365
 3072TIP3    H1 9157   2.552   6.064   0.296
 3072TIP3    H2 9158   2.492   6.119   0.424
 3073TIP3   OH2 9159   8.066   3.999   5.794
 3073TIP3    H1 9160   8.028   4.079   5.830
 3073TIP3    H2 9161   8.066   4.014   5.699
 3074TIP3   OH2 9162   1.824   1.874   6.712
 3074TIP3    H1 9163   1.892   1.942   6.705
 3074TIP3    H2 9164   1.873   1.791   6.710
 3075TIP3   OH2 9165   7.376   7.426   1.228
 3075TIP3    H1 9166   7.288   7.444   1.260
 3075TIP3    H2 9167   7.401   7.506   1.182
 3076TIP3   OH2 9168   4.089   5.653   6.073
 3076TIP3    H1 9169   4.103   5.730   6.128
 3076TIP3    H2 9170   4.127   5.581   6.122
 3077TIP3   OH2 9171   5.097   4.813   0.574
 3077TIP3    H1 9172   5.029   4.796   0.639
 3077TIP3    H2 9173   5.157   4.739   0.581
 3078TIP3   OH2 9174   7.504   4.399   5.293
 3078TIP3    H1 9175   7.484   4.320   5.244
 3078TIP3    H2 9176   7.419   4.440   5.308
 3079TIP3   OH2 9177   5.324   2.794   6.374
 3079TIP3    H1 9178   5.356   2.717   6.327
 3079TIP3    H2 9179   5.233   2.803   6.346
 3080TIP3   OH2 9180   4.441   3.863   2.800
 3080TIP3    H1 9181   4.400   3.867   2.714
 3080TIP3    H2 9182   4.371   3.888   2.861
 3081TIP3   OH2 9183   0.489   7.126   1.706
 3081TIP3    H1 9184   0.500   7.031   1.703
 3081TIP3    H2 9185   0.404   7.140   1.747
 3082TIP3   OH2 9186   1.242   3.886   4.389
 3082TIP3    H1 9187   1.176   3.823   4.359
 3082TIP3    H2 9188   1.265   3.857   4.478
 3083TIP3   OH2 9189   5.653   7.882   1.131
 3083TIP3    H1 9190   5.638   7.928   1.214
 3083TIP3    H2 9191   5.570   7.890   1.084
 3084TIP3   OH2 9192   5.252   3.638   6.007
 3084TIP3    H1 9193   5.232   3.574   6.076
 3084TIP3    H2 9194   5.166   3.666   5.976
 3085TIP3   OH2 9195   5.427   4.961   4.037
 3085TIP3    H1 9196   5.365   4.962   4.109
 3085TIP3    H2 9197   5.443   5.054   4.018
 3086TIP3   OH2 9198   2.867   2.134   3.551
 3086TIP3    H1 9199   2.931   2.166   3.614
 3086TIP3    H2 9200   2.782   2.148   3.593
 3087TIP3   OH2 9201   6.872   1.737   0.573
 3087TIP3    H1 9202   6.878   1.770   0.663
 3087TIP3    H2 9203   6.833   1.809   0.523
 3088TIP3   OH2 9204   7.590   0.643   5.651
 3088TIP3    H1 9205   7.646   0.718   5.671
 3088TIP3    H2 9206   7.564   0.609   5.736
 3089TIP3   OH2 9207   3.623   6.066   2.348
 3089TIP3    H1 9208   3.532   6.086   2.367
 3089TIP3    H2 9209   3.644   6.118   2.271
 3090TIP3   OH2 9210   1.855   1.284   6.090
 3090TIP3    H1 9211   1.783   1.328   6.045
 3090TIP3    H2 9212   1.832   1.191   6.088
 3091TIP3   OH2 9213   0.239   3.622   0.208
 3091TIP3    H1 9214   0.277   3.536   0.192
 3091TIP3    H2 9215   0.272   3.677   0.137
 3092TIP3   OH2 9216   4.448   3.035   6.565
 3092TIP3    H1 9217   4.363   3.073   6.541
 3092TIP3    H2 9218   4.480   2.996   6.483
 3093TIP3   OH2 9219   0.936   0.895   3.091
 3093TIP3    H1 9220   1.012   0.836   3.084
 3093TIP3    H2 9221   0.866   0.840   3.127
 3094TIP3   OH2 9222   3.568   4.134   4.702
 3094TIP3    H1 9223   3.571   4.082   4.782
 3094TIP3    H2 9224   3.641   4.102   4.649
 3095TIP3   OH2 9225   7.928   6.945   2.349
 3095TIP3    H1 9226   7.845   6.906   2.321
 3095TIP3    H2 9227   7.943   6.907   2.436
 3096TIP3   OH2 9228   8.296   2.723   4.364
 3096TIP3    H1 9229   8.288   2.628   4.372
 3096TIP3    H2 9230   8.208   2.753   4.342
 3097TIP3   OH2 9231   5.479   7.572   4.812
 3097TIP3    H1 9232   5.527   7.500   4.853
 3097TIP3    H2 9233   5.542   7.612   4.752
 3098TIP3   OH2 9234   3.965   4.047   6.361
 3098TIP3    H1 9235   3.904   4.020   6.429
 3098TIP3    H2 9236   3.929   4.130   6.328
 3099TIP3   OH2 9237   4.075   3.284   6.401
 3099TIP3    H1 9238   4.112   3.224   6.465
 3099TIP3    H2 9239   4.151   3.316   6.352
 3100TIP3   OH2 9240   2.816   3.202   5.062
 3100TIP3    H1 9241   2.804   3.113   5.096
 3100TIP3    H2 9242   2.824   3.190   4.968
 3101TIP3   OH2 9243   5.523   0.856   1.614
 3101TIP3    H1 9244   5.542   0.794   1.684
 3101TIP3    H2 9245   5.457   0.915   1.652
 3102TIP3   OH2 9246   2.004   4.136   6.100
 3102TIP3    H1 9247   2.021   4.044   6.081
 3102TIP3    H2 9248   2.086   4.181   6.080
 3103TIP3   OH2 9249   4.875   0.749   0.454
 3103TIP3    H1 9250   4.816   0.760   0.379
 3103TIP3    H2 9251   4.963   0.757   0.417
 3104TIP3   OH2 9252   3.293   1.508   4.032
 3104TIP3    H1 9253   3.276   1.578   3.969
 3104TIP3    H2 9254   3.387   1.492   4.024
 3105TIP3   OH2 9255   0.625   4.109   0.320
 3105TIP3    H1 9256   0.647   4.134   0.230
 3105TIP3    H2 9257   0.558   4.041   0.310
 3106TIP3   OH2 9258   7.594   7.181   3.874
 3106TIP3    H1 9259   7.542   7.108   3.840
 3106TIP3    H2 9260   7.529   7.242   3.908
 3107TIP3   OH2 9261   5.500   5.561   4.116
 3107TIP3    H1 9262   5.570   5.622   4.095
 3107TIP3    H2 9263   5.422   5.616   4.124
 3108TIP3   OH2 9264   0.377   2.099   6.799
 3108TIP3    H1 9265   0.387   2.184   6.756
 3108TIP3    H2 9266   0.347   2.041   6.729
 3109TIP3   OH2 9267   6.368   2.559   3.067
 3109TIP3    H1 9268   6.412   2.633   3.109
 3109TIP3    H2 9269   6.306   2.599   3.006
 3110TIP3   OH2 9270   1.237   1.435   4.463
 3110TIP3    H1 9271   1.198   1.450   4.378
 3110TIP3    H2 9272   1.331   1.427   4.446
 3111TIP3   OH2 9273   7.586   7.873   0.842
 3111TIP3    H1 9274   7.636   7.792   0.832
 3111TIP3    H2 9275   7.504   7.857   0.796
 3112TIP3   OH2 9276   5.603   0.266   0.614
 3112TIP3    H1 9277   5.617   0.269   0.708
 3112TIP3    H2 9278   5.561   0.181   0.598
 3113TIP3   OH2 9279   0.396   1.506   5.551
 3113TIP3    H1 9280   0.435   1.454   5.481
 3113TIP3    H2 9281   0.304   1.483   5.549
 3114TIP3   OH2 9282   6.528   1.391   6.816
 3114TIP3    H1 9283   6.601   1.372   6.757
 3114TIP3    H2 9284   6.534   1.486   6.831
 3115TIP3   OH2 9285   3.516   5.076   2.125
 3115TIP3    H1 9286   3.522   4.993   2.078
 3115TIP3    H2 9287   3.597   5.080   2.176
 3116TIP3   OH2 9288   5.443   4.504   6.157
 3116TIP3    H1 9289   5.479   4.438   6.098
 3116TIP3    H2 9290   5.461   4.471   6.245
 3117TIP3   OH2 9291   5.034   1.908   1.793
 3117TIP3    H1 9292   4.972   1.870   1.856
 3117TIP3    H2 9293   5.010   2.000   1.787
 3118TIP3   OH2 9294   7.582   1.962   0.052
 3118TIP3    H1 9295   7.639   2.023   0.099
 3118TIP3    H2 9296   7.639   1.890   0.025
 3119TIP3   OH2 9297   4.515   3.981   2.331
 3119TIP3    H1 9298   4.571   3.927   2.386
 3119TIP3    H2 9299   4.509   3.933   2.249
 3120TIP3   OH2 9300   6.130   7.754   3.793
 3120TIP3    H1 9301   6.194   7.725   3.727
 3120TIP3    H2 9302   6.066   7.683   3.796
 3121TIP3   OH2 9303   2.700   6.251   4.257
 3121TIP3    H1 9304   2.671   6.169   4.297
 3121TIP3    H2 9305   2.619   6.298   4.237
 3122TIP3   OH2 9306   7.684   7.490   6.278
 3122TIP3    H1 9307   7.642   7.448   6.203
 3122TIP3    H2 9308   7.772   7.453   6.281
 3123TIP3   OH2 9309   0.842   7.036   2.337
 3123TIP3    H1 9310   0.828   7.129   2.323
 3123TIP3    H2 9311   0.889   7.031   2.420
 3124TIP3   OH2 9312   5.815   3.186   6.511
 3124TIP3    H1 9313   5.824   3.166   6.417
 3124TIP3    H2 9314   5.806   3.100   6.552
 3125TIP3   OH2 9315   1.553   1.235   6.439
 3125TIP3    H1 9316   1.474   1.190   6.470
 3125TIP3    H2 9317   1.622   1.168   6.445
 3126TIP3   OH2 9318   7.819   7.436   1.662
 3126TIP3    H1 9319   7.798   7.384   1.739
 3126TIP3    H2 9320   7.736   7.444   1.615
 3127TIP3   OH2 9321   0.551   6.643   5.739
 3127TIP3    H1 9322   0.490   6.688   5.797
 3127TIP3    H2 9323   0.564   6.703   5.665
 3128TIP3   OH2 9324   7.101   2.148   2.774
 3128TIP3    H1 9325   7.041   2.075   2.784
 3128TIP3    H2 9326   7.176   2.111   2.727
 3129TIP3   OH2 9327   2.043   7.206   4.233
 3129TIP3    H1 9328   2.090   7.128   4.204
 3129TIP3    H2 9329   2.098   7.244   4.302
 3130TIP3   OH2 9330   1.868   6.558   4.117
 3130TIP3    H1 9331   1.802   6.492   4.098
 3130TIP3    H2 9332   1.862   6.620   4.044
 3131TIP3   OH2 9333   2.393   5.629   4.168
 3131TIP3    H1 9334   2.471   5.580   4.193
 3131TIP3    H2 9335   2.383   5.612   4.074
 3132TIP3   OH2 9336   0.129   2.763   5.941
 3132TIP3    H1 9337   0.185   2.694   5.906
 3132TIP3    H2 9338   0.064   2.717   5.994
 3133TIP3   OH2 9339   1.439   6.279   6.618
 3133TIP3    H1 9340   1.420   6.315   6.704
 3133TIP3    H2 9341   1.534   6.281   6.611
 3134TIP3   OH2 9342   0.421   2.546   3.951
 3134TIP3    H1 9343   0.474   2.578   3.877
 3134TIP3    H2 9344   0.385   2.463   3.921
 3135TIP3   OH2 9345   2.763   6.250   5.087
 3135TIP3    H1 9346   2.825   6.200   5.141
 3135TIP3    H2 9347   2.678   6.210   5.105
 3136TIP3   OH2 9348   3.079   2.338   1.363
 3136TIP3    H1 9349   3.040   2.267   1.313
 3136TIP3    H2 9350   3.171   2.314   1.371
 3137TIP3   OH2 9351   7.913   0.303   4.235
 3137TIP3    H1 9352   7.828   0.345   4.226
 3137TIP3    H2 9353   7.937   0.317   4.327
 3138TIP3   OH2 9354   5.184   3.859   0.734
 3138TIP3    H1 9355   5.203   3.905   0.815
 3138TIP3    H2 9356   5.182   3.928   0.667
 3139TIP3   OH2 9357   0.481   2.865   0.902
 3139TIP3    H1 9358   0.502   2.835   0.990
 3139TIP3    H2 9359   0.392   2.834   0.887
 3140TIP3   OH2 9360   5.675   7.126   0.475
 3140TIP3    H1 9361   5.605   7.118   0.411
 3140TIP3    H2 9362   5.724   7.044   0.467
 3141TIP3   OH2 9363   3.183   3.475   6.789
 3141TIP3    H1 9364   3.215   3.544   6.847
 3141TIP3    H2 9365   3.171   3.518   6.705
 3142TIP3   OH2 9366   1.310   7.319   3.697
 3142TIP3    H1 9367   1.392   7.272   3.710
 3142TIP3    H2 9368   1.266   7.271   3.626
 3143TIP3   OH2 9369   3.495   3.634   3.473
 3143TIP3    H1 9370   3.469   3.612   3.384
 3143TIP3    H2 9371   3.412   3.636   3.522
 3144TIP3   OH2 9372   3.272   4.863   4.830
 3144TIP3    H1 9373   3.311   4.909   4.905
 3144TIP3    H2 9374   3.225   4.789   4.869
 3145TIP3   OH2 9375   6.949   3.138   5.739
 3145TIP3    H1 9376   6.987   3.191   5.669
 3145TIP3    H2 9377   6.922   3.057   5.696
 3146TIP3   OH2 9378   2.588   2.543   0.188
 3146TIP3    H1 9379   2.563   2.621   0.237
 3146TIP3    H2 9380   2.652   2.499   0.243
 3147TIP3   OH2 9381   3.685   5.991   0.546
 3147TIP3    H1 9382   3.636   6.022   0.623
 3147TIP3    H2 9383   3.621   5.941   0.495
 3148TIP3   OH2 9384   2.083   7.772   1.580
 3148TIP3    H1 9385   2.072   7.867   1.584
 3148TIP3    H2 9386   2.177   7.758   1.591
 3149TIP3   OH2 9387   5.340   1.256   3.049
 3149TIP3    H1 9388   5.279   1.280   3.119
 3149TIP3    H2 9389   5.321   1.319   2.979
 3150TIP3   OH2 9390   7.042   6.582   5.072
 3150TIP3    H1 9391   6.958   6.567   5.115
 3150TIP3    H2 9392   7.023   6.571   4.979
 3151TIP3   OH2 9393   0.981   2.213   1.225
 3151TIP3    H1 9394   0.991   2.227   1.319
 3151TIP3    H2 9395   0.950   2.123   1.217
 3152TIP3   OH2 9396   0.635   4.797   6.080
 3152TIP3    H1 9397   0.615   4.826   5.991
 3152TIP3    H2 9398   0.563   4.832   6.133
 3153TIP3   OH2 9399   0.143   5.693   4.181
 3153TIP3    H1 9400   0.108   5.773   4.219
 3153TIP3    H2 9401   0.201   5.658   4.248
 3154TIP3   OH2 9402   2.837   0.357   1.211
 3154TIP3    H1 9403   2.741   0.364   1.213
 3154TIP3    H2 9404   2.867   0.442   1.178
 3155TIP3   OH2 9405   6.387   0.070   6.597
 3155TIP3    H1 9406   6.466   0.119   6.618
 3155TIP3    H2 9407   6.398   0.042   6.506
 3156TIP3   OH2 9408   0.978   4.781   5.471
 3156TIP3    H1 9409   1.071   4.799   5.480
 3156TIP3    H2 9410   0.973   4.710   5.407
 3157TIP3   OH2 9411   4.770   4.940   0.912
 3157TIP3    H1 9412   4.763   4.997   0.989
 3157TIP3    H2 9413   4.767   4.999   0.838
 3158TIP3   OH2 9414   8.042   5.232   2.997
 3158TIP3    H1 9415   8.108   5.290   3.036
 3158TIP3    H2 9416   8.084   5.197   2.919
 3159TIP3   OH2 9417   2.032   5.952   5.553
 3159TIP3    H1 9418   2.016   6.011   5.479
 3159TIP3    H2 9419   1.985   5.993   5.626
 3160TIP3   OH2 9420   5.447   4.549   4.083
 3160TIP3    H1 9421   5.425   4.552   4.176
 3160TIP3    H2 9422   5.490   4.633   4.066
 3161TIP3   OH2 9423   4.606   7.259   6.672
 3161TIP3    H1 9424   4.538   7.318   6.639
 3161TIP3    H2 9425   4.684   7.314   6.678
 3162TIP3   OH2 9426   4.966   2.673   1.139
 3162TIP3    H1 9427   4.957   2.679   1.234
 3162TIP3    H2 9428   4.982   2.763   1.110
 3163TIP3   OH2 9429   7.837   0.027   4.146
 3163TIP3    H1 9430   7.863   0.021   4.054
 3163TIP3    H2 9431   7.844   0.120   4.167
 3164TIP3   OH2 9432   4.594   7.615   3.512
 3164TIP3    H1 9433   4.647   7.677   3.462
 3164TIP3    H2 9434   4.585   7.657   3.598
 3165TIP3   OH2 9435   6.586   6.077   4.005
 3165TIP3    H1 9436   6.571   6.139   3.933
 3165TIP3    H2 9437   6.500   6.042   4.025
 3166TIP3   OH2 9438   3.819   1.213   6.725
 3166TIP3    H1 9439   3.754   1.237   6.659
 3166TIP3    H2 9440   3.772   1.152   6.783
 3167TIP3   OH2 9441   3.020   4.571   2.218
 3167TIP3    H1 9442   2.946   4.532   2.171
 3167TIP3    H2 9443   3.026   4.660   2.183
 3168TIP3   OH2 9444   1.621   4.731   0.765
 3168TIP3    H1 9445   1.540   4.710   0.719
 3168TIP3    H2 9446   1.681   4.661   0.739
 3169TIP3   OH2 9447   4.126   1.472   5.005
 3169TIP3    H1 9448   4.208   1.423   5.003
 3169TIP3    H2 9449   4.094   1.463   5.095
 3170TIP3   OH2 9450   4.772   5.614   5.699
 3170TIP3    H1 9451   4.862   5.582   5.705
 3170TIP3    H2 9452   4.749   5.638   5.789
 3171TIP3   OH2 9453   6.399   3.528   6.284
 3171TIP3    H1 9454   6.333   3.579   6.238
 3171TIP3    H2 9455   6.380   3.437   6.260
 3172TIP3   OH2 9456   1.346   4.470   4.451
 3172TIP3    H1 9457   1.253   4.469   4.430
 3172TIP3    H2 9458   1.349   4.469   4.547
 3173TIP3   OH2 9459   5.958   6.034   4.757
 3173TIP3    H1 9460   6.013   5.967   4.716
 3173TIP3    H2 9461   6.020   6.096   4.795
 3174TIP3   OH2 9462   7.274   0.801   2.610
 3174TIP3    H1 9463   7.183   0.806   2.580
 3174TIP3    H2 9464   7.324   0.782   2.530
 3175TIP3   OH2 9465   7.635   2.583   2.445
 3175TIP3    H1 9466   7.621   2.563   2.538
 3175TIP3    H2 9467   7.564   2.538   2.400
 3176TIP3   OH2 9468   5.945   5.618   1.743
 3176TIP3    H1 9469   5.915   5.536   1.706
 3176TIP3    H2 9470   5.875   5.681   1.722
 3177TIP3   OH2 9471   3.663   7.785   0.248
 3177TIP3    H1 9472   3.701   7.873   0.241
 3177TIP3    H2 9473   3.645   7.759   0.157
 3178TIP3   OH2 9474   3.521   3.292   4.472
 3178TIP3    H1 9475   3.546   3.372   4.425
 3178TIP3    H2 9476   3.565   3.222   4.424
 3179TIP3   OH2 9477   1.895   3.882   4.973
 3179TIP3    H1 9478   1.930   3.849   4.891
 3179TIP3    H2 9479   1.963   3.941   5.006
 3180TIP3   OH2 9480   3.353   1.231   2.925
 3180TIP3    H1 9481   3.378   1.297   2.988
 3180TIP3    H2 9482   3.325   1.156   2.978
 3181TIP3   OH2 9483   0.239   0.299   4.627
 3181TIP3    H1 9484   0.218   0.384   4.589
 3181TIP3    H2 9485   0.162   0.245   4.608
 3182TIP3   OH2 9486   0.877   1.688   5.975
 3182TIP3    H1 9487   0.838   1.708   5.890
 3182TIP3    H2 9488   0.835   1.749   6.036
 3183TIP3   OH2 9489   7.464   6.050   4.127
 3183TIP3    H1 9490   7.393   6.013   4.074
 3183TIP3    H2 9491   7.420   6.106   4.190
 3184TIP3   OH2 9492   1.360   4.566   0.890
 3184TIP3    H1 9493   1.356   4.570   0.794
 3184TIP3    H2 9494   1.279   4.521   0.915
 3185TIP3   OH2 9495   2.234   5.173   2.794
 3185TIP3    H1 9496   2.140   5.188   2.796
 3185TIP3    H2 9497   2.262   5.205   2.708
 3186TIP3   OH2 9498   1.731   1.782   2.161
 3186TIP3    H1 9499   1.731   1.864   2.210
 3186TIP3    H2 9500   1.810   1.786   2.107
 3187TIP3   OH2 9501   0.168   0.228   5.858
 3187TIP3    H1 9502   0.223   0.177   5.798
 3187TIP3    H2 9503   0.078   0.202   5.836
 3188TIP3   OH2 9504   1.879   1.865   3.919
 3188TIP3    H1 9505   1.793   1.904   3.931
 3188TIP3    H2 9506   1.885   1.850   3.825
 3189TIP3   OH2 9507   3.617   0.461   2.357
 3189TIP3    H1 9508   3.556   0.485   2.427
 3189TIP3    H2 9509   3.597   0.370   2.338
 3190TIP3   OH2 9510   0.238   5.498   2.296
 3190TIP3    H1 9511   0.172   5.568   2.297
 3190TIP3    H2 9512   0.270   5.497   2.206
 3191TIP3   OH2 9513   0.439   1.433   0.499
 3191TIP3    H1 9514   0.489   1.405   0.576
 3191TIP3    H2 9515   0.414   1.352   0.456
 3192TIP3   OH2 9516   7.453   3.960   4.875
 3192TIP3    H1 9517   7.521   3.981   4.939
 3192TIP3    H2 9518   7.481   4.006   4.796
 3193TIP3   OH2 9519   6.500   3.035   0.646
 3193TIP3    H1 9520   6.451   2.976   0.702
 3193TIP3    H2 9521   6.541   2.978   0.581
 3194TIP3   OH2 9522   7.517   1.390   5.736
 3194TIP3    H1 9523   7.554   1.305   5.712
 3194TIP3    H2 9524   7.523   1.442   5.657
 3195TIP3   OH2 9525   6.646   4.229   4.837
 3195TIP3    H1 9526   6.616   4.139   4.849
 3195TIP3    H2 9527   6.647   4.243   4.743
 3196TIP3   OH2 9528   6.362   5.924   4.060
 3196TIP3    H1 9529   6.344   5.892   3.972
 3196TIP3    H2 9530   6.393   5.847   4.108
 3197TIP3   OH2 9531   7.793   2.319   3.131
 3197TIP3    H1 9532   7.760   2.308   3.220
 3197TIP3    H2 9533   7.839   2.237   3.113
 3198TIP3   OH2 9534   0.934   6.300   0.161
 3198TIP3    H1 9535   0.903   6.339   0.079
 3198TIP3    H2 9536   1.024   6.274   0.142
 3199TIP3   OH2 9537   2.337   6.876   2.396
 3199TIP3    H1 9538   2.309   6.925   2.473
 3199TIP3    H2 9539   2.432   6.867   2.405
 3200TIP3   OH2 9540   1.594   1.884   4.439
 3200TIP3    H1 9541   1.625   1.862   4.527
 3200TIP3    H2 9542   1.609   1.978   4.430
 3201TIP3   OH2 9543   2.005   5.594   4.013
 3201TIP3    H1 9544   2.061   5.655   3.965
 3201TIP3    H2 9545   2.010   5.513   3.962
 3202TIP3   OH2 9546   7.044   2.459   1.138
 3202TIP3    H1 9547   7.042   2.541   1.186
 3202TIP3    H2 9548   6.953   2.443   1.113
 3203TIP3   OH2 9549   7.654   1.838   4.905
 3203TIP3    H1 9550   7.728   1.783   4.877
 3203TIP3    H2 9551   7.678   1.867   4.993
 3204TIP3   OH2 9552   4.639   5.461   1.131
 3204TIP3    H1 9553   4.569   5.508   1.085
 3204TIP3    H2 9554   4.687   5.417   1.061
 3205TIP3   OH2 9555   4.592   1.575   2.586
 3205TIP3    H1 9556   4.651   1.608   2.653
 3205TIP3    H2 9557   4.504   1.596   2.618
 3206TIP3   OH2 9558   7.641   7.278   5.590
 3206TIP3    H1 9559   7.666   7.357   5.637
 3206TIP3    H2 9560   7.641   7.303   5.498
 3207TIP3   OH2 9561   7.838   5.449   2.995
 3207TIP3    H1 9562   7.756   5.437   2.947
 3207TIP3    H2 9563   7.887   5.368   2.978
 3208TIP3   OH2 9564   4.189   1.442   3.607
 3208TIP3    H1 9565   4.235   1.398   3.536
 3208TIP3    H2 9566   4.257   1.461   3.672
 3209TIP3   OH2 9567   6.261   4.353   3.584
 3209TIP3    H1 9568   6.217   4.385   3.505
 3209TIP3    H2 9569   6.190   4.322   3.640
 3210TIP3   OH2 9570   2.690   1.731   3.214
 3210TIP3    H1 9571   2.604   1.695   3.192
 3210TIP3    H2 9572   2.671   1.819   3.246
 3211TIP3   OH2 9573   7.336   4.036   0.433
 3211TIP3    H1 9574   7.348   4.119   0.388
 3211TIP3    H2 9575   7.418   3.989   0.420
 3212TIP3   OH2 9576   1.334   2.954   6.686
 3212TIP3    H1 9577   1.295   3.024   6.738
 3212TIP3    H2 9578   1.276   2.879   6.699
 3213TIP3   OH2 9579   6.384   3.516   2.851
 3213TIP3    H1 9580   6.392   3.496   2.757
 3213TIP3    H2 9581   6.474   3.513   2.884
 3214TIP3   OH2 9582   3.787   3.767   5.571
 3214TIP3    H1 9583   3.808   3.737   5.483
 3214TIP3    H2 9584   3.761   3.688   5.618
 3215TIP3   OH2 9585   3.547   0.769   6.100
 3215TIP3    H1 9586   3.460   0.745   6.132
 3215TIP3    H2 9587   3.595   0.795   6.179
 3216TIP3   OH2 9588   0.992   5.821   3.409
 3216TIP3    H1 9589   1.035   5.799   3.492
 3216TIP3    H2 9590   0.900   5.799   3.423
 3217TIP3   OH2 9591   0.230   7.818   1.620
 3217TIP3    H1 9592   0.237   7.761   1.543
 3217TIP3    H2 9593   0.253   7.761   1.693
 3218TIP3   OH2 9594   2.738   0.213   4.619
 3218TIP3    H1 9595   2.709   0.172   4.537
 3218TIP3    H2 9596   2.831   0.193   4.624
 3219TIP3   OH2 9597   1.737   3.067   5.509
 3219TIP3    H1 9598   1.827   3.071   5.540
 3219TIP3    H2 9599   1.731   3.137   5.444
 3220TIP3   OH2 9600   2.970   7.733   1.329
 3220TIP3    H1 9601   2.997   7.642   1.339
 3220TIP3    H2 9602   3.040   7.784   1.370
 3221TIP3   OH2 9603   7.973   4.681   5.810
 3221TIP3    H1 9604   8.033   4.748   5.777
 3221TIP3    H2 9605   8.026   4.601   5.815
 3222TIP3   OH2 9606   4.719   5.174   5.936
 3222TIP3    H1 9607   4.708   5.238   5.865
 3222TIP3    H2 9608   4.768   5.102   5.896
 3223TIP3   OH2 9609   2.740   4.155   1.184
 3223TIP3    H1 9610   2.821   4.106   1.177
 3223TIP3    H2 9611   2.695   4.141   1.101
 3224TIP3   OH2 9612   5.685   0.855   0.321
 3224TIP3    H1 9613   5.764   0.821   0.280
 3224TIP3    H2 9614   5.642   0.778   0.358
 3225TIP3   OH2 9615   3.234   2.362   1.027
 3225TIP3    H1 9616   3.305   2.425   1.012
 3225TIP3    H2 9617   3.278   2.281   1.052
 3226TIP3   OH2 9618   5.136   5.891   5.178
 3226TIP3    H1 9619   5.085   5.904   5.258
 3226TIP3    H2 9620   5.197   5.821   5.200
 3227TIP3   OH2 9621   0.590   7.255   6.681
 3227TIP3    H1 9622   0.621   7.202   6.607
 3227TIP3    H2 9623   0.670   7.289   6.721
 3228TIP3   OH2 9624   7.558   5.907   5.549
 3228TIP3    H1 9625   7.631   5.969   5.541
 3228TIP3    H2 9626   7.582   5.851   5.622
 3229TIP3   OH2 9627   7.535   2.952   2.739
 3229TIP3    H1 9628   7.560   2.988   2.654
 3229TIP3    H2 9629   7.440   2.939   2.732
 3230TIP3   OH2 9630   3.795   7.565   1.258
 3230TIP3    H1 9631   3.820   7.621   1.331
 3230TIP3    H2 9632   3.773   7.481   1.299
 3231TIP3   OH2 9633   2.056   6.942   6.277
 3231TIP3    H1 9634   2.067   7.025   6.323
 3231TIP3    H2 9635   2.144   6.905   6.272
 3232TIP3   OH2 9636   5.533   4.918   4.761
 3232TIP3    H1 9637   5.523   4.960   4.676
 3232TIP3    H2 9638   5.591   4.976   4.810
 3233TIP3   OH2 9639   7.280   6.148   0.112
 3233TIP3    H1 9640   7.372   6.152   0.086
 3233TIP3    H2 9641   7.232   6.180   0.036
 3234TIP3   OH2 9642   1.330   4.420   6.385
 3234TIP3    H1 9643   1.383   4.498   6.370
 3234TIP3    H2 9644   1.260   4.449   6.444
 3235TIP3   OH2 9645   3.550   2.299   3.175
 3235TIP3    H1 9646   3.594   2.296   3.260
 3235TIP3    H2 9647   3.620   2.286   3.111
 3236TIP3   OH2 9648   2.570   5.971   5.004
 3236TIP3    H1 9649   2.602   6.032   4.938
 3236TIP3    H2 9650   2.536   6.028   5.074
 3237TIP3   OH2 9651   2.915   3.386   6.792
 3237TIP3    H1 9652   2.904   3.321   6.862
 3237TIP3    H2 9653   2.988   3.441   6.822
 3238TIP3   OH2 9654   1.389   2.229   4.560
 3238TIP3    H1 9655   1.434   2.236   4.475
 3238TIP3    H2 9656   1.304   2.189   4.539
 3239TIP3   OH2 9657   7.997   0.061   5.121
 3239TIP3    H1 9658   8.031   0.133   5.068
 3239TIP3    H2 9659   8.040   0.071   5.205
 3240TIP3   OH2 9660   0.828   7.328   0.553
 3240TIP3    H1 9661   0.761   7.263   0.534
 3240TIP3    H2 9662   0.911   7.281   0.543
 3241TIP3   OH2 9663   2.684   0.889   3.226
 3241TIP3    H1 9664   2.740   0.841   3.166
 3241TIP3    H2 9665   2.648   0.823   3.285
 3242TIP3   OH2 9666   7.318   3.506   0.416
 3242TIP3    H1 9667   7.247   3.444   0.397
 3242TIP3    H2 9668   7.311   3.522   0.511
 3243TIP3   OH2 9669   5.127   4.281   3.152
 3243TIP3    H1 9670   5.033   4.263   3.152
 3243TIP3    H2 9671   5.160   4.236   3.230
 3244TIP3   OH2 9672   7.777   5.930   2.076
 3244TIP3    H1 9673   7.748   5.841   2.095
 3244TIP3    H2 9674   7.767   5.938   1.981
 3245TIP3   OH2 9675   1.704   7.462   3.922
 3245TIP3    H1 9676   1.703   7.477   4.017
 3245TIP3    H2 9677   1.635   7.519   3.888
 3246TIP3   OH2 9678   1.261   4.226   4.879
 3246TIP3    H1 9679   1.267   4.134   4.907
 3246TIP3    H2 9680   1.325   4.272   4.934
 3247TIP3   OH2 9681   3.341   4.504   3.591
 3247TIP3    H1 9682   3.257   4.549   3.581
 3247TIP3    H2 9683   3.341   4.472   3.681
 3248TIP3   OH2 9684   4.324   6.874   4.810
 3248TIP3    H1 9685   4.269   6.881   4.731
 3248TIP3    H2 9686   4.266   6.901   4.881
 3249TIP3   OH2 9687   1.397   2.273   3.624
 3249TIP3    H1 9688   1.487   2.242   3.633
 3249TIP3    H2 9689   1.353   2.242   3.703
 3250TIP3   OH2 9690   6.530   5.170   3.974
 3250TIP3    H1 9691   6.554   5.089   3.930
 3250TIP3    H2 9692   6.452   5.148   4.024
 3251TIP3   OH2 9693   5.942   0.225   4.870
 3251TIP3    H1 9694   5.963   0.157   4.934
 3251TIP3    H2 9695   5.957   0.307   4.917
 3252TIP3   OH2 9696   1.136   6.972   1.825
 3252TIP3    H1 9697   1.069   6.964   1.757
 3252TIP3    H2 9698   1.218   6.981   1.776
 3253TIP3   OH2 9699   8.309   4.233   5.544
 3253TIP3    H1 9700   8.403   4.228   5.526
 3253TIP3    H2 9701   8.301   4.206   5.636
 3254TIP3   OH2 9702   5.901   4.437   2.610
 3254TIP3    H1 9703   5.906   4.403   2.520
 3254TIP3    H2 9704   5.877   4.361   2.663
 3255TIP3   OH2 9705   4.863   0.877   3.370
 3255TIP3    H1 9706   4.774   0.880   3.405
 3255TIP3    H2 9707   4.858   0.814   3.298
 3256TIP3   OH2 9708   7.505   1.199   3.097
 3256TIP3    H1 9709   7.540   1.110   3.099
 3256TIP3    H2 9710   7.509   1.228   3.188
 3257TIP3   OH2 9711   0.187   0.676   6.014
 3257TIP3    H1 9712   0.207   0.671   6.107
 3257TIP3    H2 9713   0.166   0.586   5.989
 3258TIP3   OH2 9714   8.143   3.836   6.306
 3258TIP3    H1 9715   8.221   3.868   6.351
 3258TIP3    H2 9716   8.098   3.915   6.277
 3259TIP3   OH2 9717   7.583   6.567   0.213
 3259TIP3    H1 9718   7.488   6.557   0.219
 3259TIP3    H2 9719   7.614   6.485   0.175
 3260TIP3   OH2 9720   7.145   5.643   1.972
 3260TIP3    H1 9721   7.055   5.666   1.950
 3260TIP3    H2 9722   7.198   5.685   1.904
 3261TIP3   OH2 9723   3.604   5.176   6.196
 3261TIP3    H1 9724   3.598   5.103   6.133
 3261TIP3    H2 9725   3.524   5.169   6.247
 3262TIP3   OH2 9726   6.263   5.878   0.754
 3262TIP3    H1 9727   6.339   5.936   0.764
 3262TIP3    H2 9728   6.289   5.798   0.799
 3263TIP3   OH2 9729   7.253   1.353   1.869
 3263TIP3    H1 9730   7.265   1.373   1.962
 3263TIP3    H2 9731   7.273   1.260   1.861
 3264TIP3   OH2 9732   1.715   0.553   2.723
 3264TIP3    H1 9733   1.779   0.621   2.748
 3264TIP3    H2 9734   1.636   0.575   2.773
 3265TIP3   OH2 9735   6.002   4.632   5.591
 3265TIP3    H1 9736   5.955   4.564   5.640
 3265TIP3    H2 9737   6.084   4.591   5.565
 3266TIP3   OH2 9738   0.275   0.737   3.050
 3266TIP3    H1 9739   0.310   0.649   3.067
 3266TIP3    H2 9740   0.187   0.721   3.015
 3267TIP3   OH2 9741   2.153   2.554   3.716
 3267TIP3    H1 9742   2.098   2.603   3.777
 3267TIP3    H2 9743   2.192   2.485   3.769
 3268TIP3   OH2 9744   2.444   4.797   1.373
 3268TIP3    H1 9745   2.437   4.821   1.280
 3268TIP3    H2 9746   2.461   4.703   1.372
 3269TIP3   OH2 9747   6.215   7.915   5.877
 3269TIP3    H1 9748   6.282   7.981   5.891
 3269TIP3    H2 9749   6.257   7.833   5.902
 3270TIP3   OH2 9750   2.763   2.423   0.353
 3270TIP3    H1 9751   2.760   2.424   0.449
 3270TIP3    H2 9752   2.772   2.330   0.330
 3271TIP3   OH2 9753   7.244   2.192   2.401
 3271TIP3    H1 9754   7.186   2.266   2.381
 3271TIP3    H2 9755   7.198   2.116   2.366
 3272TIP3   OH2 9756   8.291   0.170   6.427
 3272TIP3    H1 9757   8.317   0.079   6.438
 3272TIP3    H2 9758   8.210   0.166   6.376
 3273TIP3   OH2 9759   5.482   1.514   5.808
 3273TIP3    H1 9760   5.458   1.569   5.734
 3273TIP3    H2 9761   5.578   1.518   5.812
 3274TIP3   OH2 9762   7.825   5.304   1.329
 3274TIP3    H1 9763   7.914   5.287   1.298
 3274TIP3    H2 9764   7.771   5.241   1.283
 3275TIP3   OH2 9765   1.758   2.081   1.146
 3275TIP3    H1 9766   1.793   2.100   1.233
 3275TIP3    H2 9767   1.734   2.167   1.111
 3276TIP3   OH2 9768   2.851   4.366   3.957
 3276TIP3    H1 9769   2.776   4.416   3.925
 3276TIP3    H2 9770   2.816   4.277   3.969
 3277TIP3   OH2 9771   7.210   3.817   2.466
 3277TIP3    H1 9772   7.127   3.817   2.513
 3277TIP3    H2 9773   7.242   3.907   2.474
 3278TIP3   OH2 9774   1.588   5.418   3.275
 3278TIP3    H1 9775   1.661   5.411   3.336
 3278TIP3    H2 9776   1.576   5.512   3.263
 3279TIP3   OH2 9777   4.496   1.757   3.992
 3279TIP3    H1 9778   4.531   1.828   3.939
 3279TIP3    H2 9779   4.548   1.680   3.967
 3280TIP3   OH2 9780   2.271   2.343   0.342
 3280TIP3    H1 9781   2.340   2.316   0.282
 3280TIP3    H2 9782   2.271   2.438   0.338
 3281TIP3   OH2 9783   2.789   2.080   1.709
 3281TIP3    H1 9784   2.884   2.087   1.710
 3281TIP3    H2 9785   2.760   2.135   1.782
 3282TIP3   OH2 9786   1.771   0.652   2.268
 3282TIP3    H1 9787   1.805   0.563   2.272
 3282TIP3    H2 9788   1.848   0.706   2.249
 3283TIP3   OH2 9789   1.117   7.817   5.913
 3283TIP3    H1 9790   1.182   7.754   5.945
 3283TIP3    H2 9791   1.167   7.875   5.855
 3284TIP3   OH2 9792   6.688   5.013   4.613
 3284TIP3    H1 9793   6.659   5.040   4.700
 3284TIP3    H2 9794   6.750   5.081   4.587
 3285TIP3   OH2 9795   4.401   7.030   0.238
 3285TIP3    H1 9796   4.477   7.065   0.285
 3285TIP3    H2 9797   4.327   7.076   0.278
 3286TIP3   OH2 9798   5.382   6.695   6.361
 3286TIP3    H1 9799   5.311   6.721   6.420
 3286TIP3    H2 9800   5.393   6.601   6.376
 3287TIP3   OH2 9801   7.284   1.731   5.517
 3287TIP3    H1 9802   7.247   1.687   5.593
 3287TIP3    H2 9803   7.210   1.776   5.476
 3288TIP3   OH2 9804   1.441   1.500   3.367
 3288TIP3    H1 9805   1.465   1.408   3.355
 3288TIP3    H2 9806   1.358   1.509   3.318
 3289TIP3   OH2 9807   5.571   4.075   5.488
 3289TIP3    H1 9808   5.520   4.033   5.419
 3289TIP3    H2 9809   5.539   4.036   5.569
 3290TIP3   OH2 9810   7.107   1.181   4.283
 3290TIP3    H1 9811   7.040   1.244   4.310
 3290TIP3    H2 9812   7.175   1.187   4.350
 3291TIP3   OH2 9813   6.177   6.428   2.541
 3291TIP3    H1 9814   6.221   6.491   2.484
 3291TIP3    H2 9815   6.084   6.439   2.523
 3292TIP3   OH2 9816   3.034   1.080   2.603
 3292TIP3    H1 9817   3.115   1.047   2.565
 3292TIP3    H2 9818   2.977   1.099   2.528
 3293TIP3   OH2 9819   7.140   7.378   4.914
 3293TIP3    H1 9820   7.062   7.400   4.965
 3293TIP3    H2 9821   7.155   7.285   4.932
 3294TIP3   OH2 9822   1.805   5.854   1.492
 3294TIP3    H1 9823   1.738   5.884   1.430
 3294TIP3    H2 9824   1.768   5.775   1.531
 3295TIP3   OH2 9825   3.302   6.516   3.827
 3295TIP3    H1 9826   3.236   6.533   3.893
 3295TIP3    H2 9827   3.356   6.595   3.825
 3296TIP3   OH2 9828   5.399   5.180   1.825
 3296TIP3    H1 9829   5.359   5.094   1.818
 3296TIP3    H2 9830   5.375   5.210   1.913
 3297TIP3   OH2 9831   1.709   6.267   1.733
 3297TIP3    H1 9832   1.722   6.173   1.723
 3297TIP3    H2 9833   1.628   6.285   1.686
 3298TIP3   OH2 9834   1.213   6.727   3.167
 3298TIP3    H1 9835   1.119   6.712   3.171
 3298TIP3    H2 9836   1.247   6.656   3.111
 3299TIP3   OH2 9837   6.470   5.766   5.497
 3299TIP3    H1 9838   6.382   5.784   5.464
 3299TIP3    H2 9839   6.529   5.814   5.438
 3300TIP3   OH2 9840   3.587   6.962   3.673
 3300TIP3    H1 9841   3.543   6.951   3.589
 3300TIP3    H2 9842   3.556   7.046   3.706
 3301TIP3   OH2 9843   6.425   1.998   0.247
 3301TIP3    H1 9844   6.346   1.994   0.300
 3301TIP3    H2 9845   6.458   1.908   0.246
 3302TIP3   OH2 9846   4.503   2.548   3.938
 3302TIP3    H1 9847   4.431   2.601   3.974
 3302TIP3    H2 9848   4.530   2.492   4.011
 3303TIP3   OH2 9849   3.112   7.293   3.934
 3303TIP3    H1 9850   3.157   7.373   3.962
 3303TIP3    H2 9851   3.019   7.311   3.949
 3304TIP3   OH2 9852   0.364   2.256   5.462
 3304TIP3    H1 9853   0.330   2.177   5.420
 3304TIP3    H2 9854   0.414   2.223   5.537
 3305TIP3   OH2 9855   3.234   2.734   4.330
 3305TIP3    H1 9856   3.297   2.788   4.377
 3305TIP3    H2 9857   3.207   2.668   4.394
 3306TIP3   OH2 9858   1.010   6.387   4.199
 3306TIP3    H1 9859   0.922   6.356   4.224
 3306TIP3    H2 9860   0.997   6.434   4.117
 3307TIP3   OH2 9861   6.642   3.672   1.505
 3307TIP3    H1 9862   6.689   3.643   1.584
 3307TIP3    H2 9863   6.680   3.758   1.485
 3308TIP3   OH2 9864   6.005   2.252   1.806
 3308TIP3    H1 9865   6.045   2.196   1.739
 3308TIP3    H2 9866   5.994   2.194   1.882
 3309TIP3   OH2 9867   1.892   5.400   2.362
 3309TIP3    H1 9868   1.932   5.468   2.417
 3309TIP3    H2 9869   1.809   5.380   2.406
 3310TIP3   OH2 9870   7.035   2.461   0.854
 3310TIP3    H1 9871   6.942   2.453   0.878
 3310TIP3    H2 9872   7.082   2.450   0.936
 3311TIP3   OH2 9873   6.832   0.853   5.160
 3311TIP3    H1 9874   6.891   0.928   5.154
 3311TIP3    H2 9875   6.787   0.864   5.243
 3312TIP3   OH2 9876   7.142   2.995   3.708
 3312TIP3    H1 9877   7.218   2.961   3.755
 3312TIP3    H2 9878   7.106   3.063   3.764
 3313TIP3   OH2 9879   5.142   1.132   1.553
 3313TIP3    H1 9880   5.164   1.055   1.605
 3313TIP3    H2 9881   5.062   1.108   1.507
 3314TIP3   OH2 9882   3.119   7.068   4.739
 3314TIP3    H1 9883   3.087   7.052   4.827
 3314TIP3    H2 9884   3.142   6.981   4.705
 3315TIP3   OH2 9885   8.247   7.103   1.633
 3315TIP3    H1 9886   8.259   7.037   1.564
 3315TIP3    H2 9887   8.323   7.093   1.690
 3316TIP3   OH2 9888   4.511   5.028   2.419
 3316TIP3    H1 9889   4.484   4.977   2.343
 3316TIP3    H2 9890   4.564   4.967   2.471
 3317TIP3   OH2 9891   2.100   1.819   6.322
 3317TIP3    H1 9892   2.056   1.817   6.237
 3317TIP3    H2 9893   2.124   1.910   6.335
 3318TIP3   OH2 9894   1.420   5.964   6.095
 3318TIP3    H1 9895   1.448   6.044   6.139
 3318TIP3    H2 9896   1.500   5.930   6.055
 3319TIP3   OH2 9897   4.510   2.327   4.131
 3319TIP3    H1 9898   4.416   2.319   4.114
 3319TIP3    H2 9899   4.526   2.269   4.206
 3320TIP3   OH2 9900   2.929   0.339   4.905
 3320TIP3    H1 9901   2.836   0.364   4.900
 3320TIP3    H2 9902   2.975   0.421   4.919
 3321TIP3   OH2 9903   0.183   2.663   6.290
 3321TIP3    H1 9904   0.244   2.735   6.308
 3321TIP3    H2 9905   0.105   2.684   6.341
 3322TIP3   OH2 9906   1.005   2.783   3.320
 3322TIP3    H1 9907   0.931   2.726   3.340
 3322TIP3    H2 9908   1.014   2.779   3.225
 3323TIP3   OH2 9909   3.981   2.199   0.555
 3323TIP3    H1 9910   3.974   2.160   0.642
 3323TIP3    H2 9911   3.924   2.146   0.500
 3324TIP3   OH2 9912   4.391   2.233   6.626
 3324TIP3    H1 9913   4.399   2.138   6.627
 3324TIP3    H2 9914   4.324   2.253   6.691
 3325TIP3   OH2 9915   0.052   0.397   4.302
 3325TIP3    H1 9916   0.069   0.371   4.212
 3325TIP3    H2 9917   0.127   0.450   4.327
 3326TIP3   OH2 9918   0.730   5.682   1.981
 3326TIP3    H1 9919   0.685   5.749   2.033
 3326TIP3    H2 9920   0.751   5.725   1.899
 3327TIP3   OH2 9921   8.144   3.338   5.240
 3327TIP3    H1 9922   8.080   3.338   5.311
 3327TIP3    H2 9923   8.124   3.259   5.189
 3328TIP3   OH2 9924   8.265   0.233   0.208
 3328TIP3    H1 9925   8.256   0.139   0.191
 3328TIP3    H2 9926   8.180   0.269   0.185
 3329TIP3   OH2 9927   5.679   2.640   3.311
 3329TIP3    H1 9928   5.618   2.694   3.360
 3329TIP3    H2 9929   5.685   2.558   3.360
 3330TIP3   OH2 9930   8.257   0.673   5.435
 3330TIP3    H1 9931   8.269   0.765   5.409
 3330TIP3    H2 9932   8.307   0.665   5.516
 3331TIP3   OH2 9933   5.591   4.914   6.133
 3331TIP3    H1 9934   5.536   4.843   6.099
 3331TIP3    H2 9935   5.680   4.883   6.121
 3332TIP3   OH2 9936   0.478   3.253   2.113
 3332TIP3    H1 9937   0.539   3.202   2.166
 3332TIP3    H2 9938   0.432   3.188   2.060
 3333TIP3   OH2 9939   5.592   5.177   5.534
 3333TIP3    H1 9940   5.663   5.220   5.582
 3333TIP3    H2 9941   5.513   5.203   5.581
 3334TIP3   OH2 9942   5.198   1.633   3.229
 3334TIP3    H1 9943   5.289   1.628   3.258
 3334TIP3    H2 9944   5.176   1.542   3.206
 3335TIP3   OH2 9945   1.568   2.434   3.338
 3335TIP3    H1 9946   1.603   2.415   3.250
 3335TIP3    H2 9947   1.608   2.369   3.394
 3336TIP3   OH2 9948   1.388   5.846   1.120
 3336TIP3    H1 9949   1.347   5.932   1.112
 3336TIP3    H2 9950   1.323   5.792   1.164
 3337TIP3   OH2 9951   3.796   6.086   4.392
 3337TIP3    H1 9952   3.716   6.106   4.343
 3337TIP3    H2 9953   3.819   6.169   4.435
 3338TIP3   OH2 9954   4.139   2.928   3.101
 3338TIP3    H1 9955   4.194   2.977   3.163
 3338TIP3    H2 9956   4.063   2.984   3.087
 3339TIP3   OH2 9957   4.543   7.808   3.672
 3339TIP3    H1 9958   4.566   7.896   3.700
 3339TIP3    H2 9959   4.449   7.813   3.651
 3340TIP3   OH2 9960   3.662   4.305   3.670
 3340TIP3    H1 9961   3.719   4.233   3.641
 3340TIP3    H2 9962   3.574   4.267   3.670
 3341TIP3   OH2 9963   2.597   4.180   6.745
 3341TIP3    H1 9964   2.687   4.185   6.778
 3341TIP3    H2 9965   2.597   4.235   6.667
 3342TIP3   OH2 9966   4.960   4.268   3.857
 3342TIP3    H1 9967   4.983   4.177   3.876
 3342TIP3    H2 9968   5.028   4.298   3.797
 3343TIP3   OH2 9969   1.969   7.337   6.501
 3343TIP3    H1 9970   1.898   7.275   6.512
 3343TIP3    H2 9971   2.048   7.282   6.494
 3344TIP3   OH2 9972   8.109   5.398   5.687
 3344TIP3    H1 9973   8.128   5.311   5.722
 3344TIP3    H2 9974   8.108   5.455   5.764
 3345TIP3   OH2 9975   0.223   1.765   4.578
 3345TIP3    H1 9976   0.197   1.797   4.491
 3345TIP3    H2 9977   0.150   1.788   4.635
 3346TIP3   OH2 9978   0.476   6.750   2.626
 3346TIP3    H1 9979   0.528   6.761   2.547
 3346TIP3    H2 9980   0.402   6.696   2.599
 3347TIP3   OH2 9981   6.852   4.698   4.820
 3347TIP3    H1 9982   6.942   4.678   4.846
 3347TIP3    H2 9983   6.855   4.703   4.725
 3348TIP3   OH2 9984   5.752   6.402   5.155
 3348TIP3    H1 9985   5.798   6.380   5.235
 3348TIP3    H2 9986   5.788   6.342   5.089
 3349TIP3   OH2 9987   0.717   1.257   0.107
 3349TIP3    H1 9988   0.763   1.241   0.025
 3349TIP3    H2 9989   0.787   1.266   0.172
 3350TIP3   OH2 9990   4.871   0.508   4.984
 3350TIP3    H1 9991   4.883   0.485   4.892
 3350TIP3    H2 9992   4.960   0.524   5.016
 3351TIP3   OH2 9993   2.159   2.359   3.286
 3351TIP3    H1 9994   2.163   2.442   3.334
 3351TIP3    H2 9995   2.195   2.294   3.347
 3352TIP3   OH2 9996   1.148   4.336   0.959
 3352TIP3    H1 9997   1.088   4.345   0.885
 3352TIP3    H2 9998   1.102   4.278   1.020
 3353TIP3   OH2 9999   3.517   2.634   0.305
 3353TIP3    H110000   3.572   2.643   0.227
 3353TIP3    H210001   3.578   2.643   0.378
 3354TIP3   OH210002   3.113   6.190   6.678
 3354TIP3    H110003   3.037   6.133   6.669
 3354TIP3    H210004   3.183   6.132   6.706
 3355TIP3   OH210005   1.118   4.787   5.062
 3355TIP3    H110006   1.099   4.879   5.079
 3355TIP3    H210007   1.045   4.739   5.100
 3356TIP3   OH210008   4.819   5.840   2.440
 3356TIP3    H110009   4.899   5.881   2.473
 3356TIP3    H210010   4.850   5.781   2.371
 3357TIP3   OH210011   6.245   1.522   1.453
 3357TIP3    H110012   6.160   1.479   1.449
 3357TIP3    H210013   6.243   1.587   1.383
 3358TIP3   OH210014   0.757   0.359   6.314
 3358TIP3    H110015   0.662   0.371   6.311
 3358TIP3    H210016   0.770   0.268   6.290
 3359TIP3   OH210017   5.229   0.773   5.824
 3359TIP3    H110018   5.267   0.839   5.883
 3359TIP3    H210019   5.305   0.724   5.792
 3360TIP3   OH210020   5.987   2.571   4.036
 3360TIP3    H110021   5.894   2.586   4.018
 3360TIP3    H210022   6.033   2.627   3.973
 3361TIP3   OH210023   6.512   0.190   1.256
 3361TIP3    H110024   6.516   0.262   1.193
 3361TIP3    H210025   6.555   0.117   1.212
 3362TIP3   OH210026   2.285   5.930   5.668
 3362TIP3    H110027   2.218   5.983   5.626
 3362TIP3    H210028   2.277   5.844   5.628
 3363TIP3   OH210029   1.756   1.493   1.584
 3363TIP3    H110030   1.746   1.411   1.633
 3363TIP3    H210031   1.845   1.521   1.602
 3364TIP3   OH210032   0.030   3.884   1.254
 3364TIP3    H110033   0.120   3.915   1.247
 3364TIP3    H210034  -0.022   3.953   1.212
 3365TIP3   OH210035   5.995   7.795   4.584
 3365TIP3    H110036   6.072   7.808   4.528
 3365TIP3    H210037   6.026   7.813   4.672
 3366TIP3   OH210038   5.838   1.401   1.625
 3366TIP3    H110039   5.775   1.366   1.562
 3366TIP3    H210040   5.906   1.333   1.631
 3367TIP3   OH210041   0.032   2.421   2.722
 3367TIP3    H110042   0.083   2.497   2.693
 3367TIP3    H210043  -0.051   2.459   2.752
 3368TIP3   OH210044   1.820   6.902   4.316
 3368TIP3    H110045   1.884   6.911   4.387
 3368TIP3    H210046   1.746   6.955   4.344
 3369TIP3   OH210047   6.392   0.348   3.831
 3369TIP3    H110048   6.336   0.279   3.866
 3369TIP3    H210049   6.391   0.416   3.899
 3370TIP3   OH210050   8.030   4.666   6.635
 3370TIP3    H110051   8.090   4.687   6.564
 3370TIP3    H210052   7.980   4.591   6.602
 3371TIP3   OH210053   4.724   5.148   5.416
 3371TIP3    H110054   4.729   5.242   5.427
 3371TIP3    H210055   4.800   5.114   5.463
 3372TIP3   OH210056   1.530   0.109   1.527
 3372TIP3    H110057   1.571   0.040   1.580
 3372TIP3    H210058   1.442   0.117   1.563
 3373TIP3   OH210059   3.530   2.044   4.622
 3373TIP3    H110060   3.577   2.121   4.655
 3373TIP3    H210061   3.486   2.075   4.543
 3374TIP3   OH210062   4.344   0.707   0.797
 3374TIP3    H110063   4.393   0.631   0.830
 3374TIP3    H210064   4.253   0.679   0.797
 3375TIP3   OH210065   5.849   7.685   6.459
 3375TIP3    H110066   5.932   7.639   6.451
 3375TIP3    H210067   5.783   7.618   6.446
 3376TIP3   OH210068   6.247   0.238   5.913
 3376TIP3    H110069   6.315   0.170   5.918
 3376TIP3    H210070   6.195   0.226   5.993
 3377TIP3   OH210071   0.818   3.927   6.149
 3377TIP3    H110072   0.795   3.983   6.075
 3377TIP3    H210073   0.864   3.986   6.209
 3378TIP3   OH210074   7.501   4.716   1.126
 3378TIP3    H110075   7.424   4.773   1.131
 3378TIP3    H210076   7.549   4.748   1.050
 3379TIP3   OH210077   2.883   4.137   6.702
 3379TIP3    H110078   2.959   4.191   6.680
 3379TIP3    H210079   2.881   4.070   6.634
 3380TIP3   OH210080   6.631   4.532   1.020
 3380TIP3    H110081   6.644   4.627   1.023
 3380TIP3    H210082   6.626   4.511   0.927
 3381TIP3   OH210083   0.971   1.717   3.649
 3381TIP3    H110084   0.911   1.742   3.579
 3381TIP3    H210085   0.922   1.733   3.730
 3382TIP3   OH210086   8.316   0.387   4.862
 3382TIP3    H110087   8.282   0.432   4.785
 3382TIP3    H210088   8.272   0.430   4.936
 3383TIP3   OH210089   4.279   2.791   0.402
 3383TIP3    H110090   4.229   2.872   0.387
 3383TIP3    H210091   4.242   2.755   0.482
 3384TIP3   OH210092   7.375   4.030   4.286
 3384TIP3    H110093   7.286   4.034   4.252
 3384TIP3    H210094   7.379   4.100   4.352
 3385TIP3   OH210095   0.633  -0.003   4.665
 3385TIP3    H110096   0.671   0.033   4.745
 3385TIP3    H210097   0.599   0.074   4.619
 3386TIP3   OH210098   5.157   2.267   1.585
 3386TIP3    H110099   5.252   2.276   1.578
 3386TIP3    H210100   5.131   2.223   1.504
 3387TIP3   OH210101   7.165   4.716   3.469
 3387TIP3    H110102   7.141   4.719   3.376
 3387TIP3    H210103   7.174   4.807   3.495
 3388TIP3   OH210104   5.539   3.729   1.900
 3388TIP3    H110105   5.531   3.766   1.812
 3388TIP3    H210106   5.580   3.798   1.952
 3389TIP3   OH210107   3.696   2.824   3.060
 3389TIP3    H110108   3.643   2.863   3.129
 3389TIP3    H210109   3.634   2.804   2.990
 3390TIP3   OH210110   7.328   0.090   5.479
 3390TIP3    H110111   7.324   0.148   5.403
 3390TIP3    H210112   7.299   0.144   5.552
 3391TIP3   OH210113   2.411   3.966   6.173
 3391TIP3    H110114   2.382   3.999   6.258
 3391TIP3    H210115   2.339   3.986   6.114
 3392TIP3   OH210116   2.126   4.583   2.048
 3392TIP3    H110117   2.052   4.580   1.986
 3392TIP3    H210118   2.110   4.662   2.100
 3393TIP3   OH210119   6.716   2.336   6.121
 3393TIP3    H110120   6.700   2.244   6.142
 3393TIP3    H210121   6.712   2.381   6.206
 3394TIP3   OH210122   1.627   4.001   3.462
 3394TIP3    H110123   1.677   3.998   3.380
 3394TIP3    H210124   1.652   3.922   3.509
 3395TIP3   OH210125   0.384   2.473   3.518
 3395TIP3    H110126   0.363   2.531   3.445
 3395TIP3    H210127   0.386   2.386   3.481
 3396TIP3   OH210128   2.121   0.650   3.934
 3396TIP3    H110129   2.134   0.621   4.025
 3396TIP3    H210130   2.210   0.652   3.897
 3397TIP3   OH210131   3.066   4.232   5.181
 3397TIP3    H110132   3.075   4.161   5.118
 3397TIP3    H210133   3.004   4.199   5.245
 3398TIP3   OH210134   4.244   4.616   6.845
 3398TIP3    H110135   4.230   4.548   6.779
 3398TIP3    H210136   4.272   4.693   6.794
 3399TIP3   OH210137   3.522   5.034   3.045
 3399TIP3    H110138   3.516   4.971   3.117
 3399TIP3    H210139   3.472   4.994   2.974
 3400TIP3   OH210140   8.276   0.660   4.132
 3400TIP3    H110141   8.281   0.747   4.092
 3400TIP3    H210142   8.318   0.602   4.068
 3401TIP3   OH210143   3.223   5.115   0.137
 3401TIP3    H110144   3.189   5.126   0.048
 3401TIP3    H210145   3.160   5.057   0.180
 3402TIP3   OH210146   2.391   3.840   0.259
 3402TIP3    H110147   2.408   3.764   0.316
 3402TIP3    H210148   2.300   3.829   0.231
 3403TIP3   OH210149   2.613   7.129   1.652
 3403TIP3    H110150   2.575   7.161   1.570
 3403TIP3    H210151   2.658   7.205   1.689
 3404TIP3   OH210152   0.969   7.812   4.977
 3404TIP3    H110153   0.909   7.837   4.907
 3404TIP3    H210154   0.917   7.822   5.057
 3405TIP3   OH210155   1.002   0.118   2.985
 3405TIP3    H110156   0.973   0.041   2.935
 3405TIP3    H210157   1.020   0.084   3.073
 3406TIP3   OH210158   1.962   4.826   0.021
 3406TIP3    H110159   1.952   4.854   0.112
 3406TIP3    H210160   2.055   4.836   0.003
 3407TIP3   OH210161   0.386   3.135   4.364
 3407TIP3    H110162   0.398   3.194   4.289
 3407TIP3    H210163   0.464   3.148   4.417
 3408TIP3   OH210164   7.989   3.768   1.036
 3408TIP3    H110165   8.084   3.778   1.043
 3408TIP3    H210166   7.954   3.842   1.086
 3409TIP3   OH210167   7.195   0.806   4.642
 3409TIP3    H110168   7.150   0.856   4.574
 3409TIP3    H210169   7.218   0.724   4.600
 3410TIP3   OH210170   3.587   5.585   1.688
 3410TIP3    H110171   3.588   5.492   1.708
 3410TIP3    H210172   3.494   5.609   1.688
 3411TIP3   OH210173   6.355   2.449   2.483
 3411TIP3    H110174   6.340   2.455   2.577
 3411TIP3    H210175   6.449   2.435   2.474
 3412TIP3   OH210176   3.638   2.698   6.809
 3412TIP3    H110177   3.581   2.646   6.753
 3412TIP3    H210178   3.579   2.740   6.871
 3413TIP3   OH210179   5.392   1.945   4.827
 3413TIP3    H110180   5.313   1.893   4.842
 3413TIP3    H210181   5.387   1.970   4.734
 3414TIP3   OH210182   2.883   7.689   4.286
 3414TIP3    H110183   2.827   7.657   4.215
 3414TIP3    H210184   2.841   7.657   4.365
 3415TIP3   OH210185   4.643   3.237   1.282
 3415TIP3    H110186   4.636   3.310   1.343
 3415TIP3    H210187   4.691   3.170   1.330
 3416TIP3   OH210188   5.249   3.568   0.725
 3416TIP3    H110189   5.227   3.661   0.715
 3416TIP3    H210190   5.229   3.548   0.816
 3417TIP3   OH210191   7.761   7.354   1.208
 3417TIP3    H110192   7.741   7.447   1.204
 3417TIP3    H210193   7.815   7.344   1.286
 3418TIP3   OH210194   6.163   2.336   0.885
 3418TIP3    H110195   6.219   2.258   0.876
 3418TIP3    H210196   6.212   2.393   0.945
 3419TIP3   OH210197   7.404   5.684   4.000
 3419TIP3    H110198   7.372   5.773   3.991
 3419TIP3    H210199   7.482   5.681   3.944
 3420TIP3   OH210200   7.500   7.573   1.908
 3420TIP3    H110201   7.421   7.623   1.927
 3420TIP3    H210202   7.559   7.593   1.980
 3421TIP3   OH210203   2.910   5.803   2.045
 3421TIP3    H110204   2.939   5.720   2.083
 3421TIP3    H210205   2.905   5.786   1.951
 3422TIP3   OH210206   6.635   6.115   5.686
 3422TIP3    H110207   6.633   6.140   5.779
 3422TIP3    H210208   6.714   6.158   5.652
 3423TIP3   OH210209   7.026   5.554   3.814
 3423TIP3    H110210   6.964   5.552   3.887
 3423TIP3    H210211   7.112   5.563   3.856
 3424TIP3   OH210212   5.036   0.936   0.726
 3424TIP3    H110213   5.074   0.851   0.748
 3424TIP3    H210214   5.085   0.965   0.649
 3425TIP3   OH210215   0.299   4.717   2.804
 3425TIP3    H110216   0.301   4.743   2.896
 3425TIP3    H210217   0.306   4.621   2.807
 3426TIP3   OH210218   0.541   0.686   4.162
 3426TIP3    H110219   0.550   0.723   4.250
 3426TIP3    H210220   0.620   0.634   4.149
 3427TIP3   OH210221   0.561   3.925   4.768
 3427TIP3    H110222   0.600   3.840   4.790
 3427TIP3    H210223   0.571   3.977   4.848
 3428TIP3   OH210224   7.145   1.897   6.372
 3428TIP3    H110225   7.172   1.980   6.335
 3428TIP3    H210226   7.103   1.920   6.455
 3429TIP3   OH210227   6.039   2.446   6.256
 3429TIP3    H110228   6.120   2.484   6.223
 3429TIP3    H210229   6.063   2.357   6.282
 3430TIP3   OH210230   0.312   7.049   6.488
 3430TIP3    H110231   0.325   7.117   6.422
 3430TIP3    H210232   0.349   7.085   6.568
 3431TIP3   OH210233   2.618   3.433   5.517
 3431TIP3    H110234   2.536   3.398   5.552
 3431TIP3    H210235   2.665   3.355   5.487
 3432TIP3   OH210236   1.356   7.671   6.445
 3432TIP3    H110237   1.385   7.646   6.357
 3432TIP3    H210238   1.437   7.685   6.493
 3433TIP3   OH210239   5.798   4.701   3.721
 3433TIP3    H110240   5.805   4.779   3.667
 3433TIP3    H210241   5.708   4.702   3.754
 3434TIP3   OH210242   6.588   6.579   2.116
 3434TIP3    H110243   6.553   6.514   2.178
 3434TIP3    H210244   6.517   6.594   2.054
 3435TIP3   OH210245   6.877   2.093   6.697
 3435TIP3    H110246   6.830   2.092   6.614
 3435TIP3    H210247   6.967   2.067   6.674
 3436TIP3   OH210248   3.799   5.161   6.389
 3436TIP3    H110249   3.767   5.150   6.299
 3436TIP3    H210250   3.720   5.154   6.443
 3437TIP3   OH210251   2.826   6.109   4.564
 3437TIP3    H110252   2.868   6.064   4.637
 3437TIP3    H210253   2.774   6.041   4.520
 3438TIP3   OH210254   6.266   4.825   1.014
 3438TIP3    H110255   6.278   4.759   1.081
 3438TIP3    H210256   6.319   4.794   0.940
 3439TIP3   OH210257   4.343   2.893   3.958
 3439TIP3    H110258   4.284   2.824   3.929
 3439TIP3    H210259   4.386   2.857   4.036
 3440TIP3   OH210260   2.917   6.811   5.612
 3440TIP3    H110261   2.974   6.735   5.599
 3440TIP3    H210262   2.920   6.858   5.529
 3441TIP3   OH210263   5.633   2.382   3.411
 3441TIP3    H110264   5.565   2.374   3.344
 3441TIP3    H210265   5.586   2.377   3.494
 3442TIP3   OH210266   6.417   6.344   0.348
 3442TIP3    H110267   6.430   6.357   0.442
 3442TIP3    H210268   6.455   6.423   0.308
 3443TIP3   OH210269   7.871   7.700   3.006
 3443TIP3    H110270   7.784   7.740   3.019
 3443TIP3    H210271   7.929   7.753   3.060
 3444TIP3   OH210272   7.365   0.692   4.145
 3444TIP3    H110273   7.313   0.698   4.064
 3444TIP3    H210274   7.378   0.783   4.171
 3445TIP3   OH210275   2.098   4.760   0.275
 3445TIP3    H110276   2.144   4.843   0.260
 3445TIP3    H210277   2.156   4.711   0.333
 3446TIP3   OH210278   6.500   5.047   0.570
 3446TIP3    H110279   6.467   4.957   0.565
 3446TIP3    H210280   6.526   5.069   0.481
 3447TIP3   OH210281   5.878   4.200   4.472
 3447TIP3    H110282   5.954   4.146   4.450
 3447TIP3    H210283   5.914   4.288   4.480
 3448TIP3   OH210284   2.042   6.850   1.533
 3448TIP3    H110285   2.016   6.801   1.455
 3448TIP3    H210286   2.026   6.790   1.606
 3449TIP3   OH210287   0.664   1.843   1.700
 3449TIP3    H110288   0.637   1.820   1.789
 3449TIP3    H210289   0.582   1.858   1.653
 3450TIP3   OH210290   5.760   5.656   4.755
 3450TIP3    H110291   5.668   5.633   4.770
 3450TIP3    H210292   5.757   5.736   4.703
 3451TIP3   OH210293   7.418   6.578   6.231
 3451TIP3    H110294   7.503   6.605   6.265
 3451TIP3    H210295   7.395   6.647   6.169
 3452TIP3   OH210296   3.474   1.184   3.707
 3452TIP3    H110297   3.566   1.161   3.702
 3452TIP3    H210298   3.432   1.136   3.636
 3453TIP3   OH210299   6.213   0.018   4.453
 3453TIP3    H110300   6.155   0.077   4.405
 3453TIP3    H210301   6.181   0.020   4.543
 3454TIP3   OH210302   5.086   7.658   2.974
 3454TIP3    H110303   5.117   7.739   3.013
 3454TIP3    H210304   5.106   7.667   2.881
 3455TIP3   OH210305  -0.007   3.129   2.540
 3455TIP3    H110306   0.085   3.126   2.513
 3455TIP3    H210307  -0.055   3.106   2.461
 3456TIP3   OH210308   4.059   0.014   2.540
 3456TIP3    H110309   4.087   0.026   2.450
 3456TIP3    H210310   3.972   0.054   2.544
 3457TIP3   OH210311   1.692   4.368   4.612
 3457TIP3    H110312   1.724   4.415   4.535
 3457TIP3    H210313   1.718   4.424   4.686
 3458TIP3   OH210314   7.023   6.400   6.572
 3458TIP3    H110315   7.005   6.329   6.633
 3458TIP3    H210316   7.081   6.362   6.507
 3459TIP3   OH210317   6.776   4.156   6.619
 3459TIP3    H110318   6.698   4.145   6.565
 3459TIP3    H210319   6.751   4.121   6.705
 3460TIP3   OH210320   2.342   0.383   0.287
 3460TIP3    H110321   2.344   0.305   0.232
 3460TIP3    H210322   2.399   0.363   0.361
 3461TIP3   OH210323   6.335   3.834   2.318
 3461TIP3    H110324   6.312   3.861   2.229
 3461TIP3    H210325   6.403   3.896   2.345
 3462TIP3   OH210326   1.901   2.295   1.751
 3462TIP3    H110327   1.910   2.320   1.659
 3462TIP3    H210328   1.829   2.349   1.784
 3463TIP3   OH210329   4.882   3.502   4.868
 3463TIP3    H110330   4.888   3.459   4.953
 3463TIP3    H210331   4.909   3.592   4.884
 3464TIP3   OH210332   6.778   7.605   3.451
 3464TIP3    H110333   6.843   7.558   3.399
 3464TIP3    H210334   6.694   7.574   3.418
 3465TIP3   OH210335   5.773   6.489   4.071
 3465TIP3    H110336   5.782   6.429   3.996
 3465TIP3    H210337   5.729   6.566   4.035
 3466TIP3   OH210338   1.234   0.932   0.859
 3466TIP3    H110339   1.289   0.894   0.928
 3466TIP3    H210340   1.177   0.993   0.904
 3467TIP3   OH210341   3.652   0.301   6.227
 3467TIP3    H110342   3.650   0.394   6.250
 3467TIP3    H210343   3.722   0.294   6.161
 3468TIP3   OH210344   3.884   2.300   3.351
 3468TIP3    H110345   3.873   2.322   3.444
 3468TIP3    H210346   3.852   2.210   3.344
 3469TIP3   OH210347   0.743   7.762   3.673
 3469TIP3    H110348   0.812   7.823   3.700
 3469TIP3    H210349   0.692   7.811   3.609
 3470TIP3   OH210350   4.946   2.520   6.726
 3470TIP3    H110351   4.956   2.612   6.700
 3470TIP3    H210352   4.966   2.470   6.647
 3471TIP3   OH210353   6.512   1.465   0.398
 3471TIP3    H110354   6.496   1.534   0.334
 3471TIP3    H210355   6.599   1.485   0.432
 3472TIP3   OH210356   4.979   3.811   4.726
 3472TIP3    H110357   5.010   3.898   4.699
 3472TIP3    H210358   5.030   3.750   4.672
 3473TIP3   OH210359   1.835   3.750   1.218
 3473TIP3    H110360   1.832   3.700   1.300
 3473TIP3    H210361   1.811   3.687   1.151
 3474TIP3   OH210362   4.281   2.419   5.316
 3474TIP3    H110363   4.290   2.329   5.284
 3474TIP3    H210364   4.281   2.473   5.237
 3475TIP3   OH210365   1.626   2.467   0.834
 3475TIP3    H110366   1.677   2.519   0.771
 3475TIP3    H210367   1.561   2.529   0.868
 3476TIP3   OH210368   5.539   4.788   3.786
 3476TIP3    H110369   5.468   4.830   3.835
 3476TIP3    H210370   5.503   4.779   3.697
 3477TIP3   OH210371   6.247   4.538   5.536
 3477TIP3    H110372   6.291   4.554   5.452
 3477TIP3    H210373   6.305   4.477   5.582
 3478TIP3   OH210374   0.969   4.295   4.176
 3478TIP3    H110375   1.064   4.301   4.171
 3478TIP3    H210376   0.943   4.367   4.234
 3479TIP3   OH210377   0.179   7.606   0.574
 3479TIP3    H110378   0.189   7.701   0.577
 3479TIP3    H210379   0.189   7.578   0.665
 3480TIP3   OH210380   7.877   2.450   4.287
 3480TIP3    H110381   7.897   2.437   4.379
 3480TIP3    H210382   7.813   2.521   4.286
 3481TIP3   OH210383   1.657   3.997   0.073
 3481TIP3    H110384   1.611   4.003   0.157
 3481TIP3    H210385   1.717   4.071   0.074
 3482TIP3   OH210386   7.848   6.762   0.858
 3482TIP3    H110387   7.880   6.751   0.769
 3482TIP3    H210388   7.826   6.855   0.865
 3483TIP3   OH210389   5.673   5.929   6.719
 3483TIP3    H110390   5.669   5.954   6.626
 3483TIP3    H210391   5.676   6.012   6.766
 3484TIP3   OH210392   6.292   0.343   2.458
 3484TIP3    H110393   6.365   0.281   2.469
 3484TIP3    H210394   6.226   0.294   2.408
 3485TIP3   OH210395   3.493   2.771   6.348
 3485TIP3    H110396   3.410   2.816   6.336
 3485TIP3    H210397   3.487   2.693   6.293
 3486TIP3   OH210398   7.229   3.207   1.509
 3486TIP3    H110399   7.174   3.283   1.526
 3486TIP3    H210400   7.189   3.165   1.433
 3487TIP3   OH210401   5.847   5.142   3.934
 3487TIP3    H110402   5.883   5.061   3.899
 3487TIP3    H210403   5.913   5.173   3.996
 3488TIP3   OH210404   2.825   7.154   6.054
 3488TIP3    H110405   2.749   7.206   6.029
 3488TIP3    H210406   2.893   7.178   5.991
 3489TIP3   OH210407   7.876   4.435   4.142
 3489TIP3    H110408   7.876   4.462   4.234
 3489TIP3    H210409   7.795   4.386   4.131
 3490TIP3   OH210410   2.695   6.129   4.817
 3490TIP3    H110411   2.747   6.179   4.880
 3490TIP3    H210412   2.735   6.150   4.732
 3491TIP3   OH210413   7.319   2.005   2.628
 3491TIP3    H110414   7.413   2.010   2.645
 3491TIP3    H210415   7.309   2.043   2.541
 3492TIP3   OH210416   7.738   1.727   6.774
 3492TIP3    H110417   7.826   1.757   6.796
 3492TIP3    H210418   7.702   1.694   6.856
 3493TIP3   OH210419   5.388   7.726   3.081
 3493TIP3    H110420   5.478   7.757   3.067
 3493TIP3    H210421   5.372   7.740   3.174
 3494TIP3   OH210422   5.793   1.000   3.660
 3494TIP3    H110423   5.823   0.924   3.709
 3494TIP3    H210424   5.833   0.991   3.574
 3495TIP3   OH210425   4.825   4.290   2.741
 3495TIP3    H110426   4.815   4.195   2.737
 3495TIP3    H210427   4.910   4.302   2.784
 3496TIP3   OH210428   6.356   2.731   1.925
 3496TIP3    H110429   6.286   2.716   1.988
 3496TIP3    H210430   6.350   2.657   1.864
 3497TIP3   OH210431   6.261   4.421   2.212
 3497TIP3    H110432   6.301   4.402   2.128
 3497TIP3    H210433   6.177   4.461   2.190
 3498TIP3   OH210434   4.578   5.594   0.443
 3498TIP3    H110435   4.490   5.614   0.412
 3498TIP3    H210436   4.572   5.600   0.538
 3499TIP3   OH210437   4.438   6.881   5.575
 3499TIP3    H110438   4.462   6.827   5.650
 3499TIP3    H210439   4.483   6.964   5.590
 3500TIP3   OH210440   5.879   7.598   5.102
 3500TIP3    H110441   5.847   7.591   5.192
 3500TIP3    H210442   5.958   7.544   5.100
 3501TIP3   OH210443   3.736   7.775   0.532
 3501TIP3    H110444   3.793   7.848   0.508
 3501TIP3    H210445   3.717   7.730   0.450
 3502TIP3   OH210446   6.841   3.034   2.982
 3502TIP3    H110447   6.784   3.096   3.027
 3502TIP3    H210448   6.801   2.949   2.996
 3503TIP3   OH210449   4.462   6.709   5.784
 3503TIP3    H110450   4.419   6.624   5.779
 3503TIP3    H210451   4.395   6.768   5.818
 3504TIP3   OH210452   5.263   0.617   1.588
 3504TIP3    H110453   5.293   0.644   1.502
 3504TIP3    H210454   5.216   0.693   1.623
 3505TIP3   OH210455   1.097   4.608   4.812
 3505TIP3    H110456   1.080   4.645   4.725
 3505TIP3    H210457   1.101   4.684   4.870
 3506TIP3   OH210458   6.235   3.640   5.449
 3506TIP3    H110459   6.195   3.609   5.368
 3506TIP3    H210460   6.162   3.677   5.499
 3507TIP3   OH210461   0.366   7.806   1.036
 3507TIP3    H110462   0.371   7.869   0.964
 3507TIP3    H210463   0.296   7.839   1.092
 3508TIP3   OH210464   1.516   4.205   2.308
 3508TIP3    H110465   1.483   4.120   2.279
 3508TIP3    H210466   1.438   4.260   2.314
 3509TIP3   OH210467   5.574   6.516   1.392
 3509TIP3    H110468   5.604   6.603   1.418
 3509TIP3    H210469   5.498   6.532   1.337
 3510TIP3   OH210470   5.789   0.943   4.801
 3510TIP3    H110471   5.716   1.003   4.791
 3510TIP3    H210472   5.845   0.959   4.725
 3511TIP3   OH210473   6.390   6.928   6.155
 3511TIP3    H110474   6.329   6.965   6.091
 3511TIP3    H210475   6.334   6.879   6.215
 3512TIP3   OH210476   5.932   2.482   1.907
 3512TIP3    H110477   5.841   2.461   1.887
 3512TIP3    H210478   5.980   2.401   1.893
 3513TIP3   OH210479   1.634   7.911   6.322
 3513TIP3    H110480   1.662   7.819   6.319
 3513TIP3    H210481   1.622   7.935   6.230
 3514TIP3   OH210482   7.296   3.941   6.496
 3514TIP3    H110483   7.374   3.887   6.487
 3514TIP3    H210484   7.270   3.931   6.587
 3515TIP3   OH210485   1.241   2.976   4.130
 3515TIP3    H110486   1.182   3.046   4.156
 3515TIP3    H210487   1.321   3.020   4.103
 3516TIP3   OH210488   6.225   7.064   5.957
 3516TIP3    H110489   6.145   7.022   5.923
 3516TIP3    H210490   6.291   7.046   5.891
 3517TIP3   OH210491   7.930   5.549   0.675
 3517TIP3    H110492   7.912   5.456   0.667
 3517TIP3    H210493   7.972   5.573   0.592
 3518TIP3   OH210494   6.964   2.070   0.836
 3518TIP3    H110495   7.032   2.124   0.796
 3518TIP3    H210496   6.978   2.080   0.930
 3519TIP3   OH210497   7.157   5.395   1.900
 3519TIP3    H110498   7.145   5.486   1.928
 3519TIP3    H210499   7.103   5.387   1.822
 3520TIP3   OH210500   2.245   2.565   6.666
 3520TIP3    H110501   2.260   2.628   6.596
 3520TIP3    H210502   2.217   2.619   6.741
 3521TIP3   OH210503   4.578   6.899   0.498
 3521TIP3    H110504   4.581   6.994   0.492
 3521TIP3    H210505   4.655   6.870   0.449
 3522TIP3   OH210506   7.971   5.560   0.243
 3522TIP3    H110507   7.926   5.495   0.190
 3522TIP3    H210508   7.983   5.635   0.184
 3523TIP3   OH210509   7.266   5.777   1.776
 3523TIP3    H110510   7.346   5.826   1.759
 3523TIP3    H210511   7.196   5.830   1.737
 3524TIP3   OH210512   1.829   7.727   0.733
 3524TIP3    H110513   1.814   7.800   0.674
 3524TIP3    H210514   1.764   7.737   0.802
 3525TIP3   OH210515   2.804   7.507   0.846
 3525TIP3    H110516   2.884   7.520   0.795
 3525TIP3    H210517   2.787   7.413   0.839
 3526TIP3   OH210518   0.346   0.874   0.124
 3526TIP3    H110519   0.438   0.848   0.132
 3526TIP3    H210520   0.349   0.965   0.094
 3527TIP3   OH210521   0.484   6.264   2.844
 3527TIP3    H110522   0.505   6.356   2.862
 3527TIP3    H210523   0.440   6.266   2.758
 3528TIP3   OH210524   2.731   5.707   6.612
 3528TIP3    H110525   2.664   5.757   6.566
 3528TIP3    H210526   2.803   5.700   6.549
 3529TIP3   OH210527   2.738   5.096   6.425
 3529TIP3    H110528   2.773   5.182   6.402
 3529TIP3    H210529   2.729   5.097   6.520
 3530TIP3   OH210530   6.550   7.246   4.913
 3530TIP3    H110531   6.466   7.219   4.878
 3530TIP3    H210532   6.608   7.250   4.836
 3531TIP3   OH210533   2.771   7.644   3.294
 3531TIP3    H110534   2.846   7.585   3.288
 3531TIP3    H210535   2.764   7.684   3.207
 3532TIP3   OH210536   6.236   7.264   6.182
 3532TIP3    H110537   6.214   7.203   6.112
 3532TIP3    H210538   6.195   7.227   6.260
 3533TIP3   OH210539   7.960   3.330   5.858
 3533TIP3    H110540   7.984   3.242   5.827
 3533TIP3    H210541   8.032   3.385   5.830
 3534TIP3   OH210542   4.629   0.887   3.653
 3534TIP3    H110543   4.626   0.793   3.637
 3534TIP3    H210544   4.566   0.901   3.724
 3535TIP3   OH210545   2.954   6.854   0.307
 3535TIP3    H110546   2.880   6.804   0.341
 3535TIP3    H210547   2.919   6.898   0.230
 3536TIP3   OH210548   0.368   7.004   4.688
 3536TIP3    H110549   0.391   6.946   4.760
 3536TIP3    H210550   0.342   7.086   4.731
 3537TIP3   OH210551   5.274   1.162   3.454
 3537TIP3    H110552   5.360   1.199   3.439
 3537TIP3    H210553   5.282   1.070   3.429
 3538TIP3   OH210554   0.898   3.971   5.495
 3538TIP3    H110555   0.915   3.878   5.505
 3538TIP3    H210556   0.973   4.014   5.536
 3539TIP3   OH210557   3.414   7.706   3.304
 3539TIP3    H110558   3.349   7.775   3.285
 3539TIP3    H210559   3.498   7.745   3.280
 3540TIP3   OH210560   4.239   6.078   2.137
 3540TIP3    H110561   4.327   6.115   2.139
 3540TIP3    H210562   4.216   6.065   2.229
 3541TIP3   OH210563   4.841   2.609   0.317
 3541TIP3    H110564   4.885   2.538   0.269
 3541TIP3    H210565   4.912   2.650   0.367
 3542TIP3   OH210566   4.373   7.457   6.159
 3542TIP3    H110567   4.358   7.532   6.101
 3542TIP3    H210568   4.339   7.486   6.244
 3543TIP3   OH210569   6.867   2.865   0.007
 3543TIP3    H110570   6.890   2.909   0.088
 3543TIP3    H210571   6.821   2.931  -0.045
 3544TIP3   OH210572   8.286   5.028   5.077
 3544TIP3    H110573   8.323   4.988   4.998
 3544TIP3    H210574   8.297   5.122   5.064
 3545TIP3   OH210575   0.257   5.374   4.564
 3545TIP3    H110576   0.249   5.366   4.659
 3545TIP3    H210577   0.180   5.423   4.537
 3546TIP3   OH210578   4.106   7.229   6.500
 3546TIP3    H110579   4.162   7.151   6.498
 3546TIP3    H210580   4.026   7.201   6.544
 3547TIP3   OH210581   5.200   0.757   4.342
 3547TIP3    H110582   5.126   0.790   4.291
 3547TIP3    H210583   5.270   0.821   4.327
 3548TIP3   OH210584   0.696   5.479   4.114
 3548TIP3    H110585   0.606   5.507   4.096
 3548TIP3    H210586   0.705   5.396   4.067
 3549TIP3   OH210587   2.095   3.203   1.291
 3549TIP3    H110588   2.043   3.176   1.366
 3549TIP3    H210589   2.105   3.124   1.238
 3550TIP3   OH210590   5.639   3.408   1.620
 3550TIP3    H110591   5.621   3.325   1.665
 3550TIP3    H210592   5.723   3.437   1.656
 3551TIP3   OH210593   6.057   4.248   6.181
 3551TIP3    H110594   6.125   4.194   6.140
 3551TIP3    H210595   6.049   4.323   6.123
 3552TIP3   OH210596   5.075   6.976   0.277
 3552TIP3    H110597   5.142   6.972   0.209
 3552TIP3    H210598   5.037   7.063   0.268
 3553TIP3   OH210599   4.385   3.849   6.420
 3553TIP3    H110600   4.363   3.792   6.346
 3553TIP3    H210601   4.301   3.867   6.463
 3554TIP3   OH210602   5.542   1.294   4.616
 3554TIP3    H110603   5.566   1.258   4.530
 3554TIP3    H210604   5.466   1.349   4.598
 3555TIP3   OH210605   1.737   7.008   6.816
 3555TIP3    H110606   1.690   6.965   6.887
 3555TIP3    H210607   1.829   6.989   6.833
 3556TIP3   OH210608   5.885   0.406   5.661
 3556TIP3    H110609   5.802   0.420   5.707
 3556TIP3    H210610   5.862   0.418   5.569
 3557TIP3   OH210611   1.795   1.700   0.861
 3557TIP3    H110612   1.756   1.613   0.846
 3557TIP3    H210613   1.723   1.752   0.896
 3558TIP3   OH210614   2.405   0.966   6.070
 3558TIP3    H110615   2.390   1.059   6.086
 3558TIP3    H210616   2.392   0.924   6.155
 3559TIP3   OH210617   6.175   4.595   0.185
 3559TIP3    H110618   6.168   4.688   0.205
 3559TIP3    H210619   6.095   4.557   0.223
 3560TIP3   OH210620   6.102   5.946   0.146
 3560TIP3    H110621   6.087   5.979   0.235
 3560TIP3    H210622   6.078   6.020   0.089
 3561TIP3   OH210623   0.923   1.301   0.275
 3561TIP3    H110624   0.997   1.359   0.290
 3561TIP3    H210625   0.870   1.309   0.355
 3562TIP3   OH210626   4.056   1.981   0.275
 3562TIP3    H110627   4.103   1.925   0.213
 3562TIP3    H210628   3.965   1.951   0.269
 3563TIP3   OH210629   1.327   7.583   6.766
 3563TIP3    H110630   1.363   7.666   6.798
 3563TIP3    H210631   1.366   7.516   6.821
 3564TIP3   OH210632   0.499   5.276   5.870
 3564TIP3    H110633   0.526   5.315   5.787
 3564TIP3    H210634   0.412   5.313   5.887
 3565TIP3   OH210635   0.952   0.814   5.857
 3565TIP3    H110636   1.004   0.852   5.787
 3565TIP3    H210637   0.986   0.854   5.937
 3566TIP3   OH210638   5.199   3.599   1.967
 3566TIP3    H110639   5.292   3.590   1.949
 3566TIP3    H210640   5.194   3.654   2.045
 3567TIP3   OH210641   2.433   3.697   6.305
 3567TIP3    H110642   2.362   3.687   6.368
 3567TIP3    H210643   2.405   3.768   6.248
 3568TIP3   OH210644   5.253   6.061   0.780
 3568TIP3    H110645   5.190   6.130   0.756
 3568TIP3    H210646   5.228   6.037   0.870
 3569TIP3   OH210647   7.941   6.250   4.569
 3569TIP3    H110648   7.944   6.238   4.474
 3569TIP3    H210649   7.849   6.268   4.588
 3570TIP3   OH210650   8.081   4.996   3.112
 3570TIP3    H110651   8.124   4.998   3.197
 3570TIP3    H210652   8.080   5.088   3.084
 3571TIP3   OH210653   5.579   3.588   6.214
 3571TIP3    H110654   5.626   3.533   6.277
 3571TIP3    H210655   5.502   3.619   6.262
 3572TIP3   OH210656   2.278   4.941   5.592
 3572TIP3    H110657   2.303   5.027   5.627
 3572TIP3    H210658   2.184   4.949   5.574
 3573TIP3   OH210659   3.537   2.557   4.223
 3573TIP3    H110660   3.559   2.644   4.188
 3573TIP3    H210661   3.527   2.571   4.317
 3574TIP3   OH210662   2.345   3.021   4.372
 3574TIP3    H110663   2.434   3.029   4.336
 3574TIP3    H210664   2.345   3.079   4.448
 3575TIP3   OH210665   4.758   3.222   1.020
 3575TIP3    H110666   4.775   3.129   1.012
 3575TIP3    H210667   4.729   3.234   1.111
 3576TIP3   OH210668   5.786   6.836   3.502
 3576TIP3    H110669   5.842   6.759   3.514
 3576TIP3    H210670   5.711   6.820   3.558
 3577TIP3   OH210671   7.337   0.713   5.560
 3577TIP3    H110672   7.300   0.721   5.472
 3577TIP3    H210673   7.426   0.683   5.546
 3578TIP3   OH210674   1.848   2.233   4.983
 3578TIP3    H110675   1.816   2.297   5.047
 3578TIP3    H210676   1.940   2.257   4.969
 3579TIP3   OH210677   1.802   2.189   2.886
 3579TIP3    H110678   1.708   2.204   2.874
 3579TIP3    H210679   1.812   2.169   2.979
 3580TIP3   OH210680   8.303   3.920   5.256
 3580TIP3    H110681   8.329   3.848   5.313
 3580TIP3    H210682   8.207   3.922   5.263
 3581TIP3   OH210683   5.596   2.923   2.715
 3581TIP3    H110684   5.550   2.843   2.740
 3581TIP3    H210685   5.682   2.916   2.756
 3582TIP3   OH210686   5.100   0.230   0.503
 3582TIP3    H110687   5.175   0.182   0.466
 3582TIP3    H210688   5.028   0.211   0.444
 3583TIP3   OH210689   7.071   1.704   5.723
 3583TIP3    H110690   6.996   1.645   5.722
 3583TIP3    H210691   7.084   1.725   5.816
 3584TIP3   OH210692   6.211   0.909   5.624
 3584TIP3    H110693   6.126   0.945   5.650
 3584TIP3    H210694   6.246   0.972   5.562
 3585TIP3   OH210695   6.321   3.291   0.193
 3585TIP3    H110696   6.339   3.369   0.141
 3585TIP3    H210697   6.341   3.218   0.135
 3586TIP3   OH210698   1.434   6.203   3.805
 3586TIP3    H110699   1.353   6.156   3.785
 3586TIP3    H210700   1.488   6.139   3.851
 3587TIP3   OH210701   2.674   5.137   6.092
 3587TIP3    H110702   2.667   5.041   6.096
 3587TIP3    H210703   2.583   5.168   6.095
 3588TIP3   OH210704   6.464   6.123   0.841
 3588TIP3    H110705   6.555   6.100   0.822
 3588TIP3    H210706   6.445   6.078   0.923
 3589TIP3   OH210707   1.965   3.003   5.929
 3589TIP3    H110708   2.053   3.002   5.968
 3589TIP3    H210709   1.916   2.939   5.980
 3590TIP3   OH210710   0.988   1.769   1.672
 3590TIP3    H110711   1.078   1.802   1.671
 3590TIP3    H210712   0.941   1.830   1.728
 3591TIP3   OH210713   7.042   6.576   5.777
 3591TIP3    H110714   7.041   6.531   5.861
 3591TIP3    H210715   7.117   6.635   5.783
 3592TIP3   OH210716   7.451   4.644   5.585
 3592TIP3    H110717   7.459   4.641   5.681
 3592TIP3    H210718   7.523   4.590   5.553
 3593TIP3   OH210719   6.434   1.748   5.522
 3593TIP3    H110720   6.343   1.735   5.547
 3593TIP3    H210721   6.480   1.672   5.559
 3594TIP3   OH210722   2.607   1.201   1.785
 3594TIP3    H110723   2.622   1.223   1.877
 3594TIP3    H210724   2.685   1.153   1.759
 3595TIP3   OH210725   0.661   3.537   2.737
 3595TIP3    H110726   0.756   3.526   2.736
 3595TIP3    H210727   0.629   3.463   2.789
 3596TIP3   OH210728   0.739   3.391   1.603
 3596TIP3    H110729   0.648   3.415   1.582
 3596TIP3    H210730   0.790   3.469   1.580
 3597TIP3   OH210731   1.794   6.001   0.145
 3597TIP3    H110732   1.832   6.087   0.165
 3597TIP3    H210733   1.802   5.993   0.050
 3598TIP3   OH210734   5.870   6.790   3.129
 3598TIP3    H110735   5.797   6.852   3.126
 3598TIP3    H210736   5.946   6.843   3.153
 3599TIP3   OH210737   6.497   4.998   6.800
 3599TIP3    H110738   6.434   5.047   6.853
 3599TIP3    H210739   6.483   4.907   6.824
 3600TIP3   OH210740   4.159   6.347   6.388
 3600TIP3    H110741   4.243   6.370   6.348
 3600TIP3    H210742   4.107   6.426   6.383
 3601TIP3   OH210743   6.037   5.320   5.353
 3601TIP3    H110744   5.988   5.312   5.271
 3601TIP3    H210745   6.107   5.256   5.346
 3602TIP3   OH210746   8.400   5.467   4.436
 3602TIP3    H110747   8.393   5.539   4.498
 3602TIP3    H210748   8.323   5.476   4.379
 3603TIP3   OH210749   2.655   5.559   4.287
 3603TIP3    H110750   2.685   5.579   4.376
 3603TIP3    H210751   2.653   5.464   4.283
 3604TIP3   OH210752   5.932   7.907   1.055
 3604TIP3    H110753   5.844   7.876   1.079
 3604TIP3    H210754   5.924   7.935   0.964
 3605TIP3   OH210755   0.370   3.191   6.197
 3605TIP3    H110756   0.405   3.158   6.113
 3605TIP3    H210757   0.330   3.114   6.238
 3606TIP3   OH210758   0.779   0.096   6.261
 3606TIP3    H110759   0.862   0.062   6.228
 3606TIP3    H210760   0.732   0.018   6.291
 3607TIP3   OH210761   1.037   0.936   6.753
 3607TIP3    H110762   1.125   0.973   6.750
 3607TIP3    H210763   0.979   1.012   6.746
 3608TIP3   OH210764   8.246   1.611   4.105
 3608TIP3    H110765   8.317   1.582   4.161
 3608TIP3    H210766   8.284   1.614   4.017
 3609TIP3   OH210767   6.771   2.338   1.281
 3609TIP3    H110768   6.737   2.276   1.217
 3609TIP3    H210769   6.812   2.283   1.348
 3610TIP3   OH210770   7.709   0.996   4.133
 3610TIP3    H110771   7.625   1.002   4.178
 3610TIP3    H210772   7.685   0.985   4.040
 3611TIP3   OH210773   1.570   6.893   4.678
 3611TIP3    H110774   1.650   6.866   4.723
 3611TIP3    H210775   1.562   6.834   4.604
 3612TIP3   OH210776   4.305   5.339   4.624
 3612TIP3    H110777   4.251   5.264   4.597
 3612TIP3    H210778   4.387   5.299   4.653
 3613TIP3   OH210779   5.105   7.370   6.044
 3613TIP3    H110780   5.018   7.408   6.046
 3613TIP3    H210781   5.155   7.426   5.984
 3614TIP3   OH210782   8.247   4.396   3.302
 3614TIP3    H110783   8.205   4.454   3.238
 3614TIP3    H210784   8.326   4.444   3.329
 3615TIP3   OH210785   4.538   2.508   5.157
 3615TIP3    H110786   4.593   2.520   5.080
 3615TIP3    H210787   4.478   2.437   5.133
 3616TIP3   OH210788   1.092   0.060   0.746
 3616TIP3    H110789   1.056   0.127   0.804
 3616TIP3    H210790   1.187   0.075   0.749
 3617TIP3   OH210791   4.088   1.076   5.343
 3617TIP3    H110792   4.014   1.122   5.383
 3617TIP3    H210793   4.053   0.989   5.322
 3618TIP3   OH210794   7.011   5.087   1.749
 3618TIP3    H110795   6.974   5.072   1.663
 3618TIP3    H210796   7.024   4.999   1.785
 3619TIP3   OH210797   4.839   5.015   4.716
 3619TIP3    H110798   4.797   4.943   4.763
 3619TIP3    H210799   4.830   5.090   4.775
 3620TIP3   OH210800   1.928   5.159   4.940
 3620TIP3    H110801   1.903   5.241   4.897
 3620TIP3    H210802   1.958   5.103   4.869
 3621TIP3   OH210803   4.812   0.337   5.778
 3621TIP3    H110804   4.817   0.372   5.689
 3621TIP3    H210805   4.721   0.353   5.805
 3622TIP3   OH210806   8.070   7.593   6.769
 3622TIP3    H110807   7.994   7.557   6.815
 3622TIP3    H210808   8.128   7.518   6.756
 3623TIP3   OH210809   7.724   6.406   5.610
 3623TIP3    H110810   7.638   6.449   5.615
 3623TIP3    H210811   7.725   6.364   5.524
 3624TIP3   OH210812   4.554   1.388   5.858
 3624TIP3    H110813   4.639   1.353   5.884
 3624TIP3    H210814   4.501   1.384   5.938
 3625TIP3   OH210815   3.172   3.084   5.111
 3625TIP3    H110816   3.217   3.110   5.191
 3625TIP3    H210817   3.158   2.989   5.121
 3626TIP3   OH210818   3.450   5.993   4.482
 3626TIP3    H110819   3.394   5.934   4.533
 3626TIP3    H210820   3.517   5.935   4.444
 3627TIP3   OH210821   7.999   0.844   0.221
 3627TIP3    H110822   8.002   0.822   0.128
 3627TIP3    H210823   8.032   0.766   0.265
 3628TIP3   OH210824   2.722   1.969   3.335
 3628TIP3    H110825   2.632   1.974   3.367
 3628TIP3    H210826   2.775   2.004   3.407
 3629TIP3   OH210827   0.681   3.136   1.461
 3629TIP3    H110828   0.705   3.219   1.421
 3629TIP3    H210829   0.727   3.135   1.544
 3630TIP3   OH210830   1.052   3.256   3.619
 3630TIP3    H110831   1.008   3.189   3.672
 3630TIP3    H210832   1.131   3.214   3.586
 3631TIP3   OH210833   1.654   5.703   0.653
 3631TIP3    H110834   1.717   5.631   0.647
 3631TIP3    H210835   1.697   5.776   0.609
 3632TIP3   OH210836   0.719   2.865   1.524
 3632TIP3    H110837   0.803   2.850   1.480
 3632TIP3    H210838   0.698   2.956   1.506
 3633TIP3   OH210839   1.073   4.100   4.484
 3633TIP3    H110840   1.013   4.030   4.508
 3633TIP3    H210841   1.133   4.061   4.421
 3634TIP3   OH210842   7.185   2.298   4.092
 3634TIP3    H110843   7.090   2.296   4.106
 3634TIP3    H210844   7.211   2.386   4.117
 3635TIP3   OH210845   7.868   4.774   3.368
 3635TIP3    H110846   7.854   4.869   3.364
 3635TIP3    H210847   7.963   4.763   3.365
 3636TIP3   OH210848   1.081   0.360   4.250
 3636TIP3    H110849   1.018   0.342   4.181
 3636TIP3    H210850   1.040   0.328   4.330
 3637TIP3   OH210851   1.454   7.641   1.078
 3637TIP3    H110852   1.458   7.584   1.001
 3637TIP3    H210853   1.510   7.598   1.142
 3638TIP3   OH210854   6.788   1.341   0.926
 3638TIP3    H110855   6.794   1.426   0.884
 3638TIP3    H210856   6.736   1.356   1.005
 3639TIP3   OH210857   3.242   5.694   2.401
 3639TIP3    H110858   3.307   5.634   2.439
 3639TIP3    H210859   3.197   5.731   2.477
 3640TIP3   OH210860   1.088   3.073   1.191
 3640TIP3    H110861   1.081   3.168   1.191
 3640TIP3    H210862   1.080   3.049   1.284
 3641TIP3   OH210863   1.567   1.387   1.789
 3641TIP3    H110864   1.490   1.379   1.845
 3641TIP3    H210865   1.605   1.471   1.813
 3642TIP3   OH210866   0.423   3.025   1.483
 3642TIP3    H110867   0.361   3.086   1.523
 3642TIP3    H210868   0.503   3.076   1.472
 3643TIP3   OH210869   7.054   5.834   5.818
 3643TIP3    H110870   7.011   5.909   5.776
 3643TIP3    H210871   6.985   5.769   5.828
 3644TIP3   OH210872   6.142   6.677   2.970
 3644TIP3    H110873   6.202   6.715   3.035
 3644TIP3    H210874   6.076   6.745   2.956
 3645TIP3   OH210875   4.236   2.618   6.789
 3645TIP3    H110876   4.293   2.667   6.730
 3645TIP3    H210877   4.216   2.679   6.860
 3646TIP3   OH210878   1.919   4.766   4.117
 3646TIP3    H110879   1.921   4.842   4.174
 3646TIP3    H210880   1.909   4.802   4.029
 3647TIP3   OH210881   0.117   6.607   0.238
 3647TIP3    H110882   0.061   6.675   0.274
 3647TIP3    H210883   0.199   6.615   0.287
 3648TIP3   OH210884   0.319   2.725   5.151
 3648TIP3    H110885   0.266   2.646   5.135
 3648TIP3    H210886   0.255   2.793   5.170
 3649TIP3   OH210887   2.049   7.679   5.415
 3649TIP3    H110888   2.065   7.609   5.352
 3649TIP3    H210889   2.133   7.723   5.425
 3650TIP3   OH210890   6.051   0.922   6.411
 3650TIP3    H110891   6.061   0.861   6.484
 3650TIP3    H210892   5.962   0.907   6.379
 3651TIP3   OH210893   4.538   5.765   0.110
 3651TIP3    H110894   4.580   5.817   0.178
 3651TIP3    H210895   4.546   5.817   0.031
 3652TIP3   OH210896   4.156   2.697   0.641
 3652TIP3    H110897   4.121   2.610   0.623
 3652TIP3    H210898   4.090   2.738   0.697
 3653TIP3   OH210899   7.172   6.696   6.468
 3653TIP3    H110900   7.209   6.746   6.395
 3653TIP3    H210901   7.098   6.648   6.430
 3654TIP3   OH210902   8.115   5.494   1.112
 3654TIP3    H110903   8.067   5.418   1.144
 3654TIP3    H210904   8.205   5.480   1.144
 3655TIP3   OH210905   3.063   4.496   3.503
 3655TIP3    H110906   3.112   4.414   3.500
 3655TIP3    H210907   2.989   4.477   3.560
 3656TIP3   OH210908   3.011   6.862   0.749
 3656TIP3    H110909   2.964   6.919   0.809
 3656TIP3    H210910   2.945   6.831   0.687
 3657TIP3   OH210911   7.044   2.433   5.250
 3657TIP3    H110912   7.062   2.345   5.283
 3657TIP3    H210913   6.999   2.418   5.166
 3658TIP3   OH210914   2.864   5.040   5.455
 3658TIP3    H110915   2.921   4.990   5.397
 3658TIP3    H210916   2.804   4.974   5.492
 3659TIP3   OH210917   6.671   5.825   0.255
 3659TIP3    H110918   6.713   5.872   0.327
 3659TIP3    H210919   6.584   5.864   0.248
 3660TIP3   OH210920   1.348   0.644   3.411
 3660TIP3    H110921   1.312   0.591   3.482
 3660TIP3    H210922   1.332   0.734   3.440
 3661TIP3   OH210923   7.938   0.792   3.559
 3661TIP3    H110924   7.948   0.786   3.464
 3661TIP3    H210925   8.027   0.801   3.592
 3662TIP3   OH210926   2.465   7.834   0.048
 3662TIP3    H110927   2.546   7.786   0.038
 3662TIP3    H210928   2.401   7.768   0.076
 3663TIP3   OH210929   6.881   3.836   0.937
 3663TIP3    H110930   6.876   3.868   0.847
 3663TIP3    H210931   6.937   3.759   0.932
 3664TIP3   OH210932   4.752   5.314   5.686
 3664TIP3    H110933   4.720   5.404   5.681
 3664TIP3    H210934   4.846   5.322   5.698
 3665TIP3   OH210935   4.605   3.997   5.477
 3665TIP3    H110936   4.525   4.025   5.433
 3665TIP3    H210937   4.605   4.043   5.561
 3666TIP3   OH210938   4.155   2.408   3.672
 3666TIP3    H110939   4.209   2.377   3.599
 3666TIP3    H210940   4.171   2.346   3.742
 3667TIP3   OH210941   7.030   0.143   1.202
 3667TIP3    H110942   6.952   0.183   1.240
 3667TIP3    H210943   7.099   0.208   1.217
 3668TIP3   OH210944   0.074   7.763   5.602
 3668TIP3    H110945   0.001   7.792   5.657
 3668TIP3    H210946   0.059   7.808   5.518
 3669TIP3   OH210947   4.881   7.553   2.721
 3669TIP3    H110948   4.907   7.462   2.710
 3669TIP3    H210949   4.841   7.576   2.637
 3670TIP3   OH210950   7.064   7.751   2.508
 3670TIP3    H110951   7.112   7.778   2.430
 3670TIP3    H210952   7.055   7.830   2.560
 3671TIP3   OH210953   1.159   7.855   2.963
 3671TIP3    H110954   1.090   7.868   3.028
 3671TIP3    H210955   1.142   7.767   2.928
 3672TIP3   OH210956   3.691   5.451   0.720
 3672TIP3    H110957   3.769   5.409   0.684
 3672TIP3    H210958   3.717   5.542   0.733
 3673TIP3   OH210959   2.845   3.923   1.847
 3673TIP3    H110960   2.775   3.985   1.867
 3673TIP3    H210961   2.801   3.848   1.806
 3674TIP3   OH210962   7.008   1.415   6.288
 3674TIP3    H110963   7.025   1.464   6.368
 3674TIP3    H210964   7.095   1.400   6.250
 3675TIP3   OH210965   6.084   0.158   5.399
 3675TIP3    H110966   6.107   0.231   5.457
 3675TIP3    H210967   5.995   0.177   5.370
 3676TIP3   OH210968   0.655   5.953   4.045
 3676TIP3    H110969   0.630   5.896   4.117
 3676TIP3    H210970   0.662   6.040   4.085
 3677TIP3   OH210971   5.179   7.130   5.942
 3677TIP3    H110972   5.152   7.060   6.001
 3677TIP3    H210973   5.138   7.208   5.977
 3678TIP3   OH210974   2.099   4.389   3.675
 3678TIP3    H110975   2.125   4.329   3.605
 3678TIP3    H210976   2.150   4.360   3.751
 3679TIP3   OH210977   3.364   1.967   2.291
 3679TIP3    H110978   3.374   2.032   2.360
 3679TIP3    H210979   3.308   2.008   2.226
 3680TIP3   OH210980   7.313   0.733   1.470
 3680TIP3    H110981   7.324   0.664   1.535
 3680TIP3    H210982   7.249   0.698   1.408
 3681TIP3   OH210983   1.806   7.034   0.976
 3681TIP3    H110984   1.838   7.119   1.005
 3681TIP3    H210985   1.852   6.971   1.031
 3682TIP3   OH210986   4.055   1.517   5.722
 3682TIP3    H110987   4.081   1.488   5.635
 3682TIP3    H210988   4.137   1.522   5.771
 3683TIP3   OH210989   4.642   2.473   5.634
 3683TIP3    H110990   4.565   2.522   5.602
 3683TIP3    H210991   4.629   2.470   5.729
 3684TIP3   OH210992   6.605   4.724   6.383
 3684TIP3    H110993   6.638   4.769   6.461
 3684TIP3    H210994   6.586   4.795   6.321
 3685TIP3   OH210995   4.075   6.103   5.884
 3685TIP3    H110996   4.129   6.043   5.937
 3685TIP3    H210997   4.036   6.162   5.948
 3686TIP3   OH210998   3.966   3.713   3.819
 3686TIP3    H110999   4.033   3.647   3.801
 3686TIP3    H211000   4.014   3.796   3.820
 3687TIP3   OH211001   6.370   4.263   6.710
 3687TIP3    H111002   6.335   4.220   6.788
 3687TIP3    H211003   6.319   4.344   6.702
 3688TIP3   OH211004   5.490   6.165   0.669
 3688TIP3    H111005   5.530   6.099   0.612
 3688TIP3    H211006   5.420   6.118   0.715
 3689TIP3   OH211007   1.565   6.618   6.748
 3689TIP3    H111008   1.512   6.695   6.727
 3689TIP3    H211009   1.501   6.553   6.776
 3690TIP3   OH211010   6.435   0.212   6.152
 3690TIP3    H111011   6.413   0.305   6.154
 3690TIP3    H211012   6.456   0.191   6.243
 3691TIP3   OH211013   5.907   0.016   1.455
 3691TIP3    H111014   5.975   0.058   1.402
 3691TIP3    H211015   5.956  -0.031   1.523
 3692TIP3   OH211016   0.938   4.965   4.566
 3692TIP3    H111017   0.970   4.876   4.576
 3692TIP3    H211018   0.862   4.970   4.623
 3693TIP3   OH211019   3.577   0.170   6.764
 3693TIP3    H111020   3.570   0.109   6.837
 3693TIP3    H211021   3.488   0.199   6.747
 3694TIP3   OH211022   3.868   2.985   6.547
 3694TIP3    H111023   3.859   2.904   6.498
 3694TIP3    H211024   3.829   2.965   6.633
 3695TIP3   OH211025   8.210   7.716   1.282
 3695TIP3    H111026   8.195   7.744   1.372
 3695TIP3    H211027   8.162   7.634   1.274
 3696TIP3   OH211028   1.565   1.315   4.491
 3696TIP3    H111029   1.645   1.283   4.533
 3696TIP3    H211030   1.556   1.260   4.413
 3697TIP3   OH211031   0.166   4.578   3.598
 3697TIP3    H111032   0.205   4.565   3.512
 3697TIP3    H211033   0.125   4.664   3.594
 3698TIP3   OH211034   5.071   4.759   5.740
 3698TIP3    H111035   4.977   4.740   5.734
 3698TIP3    H211036   5.112   4.672   5.744
 3699TIP3   OH211037   7.794   7.890   1.774
 3699TIP3    H111038   7.834   7.804   1.765
 3699TIP3    H211039   7.869   7.950   1.784
 3700TIP3   OH211040   8.382   3.145   4.583
 3700TIP3    H111041   8.355   3.083   4.651
 3700TIP3    H211042   8.334   3.117   4.505
 3701TIP3   OH211043   1.567   2.880   1.729
 3701TIP3    H111044   1.608   2.858   1.646
 3701TIP3    H211045   1.514   2.802   1.751
 3702TIP3   OH211046   1.030   2.032   0.789
 3702TIP3    H111047   1.052   2.107   0.845
 3702TIP3    H211048   0.955   2.062   0.737
 3703TIP3   OH211049   7.600   7.068   3.047
 3703TIP3    H111050   7.695   7.070   3.038
 3703TIP3    H211051   7.567   7.057   2.958
 3704TIP3   OH211052   5.193   5.943   3.608
 3704TIP3    H111053   5.164   5.913   3.522
 3704TIP3    H211054   5.181   5.868   3.666
 3705TIP3   OH211055   0.381   6.859   1.726
 3705TIP3    H111056   0.360   6.853   1.819
 3705TIP3    H211057   0.297   6.855   1.681
 3706TIP3   OH211058   0.970   0.037   2.127
 3706TIP3    H111059   1.060   0.029   2.160
 3706TIP3    H211060   0.956  -0.042   2.075
 3707TIP3   OH211061   1.248   1.950   5.046
 3707TIP3    H111062   1.178   1.950   5.112
 3707TIP3    H211063   1.310   2.016   5.077
 3708TIP3   OH211064   4.224   6.098   1.445
 3708TIP3    H111065   4.216   6.004   1.433
 3708TIP3    H211066   4.163   6.118   1.516
 3709TIP3   OH211067  -0.024   2.984   1.109
 3709TIP3    H111068   0.071   2.991   1.110
 3709TIP3    H211069  -0.046   2.963   1.018
 3710TIP3   OH211070   8.199   7.151   1.982
 3710TIP3    H111071   8.160   7.146   1.895
 3710TIP3    H211072   8.207   7.060   2.010
 3711TIP3   OH211073   1.316   4.135   5.283
 3711TIP3    H111074   1.373   4.207   5.256
 3711TIP3    H211075   1.348   4.060   5.234
 3712TIP3   OH211076   7.223   0.520   1.646
 3712TIP3    H111077   7.212   0.452   1.579
 3712TIP3    H211078   7.136   0.559   1.654
 3713TIP3   OH211079   8.102   2.232   1.007
 3713TIP3    H111080   8.038   2.252   1.076
 3713TIP3    H211081   8.174   2.292   1.024
 3714TIP3   OH211082   5.777   0.869   0.664
 3714TIP3    H111083   5.727   0.951   0.673
 3714TIP3    H211084   5.835   0.884   0.589
 3715TIP3   OH211085   4.519   4.238   1.596
 3715TIP3    H111086   4.568   4.185   1.533
 3715TIP3    H211087   4.493   4.316   1.547
 3716TIP3   OH211088   3.077   3.516   0.442
 3716TIP3    H111089   3.085   3.607   0.413
 3716TIP3    H211090   3.158   3.475   0.414
 3717TIP3   OH211091   6.667   0.236   1.750
 3717TIP3    H111092   6.739   0.286   1.789
 3717TIP3    H211093   6.700   0.147   1.744
 3718TIP3   OH211094   0.322   5.694   4.663
 3718TIP3    H111095   0.275   5.691   4.747
 3718TIP3    H211096   0.261   5.738   4.603
 3719TIP3   OH211097   1.288   2.518   2.269
 3719TIP3    H111098   1.235   2.477   2.201
 3719TIP3    H211099   1.227   2.576   2.315
 3720TIP3   OH211100   1.450   0.140   6.814
 3720TIP3    H111101   1.456   0.208   6.747
 3720TIP3    H211102   1.523   0.081   6.796
 3721TIP3   OH211103   5.961   0.499   6.833
 3721TIP3    H111104   5.972   0.536   6.921
 3721TIP3    H211105   5.878   0.536   6.802
 3722TIP3   OH211106   0.228   2.659   0.332
 3722TIP3    H111107   0.298   2.659   0.267
 3722TIP3    H211108   0.147   2.662   0.281
 3723TIP3   OH211109   7.659   4.389   5.810
 3723TIP3    H111110   7.642   4.455   5.743
 3723TIP3    H211111   7.702   4.438   5.881
 3724TIP3   OH211112   5.569   3.522   1.366
 3724TIP3    H111113   5.559   3.469   1.446
 3724TIP3    H211114   5.646   3.576   1.383
 3725TIP3   OH211115   5.922   1.732   6.766
 3725TIP3    H111116   5.835   1.753   6.800
 3725TIP3    H211117   5.929   1.637   6.773
 3726TIP3   OH211118   8.172   0.455   5.892
 3726TIP3    H111119   8.160   0.548   5.873
 3726TIP3    H211120   8.083   0.421   5.901
 3727TIP3   OH211121   5.616   6.516   4.886
 3727TIP3    H111122   5.577   6.431   4.904
 3727TIP3    H211123   5.710   6.500   4.885
 3728TIP3   OH211124   5.801   0.547   6.458
 3728TIP3    H111125   5.732   0.604   6.424
 3728TIP3    H211126   5.881   0.582   6.419
 3729TIP3   OH211127   1.353   6.090   5.811
 3729TIP3    H111128   1.270   6.054   5.781
 3729TIP3    H211129   1.362   6.058   5.901
 3730TIP3   OH211130   4.401   1.437   1.912
 3730TIP3    H111131   4.493   1.410   1.917
 3730TIP3    H211132   4.364   1.381   1.844
 3731TIP3   OH211133   1.070   4.853   1.521
 3731TIP3    H111134   1.078   4.817   1.609
 3731TIP3    H211135   0.977   4.845   1.500
 3732TIP3   OH211136   1.070   6.218   3.367
 3732TIP3    H111137   1.013   6.198   3.294
 3732TIP3    H211138   1.097   6.309   3.352
 3733TIP3   OH211139   4.083   6.434   3.477
 3733TIP3    H111140   4.090   6.524   3.445
 3733TIP3    H211141   4.172   6.411   3.503
 3734TIP3   OH211142   4.112   6.321   2.181
 3734TIP3    H111143   4.139   6.347   2.269
 3734TIP3    H211144   4.176   6.255   2.155
 3735TIP3   OH211145   8.226   7.480   6.375
 3735TIP3    H111146   8.252   7.487   6.283
 3735TIP3    H211147   8.271   7.401   6.406
 3736TIP3   OH211148   7.010   6.999   4.518
 3736TIP3    H111149   7.065   7.007   4.596
 3736TIP3    H211150   6.968   6.914   4.527
 3737TIP3   OH211151   5.950   3.243   4.042
 3737TIP3    H111152   5.887   3.312   4.065
 3737TIP3    H211153   5.956   3.189   4.121
 3738TIP3   OH211154   5.485   2.945   0.776
 3738TIP3    H111155   5.512   3.022   0.826
 3738TIP3    H211156   5.498   2.872   0.836
 3739TIP3   OH211157   0.506   0.238   4.606
 3739TIP3    H111158   0.552   0.322   4.597
 3739TIP3    H211159   0.413   0.261   4.605
 3740TIP3   OH211160   7.387   6.536   3.853
 3740TIP3    H111161   7.347   6.450   3.862
 3740TIP3    H211162   7.481   6.520   3.865
 3741TIP3   OH211163   3.911   0.702   1.368
 3741TIP3    H111164   3.859   0.770   1.325
 3741TIP3    H211165   3.994   0.702   1.321
 3742TIP3   OH211166   3.172   0.272   5.670
 3742TIP3    H111167   3.264   0.283   5.697
 3742TIP3    H211168   3.176   0.258   5.576
 3743TIP3   OH211169   3.547   7.415   4.978
 3743TIP3    H111170   3.479   7.454   4.924
 3743TIP3    H211171   3.624   7.470   4.964
 3744TIP3   OH211172   0.988   0.454   3.190
 3744TIP3    H111173   0.996   0.403   3.271
 3744TIP3    H211174   1.050   0.526   3.201
 3745TIP3   OH211175   0.863   5.285   5.384
 3745TIP3    H111176   0.815   5.304   5.465
 3745TIP3    H211177   0.840   5.195   5.363
 3746TIP3   OH211178   4.608   6.706   3.383
 3746TIP3    H111179   4.655   6.782   3.418
 3746TIP3    H211180   4.602   6.723   3.288
 3747TIP3   OH211181   0.819   7.824   5.232
 3747TIP3    H111182   0.795   7.731   5.236
 3747TIP3    H211183   0.839   7.848   5.322
 3748TIP3   OH211184   5.844   7.278   3.799
 3748TIP3    H111185   5.837   7.195   3.848
 3748TIP3    H211186   5.911   7.261   3.733
 3749TIP3   OH211187   8.060   2.618   2.066
 3749TIP3    H111188   8.148   2.655   2.062
 3749TIP3    H211189   8.031   2.616   1.974
 3750TIP3   OH211190   3.473   6.563   0.837
 3750TIP3    H111191   3.492   6.504   0.764
 3750TIP3    H211192   3.391   6.606   0.812
 3751TIP3   OH211193   0.273   4.319   0.518
 3751TIP3    H111194   0.219   4.284   0.447
 3751TIP3    H211195   0.215   4.317   0.595
 3752TIP3   OH211196   7.906   6.776   3.763
 3752TIP3    H111197   7.874   6.863   3.739
 3752TIP3    H211198   7.953   6.746   3.685
 3753TIP3   OH211199   7.906   1.351   6.777
 3753TIP3    H111200   7.878   1.319   6.692
 3753TIP3    H211201   7.966   1.423   6.757
 3754TIP3   OH211202   6.704   5.735   2.533
 3754TIP3    H111203   6.628   5.747   2.476
 3754TIP3    H211204   6.779   5.738   2.474
 3755TIP3   OH211205   3.689   7.250   1.132
 3755TIP3    H111206   3.634   7.328   1.130
 3755TIP3    H211207   3.727   7.250   1.219
 3756TIP3   OH211208   3.614   3.381   1.461
 3756TIP3    H111209   3.687   3.371   1.400
 3756TIP3    H211210   3.576   3.466   1.440
 3757TIP3   OH211211   1.718   6.531   1.310
 3757TIP3    H111212   1.631   6.512   1.276
 3757TIP3    H211213   1.707   6.534   1.405
 3758TIP3   OH211214   0.808   2.224   3.623
 3758TIP3    H111215   0.885   2.248   3.572
 3758TIP3    H211216   0.813   2.128   3.631
 3759TIP3   OH211217   5.543   7.827   2.279
 3759TIP3    H111218   5.465   7.834   2.225
 3759TIP3    H211219   5.606   7.885   2.239
 3760TIP3   OH211220   4.774   6.945   4.640
 3760TIP3    H111221   4.696   6.956   4.694
 3760TIP3    H211222   4.741   6.943   4.550
 3761TIP3   OH211223   4.576   2.882   2.133
 3761TIP3    H111224   4.659   2.847   2.102
 3761TIP3    H211225   4.510   2.835   2.082
 3762TIP3   OH211226   3.524   7.759   5.981
 3762TIP3    H111227   3.607   7.801   6.004
 3762TIP3    H211228   3.471   7.764   6.060
 3763TIP3   OH211229   1.112   7.052   5.462
 3763TIP3    H111230   1.100   7.084   5.372
 3763TIP3    H211231   1.206   7.040   5.471
 3764TIP3   OH211232   7.500   6.869   1.045
 3764TIP3    H111233   7.433   6.838   0.984
 3764TIP3    H211234   7.470   6.955   1.072
 3765TIP3   OH211235   8.335   0.141   6.694
 3765TIP3    H111236   8.328   0.164   6.601
 3765TIP3    H211237   8.254   0.092   6.713
 3766TIP3   OH211238   0.907   3.088   6.741
 3766TIP3    H111239   0.849   3.017   6.715
 3766TIP3    H211240   0.907   3.148   6.666
 3767TIP3   OH211241   4.424   6.084   1.837
 3767TIP3    H111242   4.462   6.071   1.924
 3767TIP3    H211243   4.405   5.996   1.806
 3768TIP3   OH211244   6.046   1.367   3.171
 3768TIP3    H111245   6.108   1.396   3.239
 3768TIP3    H211246   6.100   1.318   3.109
 3769TIP3   OH211247   7.668   2.001   6.830
 3769TIP3    H111248   7.710   2.032   6.750
 3769TIP3    H211249   7.664   1.906   6.820
 3770TIP3   OH211250   0.746   0.180   4.848
 3770TIP3    H111251   0.749   0.180   4.943
 3770TIP3    H211252   0.694   0.258   4.826
 3771TIP3   OH211253   5.750   2.893   6.414
 3771TIP3    H111254   5.831   2.848   6.439
 3771TIP3    H211255   5.691   2.880   6.489
 3772TIP3   OH211256   1.268   4.699   6.358
 3772TIP3    H111257   1.206   4.756   6.404
 3772TIP3    H211258   1.215   4.654   6.292
 3773TIP3   OH211259   5.444   7.060   6.629
 3773TIP3    H111260   5.494   7.017   6.560
 3773TIP3    H211261   5.353   7.040   6.609
 3774TIP3   OH211262   7.271   6.514   0.689
 3774TIP3    H111263   7.300   6.548   0.605
 3774TIP3    H211264   7.263   6.592   0.745
 3775TIP3   OH211265   5.859   6.357   2.618
 3775TIP3    H111266   5.833   6.269   2.646
 3775TIP3    H211267   5.810   6.416   2.674
 3776TIP3   OH211268   7.800   7.833   4.312
 3776TIP3    H111269   7.825   7.758   4.365
 3776TIP3    H211270   7.708   7.816   4.289
 3777TIP3   OH211271   7.742   2.235   1.562
 3777TIP3    H111272   7.665   2.290   1.574
 3777TIP3    H211273   7.744   2.216   1.468
 3778TIP3   OH211274   0.361   6.611   4.652
 3778TIP3    H111275   0.400   6.646   4.732
 3778TIP3    H211276   0.309   6.683   4.617
 3779TIP3   OH211277   7.160   2.072   0.120
 3779TIP3    H111278   7.200   1.997   0.078
 3779TIP3    H211279   7.078   2.039   0.155
 3780TIP3   OH211280   3.959   4.520   4.086
 3780TIP3    H111281   4.019   4.457   4.046
 3780TIP3    H211282   3.880   4.516   4.033
 3781TIP3   OH211283   6.235   1.201   5.733
 3781TIP3    H111284   6.265   1.167   5.649
 3781TIP3    H211285   6.291   1.276   5.750
 3782TIP3   OH211286   8.170   3.038   0.378
 3782TIP3    H111287   8.264   3.021   0.385
 3782TIP3    H211288   8.140   2.977   0.311
 3783TIP3   OH211289   6.188   5.235   6.037
 3783TIP3    H111290   6.180   5.320   5.994
 3783TIP3    H211291   6.263   5.244   6.095
 3784TIP3   OH211292   2.996   3.186   6.614
 3784TIP3    H111293   2.948   3.254   6.662
 3784TIP3    H211294   2.929   3.120   6.592
 3785TIP3   OH211295   6.616   5.313   1.936
 3785TIP3    H111296   6.707   5.285   1.928
 3785TIP3    H211297   6.574   5.244   1.987
 3786TIP3   OH211298   1.282   4.061   3.714
 3786TIP3    H111299   1.268   3.971   3.686
 3786TIP3    H211300   1.216   4.075   3.783
 3787TIP3   OH211301   7.701   3.840   3.742
 3787TIP3    H111302   7.713   3.884   3.826
 3787TIP3    H211303   7.763   3.884   3.683
 3788TIP3   OH211304   2.882   7.736   3.000
 3788TIP3    H111305   2.850   7.678   2.931
 3788TIP3    H211306   2.957   7.689   3.037
 3789TIP3   OH211307   2.548   0.239   6.350
 3789TIP3    H111308   2.577   0.161   6.398
 3789TIP3    H211309   2.599   0.237   6.269
 3790TIP3   OH211310   4.419   6.892   0.825
 3790TIP3    H111311   4.397   6.985   0.831
 3790TIP3    H211312   4.360   6.858   0.758
 3791TIP3   OH211313   2.064   3.562   4.383
 3791TIP3    H111314   2.035   3.574   4.473
 3791TIP3    H211315   2.055   3.468   4.368
 3792TIP3   OH211316   1.571   0.084   0.245
 3792TIP3    H111317   1.570   0.110   0.337
 3792TIP3    H211318   1.540   0.162   0.198
 3793TIP3   OH211319   7.257   6.233   2.513
 3793TIP3    H111320   7.320   6.288   2.559
 3793TIP3    H211321   7.310   6.179   2.455
 3794TIP3   OH211322   2.903   1.908   5.881
 3794TIP3    H111323   2.910   1.992   5.836
 3794TIP3    H211324   2.811   1.884   5.872
 3795TIP3   OH211325   1.580   7.797   3.615
 3795TIP3    H111326   1.597   7.805   3.709
 3795TIP3    H211327   1.658   7.753   3.580
 3796TIP3   OH211328   3.239   3.385   6.471
 3796TIP3    H111329   3.191   3.307   6.443
 3796TIP3    H211330   3.325   3.352   6.496
 3797TIP3   OH211331   4.528   6.470   6.056
 3797TIP3    H111332   4.485   6.509   5.980
 3797TIP3    H211333   4.619   6.501   6.051
 3798TIP3   OH211334   4.318   7.738   0.074
 3798TIP3    H111335   4.387   7.740   0.141
 3798TIP3    H211336   4.355   7.684   0.004
 3799TIP3   OH211337   5.154   6.870   5.627
 3799TIP3    H111338   5.108   6.954   5.632
 3799TIP3    H211339   5.149   6.845   5.535
 3800TIP3   OH211340   2.261   5.417   3.084
 3800TIP3    H111341   2.213   5.423   3.001
 3800TIP3    H211342   2.238   5.496   3.132
 3801TIP3   OH211343   5.402   3.247   1.507
 3801TIP3    H111344   5.469   3.296   1.555
 3801TIP3    H211345   5.323   3.301   1.517
 3802TIP3   OH211346   5.781   0.407   0.470
 3802TIP3    H111347   5.749   0.496   0.481
 3802TIP3    H211348   5.715   0.352   0.512
 3803TIP3   OH211349   4.932   2.476   6.325
 3803TIP3    H111350   4.941   2.477   6.230
 3803TIP3    H211351   5.017   2.509   6.357
 3804TIP3   OH211352   6.211   0.741   1.794
 3804TIP3    H111353   6.281   0.751   1.858
 3804TIP3    H211354   6.135   0.782   1.835
 3805TIP3   OH211355   0.689   1.396   5.605
 3805TIP3    H111356   0.667   1.489   5.599
 3805TIP3    H211357   0.780   1.394   5.634
 3806TIP3   OH211358   5.729   3.919   4.129
 3806TIP3    H111359   5.695   3.871   4.205
 3806TIP3    H211360   5.671   3.895   4.057
 3807TIP3   OH211361   2.322   0.250   4.011
 3807TIP3    H111362   2.376   0.329   3.998
 3807TIP3    H211363   2.241   0.268   3.964
 3808TIP3   OH211364   6.659   4.932   0.234
 3808TIP3    H111365   6.632   5.012   0.279
 3808TIP3    H211366   6.578   4.883   0.222
 3809TIP3   OH211367   0.495   5.359   2.955
 3809TIP3    H111368   0.520   5.313   2.875
 3809TIP3    H211369   0.578   5.392   2.990
 3810TIP3   OH211370   5.388   7.766   0.767
 3810TIP3    H111371   5.411   7.817   0.689
 3810TIP3    H211372   5.304   7.726   0.746
 3811TIP3   OH211373   6.870   5.457   2.042
 3811TIP3    H111374   6.891   5.378   1.993
 3811TIP3    H211375   6.869   5.527   1.976
 3812TIP3   OH211376   3.341   6.578   2.328
 3812TIP3    H111377   3.365   6.493   2.291
 3812TIP3    H211378   3.404   6.592   2.399
 3813TIP3   OH211379   4.896   4.681   6.396
 3813TIP3    H111380   4.912   4.623   6.321
 3813TIP3    H211381   4.979   4.727   6.408
 3814TIP3   OH211382   4.852   3.173   5.890
 3814TIP3    H111383   4.770   3.206   5.929
 3814TIP3    H211384   4.824   3.123   5.814
 3815TIP3   OH211385   4.263   6.938   1.422
 3815TIP3    H111386   4.286   6.974   1.336
 3815TIP3    H211387   4.346   6.912   1.460
 3816TIP3   OH211388   0.308   2.152   1.801
 3816TIP3    H111389   0.344   2.118   1.884
 3816TIP3    H211390   0.227   2.195   1.827
 3817TIP3   OH211391   3.335   4.409   1.569
 3817TIP3    H111392   3.413   4.412   1.513
 3817TIP3    H211393   3.357   4.347   1.638
 3818TIP3   OH211394   3.139   6.192   1.441
 3818TIP3    H111395   3.181   6.237   1.368
 3818TIP3    H211396   3.052   6.170   1.408
 3819TIP3   OH211397   6.888   5.769   0.067
 3819TIP3    H111398   6.942   5.847   0.063
 3819TIP3    H211399   6.816   5.792   0.125
 3820TIP3   OH211400   5.685   1.199   6.340
 3820TIP3    H111401   5.660   1.269   6.279
 3820TIP3    H211402   5.773   1.174   6.313
 3821TIP3   OH211403   7.821   0.937   0.409
 3821TIP3    H111404   7.892   0.899   0.357
 3821TIP3    H211405   7.796   0.867   0.470
 3822TIP3   OH211406   0.893   1.088   6.191
 3822TIP3    H111407   0.972   1.124   6.151
 3822TIP3    H211408   0.837   1.064   6.118
 3823TIP3   OH211409   2.602   0.622   5.361
 3823TIP3    H111410   2.561   0.579   5.436
 3823TIP3    H211411   2.673   0.674   5.398
 3824TIP3   OH211412   6.002   5.351   5.643
 3824TIP3    H111413   6.083   5.376   5.688
 3824TIP3    H211414   6.025   5.350   5.550
 3825TIP3   OH211415   2.094   0.521   2.497
 3825TIP3    H111416   2.084   0.490   2.406
 3825TIP3    H211417   2.027   0.472   2.546
 3826TIP3   OH211418   7.309   6.454   0.051
 3826TIP3    H111419   7.268   6.387   0.105
 3826TIP3    H211420   7.287   6.537   0.094
 3827TIP3   OH211421   3.788   7.772   3.435
 3827TIP3    H111422   3.835   7.692   3.457
 3827TIP3    H211423   3.792   7.825   3.515
 3828TIP3   OH211424   7.645   6.326   1.802
 3828TIP3    H111425   7.645   6.369   1.717
 3828TIP3    H211426   7.733   6.291   1.812
 3829TIP3   OH211427   2.009   4.149   4.255
 3829TIP3    H111428   1.924   4.180   4.286
 3829TIP3    H211429   2.011   4.175   4.163
 3830TIP3   OH211430   1.528   2.000   2.697
 3830TIP3    H111431   1.525   2.020   2.603
 3830TIP3    H211432   1.561   1.911   2.701
 3831TIP3   OH211433   1.924   0.319   1.902
 3831TIP3    H111434   1.866   0.388   1.936
 3831TIP3    H211435   1.942   0.264   1.979
 3832TIP3   OH211436   4.041   4.782   4.696
 3832TIP3    H111437   4.062   4.871   4.724
 3832TIP3    H211438   4.069   4.778   4.605
 3833TIP3   OH211439   4.340   6.487   5.854
 3833TIP3    H111440   4.371   6.397   5.865
 3833TIP3    H211441   4.246   6.483   5.870
 3834TIP3   OH211442   5.242   2.230   3.042
 3834TIP3    H111443   5.216   2.322   3.042
 3834TIP3    H211444   5.291   2.218   2.961
 3835TIP3   OH211445   3.639   7.098   6.576
 3835TIP3    H111446   3.660   7.023   6.522
 3835TIP3    H211447   3.722   7.122   6.617
 3836TIP3   OH211448   1.302   1.906   2.871
 3836TIP3    H111449   1.365   1.942   2.809
 3836TIP3    H211450   1.257   1.982   2.906
 3837TIP3   OH211451   3.508   1.750   3.712
 3837TIP3    H111452   3.487   1.656   3.716
 3837TIP3    H211453   3.495   1.774   3.621
 3838TIP3   OH211454   1.664   5.033   4.337
 3838TIP3    H111455   1.605   5.035   4.262
 3838TIP3    H211456   1.631   4.962   4.392
 3839TIP3   OH211457   7.549   2.545   0.931
 3839TIP3    H111458   7.515   2.523   0.845
 3839TIP3    H211459   7.573   2.461   0.971
 3840TIP3   OH211460   3.246   1.545   2.673
 3840TIP3    H111461   3.199   1.628   2.677
 3840TIP3    H211462   3.184   1.479   2.705
 3841TIP3   OH211463   1.033   7.816   0.021
 3841TIP3    H111464   0.945   7.843  -0.004
 3841TIP3    H211465   1.037   7.723  -0.005
 3842TIP3   OH211466   3.266   7.768   1.628
 3842TIP3    H111467   3.255   7.683   1.670
 3842TIP3    H211468   3.284   7.829   1.700
 3843TIP3   OH211469   6.116   6.598   1.485
 3843TIP3    H111470   6.134   6.551   1.566
 3843TIP3    H211471   6.069   6.677   1.513
 3844TIP3   OH211472   0.420   1.630   6.464
 3844TIP3    H111473   0.436   1.722   6.441
 3844TIP3    H211474   0.369   1.634   6.545
 3845TIP3   OH211475   4.444   5.740   0.658
 3845TIP3    H111476   4.406   5.821   0.624
 3845TIP3    H211477   4.481   5.764   0.742
 3846TIP3   OH211478   4.702   6.029   5.635
 3846TIP3    H111479   4.797   6.033   5.620
 3846TIP3    H211480   4.678   5.939   5.610
 3847TIP3   OH211481   4.439   1.087   0.678
 3847TIP3    H111482   4.464   1.012   0.623
 3847TIP3    H211483   4.522   1.126   0.705
 3848TIP3   OH211484   1.356   6.928   0.551
 3848TIP3    H111485   1.407   6.955   0.628
 3848TIP3    H211486   1.400   6.849   0.520
 3849TIP3   OH211487   0.371   6.000   4.147
 3849TIP3    H111488   0.429   5.949   4.204
 3849TIP3    H211489   0.430   6.056   4.097
 3850TIP3   OH211490   4.515   5.670   6.256
 3850TIP3    H111491   4.497   5.592   6.309
 3850TIP3    H211492   4.502   5.641   6.165
 3851TIP3   OH211493   7.533   4.166   1.282
 3851TIP3    H111494   7.495   4.089   1.239
 3851TIP3    H211495   7.509   4.239   1.225
 3852TIP3   OH211496   4.011   2.210   4.164
 3852TIP3    H111497   3.947   2.243   4.101
 3852TIP3    H211498   4.001   2.115   4.161
 3853TIP3   OH211499   3.272   2.569   2.942
 3853TIP3    H111500   3.275   2.537   3.032
 3853TIP3    H211501   3.196   2.627   2.939
 3854TIP3   OH211502   2.033   1.830   4.992
 3854TIP3    H111503   2.078   1.770   4.932
 3854TIP3    H211504   1.971   1.878   4.937
 3855TIP3   OH211505   4.844   4.217   4.549
 3855TIP3    H111506   4.872   4.308   4.555
 3855TIP3    H211507   4.749   4.220   4.559
 3856TIP3   OH211508   7.245   6.898   5.346
 3856TIP3    H111509   7.292   6.817   5.368
 3856TIP3    H211510   7.308   6.968   5.362
 3857TIP3   OH211511   4.337   7.763   3.185
 3857TIP3    H111512   4.324   7.695   3.250
 3857TIP3    H211513   4.418   7.739   3.140
 3858TIP3   OH211514   2.521   3.844   2.905
 3858TIP3    H111515   2.473   3.871   2.827
 3858TIP3    H211516   2.521   3.749   2.902
 3859TIP3   OH211517   3.353   0.101   4.592
 3859TIP3    H111518   3.396   0.019   4.614
 3859TIP3    H211519   3.422   0.154   4.551
 3860TIP3   OH211520   1.920   6.520   3.012
 3860TIP3    H111521   1.830   6.550   2.999
 3860TIP3    H211522   1.918   6.427   2.991
 3861TIP3   OH211523   6.937   3.015   2.104
 3861TIP3    H111524   6.976   3.074   2.040
 3861TIP3    H211525   6.943   2.929   2.064
 3862TIP3   OH211526   8.243   4.174   1.387
 3862TIP3    H111527   8.338   4.181   1.381
 3862TIP3    H211528   8.220   4.224   1.466
 3863TIP3   OH211529   5.349   0.498   6.525
 3863TIP3    H111530   5.312   0.496   6.613
 3863TIP3    H211531   5.428   0.445   6.531
 3864TIP3   OH211532   3.590   4.141   4.057
 3864TIP3    H111533   3.562   4.232   4.062
 3864TIP3    H211534   3.559   4.102   4.139
 3865TIP3   OH211535   0.725   6.120   6.376
 3865TIP3    H111536   0.668   6.045   6.357
 3865TIP3    H211537   0.665   6.195   6.381
 3866TIP3   OH211538   3.675   4.458   3.021
 3866TIP3    H111539   3.639   4.377   3.057
 3866TIP3    H211540   3.617   4.480   2.947
 3867TIP3   OH211541   2.698   1.080   0.365
 3867TIP3    H111542   2.691   1.101   0.272
 3867TIP3    H211543   2.619   1.119   0.404
 3868TIP3   OH211544   0.377   3.004   5.710
 3868TIP3    H111545   0.302   2.980   5.656
 3868TIP3    H211546   0.429   3.062   5.655
 3869TIP3   OH211547   6.120   7.783   2.766
 3869TIP3    H111548   6.122   7.688   2.753
 3869TIP3    H211549   6.056   7.814   2.702
 3870TIP3   OH211550   6.111   1.473   2.755
 3870TIP3    H111551   6.187   1.484   2.813
 3870TIP3    H211552   6.036   1.498   2.809
 3871TIP3   OH211553   3.914   0.300   2.584
 3871TIP3    H111554   4.006   0.283   2.603
 3871TIP3    H211555   3.885   0.358   2.654
 3872TIP3   OH211556   8.267   7.709   3.240
 3872TIP3    H111557   8.269   7.779   3.175
 3872TIP3    H211558   8.332   7.646   3.209
 3873TIP3   OH211559   3.524   0.508   1.477
 3873TIP3    H111560   3.573   0.588   1.496
 3873TIP3    H211561   3.486   0.524   1.390
 3874TIP3   OH211562   5.926   6.648   0.115
 3874TIP3    H111563   5.932   6.632   0.209
 3874TIP3    H211564   5.836   6.623   0.092
 3875TIP3   OH211565   1.454   1.018   3.216
 3875TIP3    H111566   1.543   1.004   3.184
 3875TIP3    H211567   1.448   1.113   3.229
 3876TIP3   OH211568   4.686   7.437   5.075
 3876TIP3    H111569   4.719   7.431   5.164
 3876TIP3    H211570   4.737   7.374   5.025
 3877TIP3   OH211571   2.056   2.759   1.904
 3877TIP3    H111572   2.126   2.823   1.915
 3877TIP3    H211573   1.982   2.796   1.952
 3878TIP3   OH211574   4.464   5.672   4.506
 3878TIP3    H111575   4.442   5.760   4.537
 3878TIP3    H211576   4.423   5.613   4.569
 3879TIP3   OH211577   7.594   5.943   0.903
 3879TIP3    H111578   7.616   5.956   0.995
 3879TIP3    H211579   7.498   5.939   0.901
 3880TIP3   OH211580   3.715   0.200   4.695
 3880TIP3    H111581   3.755   0.247   4.622
 3880TIP3    H211582   3.787   0.187   4.758
 3881TIP3   OH211583   5.955   5.151   1.316
 3881TIP3    H111584   6.045   5.154   1.286
 3881TIP3    H211585   5.917   5.073   1.275
 3882TIP3   OH211586   6.237   1.111   4.703
 3882TIP3    H111587   6.142   1.113   4.704
 3882TIP3    H211588   6.261   1.062   4.782
 3883TIP3   OH211589   4.079   6.315   4.158
 3883TIP3    H111590   4.119   6.355   4.081
 3883TIP3    H211591   4.130   6.350   4.232
 3884TIP3   OH211592   7.113   1.759   2.484
 3884TIP3    H111593   7.143   1.791   2.569
 3884TIP3    H211594   7.031   1.806   2.468
 3885TIP3   OH211595   3.459   2.269   0.691
 3885TIP3    H111596   3.459   2.304   0.602
 3885TIP3    H211597   3.398   2.326   0.739
 3886TIP3   OH211598   4.366   7.356   0.209
 3886TIP3    H111599   4.444   7.411   0.200
 3886TIP3    H211600   4.334   7.345   0.119
 3887TIP3   OH211601   6.555   1.296   3.056
 3887TIP3    H111602   6.462   1.301   3.078
 3887TIP3    H211603   6.563   1.340   2.972
 3888TIP3   OH211604   0.098   1.294   4.143
 3888TIP3    H111605   0.172   1.238   4.118
 3888TIP3    H211606   0.080   1.271   4.234
 3889TIP3   OH211607   0.006   7.358   6.195
 3889TIP3    H111608   0.053   7.338   6.114
 3889TIP3    H211609   0.074   7.381   6.258
 3890TIP3   OH211610   4.835   4.468   0.512
 3890TIP3    H111611   4.879   4.393   0.553
 3890TIP3    H211612   4.754   4.431   0.476
 3891TIP3   OH211613   0.129   0.789   5.135
 3891TIP3    H111614   0.093   0.706   5.165
 3891TIP3    H211615   0.182   0.820   5.208
 3892TIP3   OH211616   0.780   2.681   5.280
 3892TIP3    H111617   0.763   2.615   5.347
 3892TIP3    H211618   0.704   2.675   5.221
 3893TIP3   OH211619   8.407   3.974   2.242
 3893TIP3    H111620   8.394   3.882   2.220
 3893TIP3    H211621   8.371   4.022   2.168
 3894TIP3   OH211622   4.453   0.482   0.913
 3894TIP3    H111623   4.523   0.445   0.859
 3894TIP3    H211624   4.394   0.409   0.930
 3895TIP3   OH211625   5.003   0.757   3.604
 3895TIP3    H111626   4.954   0.802   3.536
 3895TIP3    H211627   5.076   0.716   3.558
 3896TIP3   OH211628   3.157   5.945   2.141
 3896TIP3    H111629   3.242   5.901   2.143
 3896TIP3    H211630   3.094   5.874   2.134
 3897TIP3   OH211631   4.792   7.142   2.869
 3897TIP3    H111632   4.840   7.159   2.788
 3897TIP3    H211633   4.859   7.120   2.933
 3898TIP3   OH211634   5.800   2.587   3.631
 3898TIP3    H111635   5.812   2.680   3.614
 3898TIP3    H211636   5.708   2.579   3.656
 3899TIP3   OH211637   0.647   1.200   2.539
 3899TIP3    H111638   0.625   1.126   2.595
 3899TIP3    H211639   0.563   1.239   2.514
 3900TIP3   OH211640   0.750   0.034   6.793
 3900TIP3    H111641   0.728   0.127   6.787
 3900TIP3    H211642   0.708  -0.005   6.716
 3901TIP3   OH211643   4.664   6.537   2.242
 3901TIP3    H111644   4.659   6.632   2.246
 3901TIP3    H211645   4.749   6.516   2.282
 3902TIP3   OH211646   0.245   3.468   3.281
 3902TIP3    H111647   0.216   3.399   3.222
 3902TIP3    H211648   0.187   3.542   3.263
 3903TIP3   OH211649   3.632   7.439   2.803
 3903TIP3    H111650   3.653   7.528   2.773
 3903TIP3    H211651   3.537   7.433   2.797
 3904TIP3   OH211652   3.789   4.463   4.518
 3904TIP3    H111653   3.791   4.439   4.611
 3904TIP3    H211654   3.764   4.383   4.473
 3905TIP3   OH211655   8.249   1.073   4.214
 3905TIP3    H111656   8.333   1.099   4.252
 3905TIP3    H211657   8.207   1.155   4.189
 3906TIP3   OH211658   4.283   2.992   4.422
 3906TIP3    H111659   4.285   2.898   4.442
 3906TIP3    H211660   4.367   3.009   4.378
 3907TIP3   OH211661   4.162   6.684   1.243
 3907TIP3    H111662   4.160   6.621   1.315
 3907TIP3    H211663   4.218   6.755   1.275
 3908TIP3   OH211664   3.430   1.826   1.045
 3908TIP3    H111665   3.455   1.849   0.956
 3908TIP3    H211666   3.512   1.805   1.089
 3909TIP3   OH211667   1.513   1.914   5.782
 3909TIP3    H111668   1.508   2.008   5.765
 3909TIP3    H211669   1.437   1.878   5.738
 3910TIP3   OH211670   7.809   7.904   5.755
 3910TIP3    H111671   7.894   7.888   5.713
 3910TIP3    H211672   7.756   7.944   5.686
 3911TIP3   OH211673   1.202   1.817   3.837
 3911TIP3    H111674   1.128   1.767   3.803
 3911TIP3    H211675   1.226   1.772   3.918
 3912TIP3   OH211676   4.289   3.320   5.538
 3912TIP3    H111677   4.265   3.297   5.628
 3912TIP3    H211678   4.291   3.415   5.536
 3913TIP3   OH211679   4.929   1.209   3.861
 3913TIP3    H111680   4.940   1.136   3.800
 3913TIP3    H211681   5.009   1.260   3.852
 3914TIP3   OH211682   8.145   7.424   2.575
 3914TIP3    H111683   8.171   7.333   2.585
 3914TIP3    H211684   8.059   7.429   2.616
 3915TIP3   OH211685   0.121   1.775   1.846
 3915TIP3    H111686   0.195   1.774   1.907
 3915TIP3    H211687   0.044   1.763   1.900
 3916TIP3   OH211688   0.982   7.790   1.513
 3916TIP3    H111689   0.916   7.834   1.459
 3916TIP3    H211690   0.933   7.725   1.563
 3917TIP3   OH211691   2.104   1.639   4.048
 3917TIP3    H111692   2.042   1.570   4.021
 3917TIP3    H211693   2.190   1.603   4.027
 3918TIP3   OH211694   7.117   3.955   1.759
 3918TIP3    H111695   7.191   3.994   1.713
 3918TIP3    H211696   7.090   4.022   1.823
 3919TIP3   OH211697   3.108   6.253   0.310
 3919TIP3    H111698   3.025   6.225   0.349
 3919TIP3    H211699   3.095   6.241   0.216
 3920TIP3   OH211700   3.218   6.034   5.748
 3920TIP3    H111701   3.161   6.073   5.814
 3920TIP3    H211702   3.218   5.941   5.767
 3921TIP3   OH211703   2.125   1.360   4.781
 3921TIP3    H111704   2.204   1.353   4.836
 3921TIP3    H211705   2.056   1.385   4.842
 3922TIP3   OH211706   7.031   3.114   1.298
 3922TIP3    H111707   6.938   3.116   1.278
 3922TIP3    H211708   7.074   3.153   1.222
 3923TIP3   OH211709   2.459   2.778   1.620
 3923TIP3    H111710   2.482   2.707   1.560
 3923TIP3    H211711   2.434   2.734   1.701
 3924TIP3   OH211712   6.113   3.566   5.884
 3924TIP3    H111713   6.206   3.577   5.904
 3924TIP3    H211714   6.086   3.652   5.850
 3925TIP3   OH211715   4.143   7.446   2.668
 3925TIP3    H111716   4.125   7.357   2.696
 3925TIP3    H211717   4.061   7.477   2.630
 3926TIP3   OH211718   2.655   7.882   6.320
 3926TIP3    H111719   2.562   7.904   6.325
 3926TIP3    H211720   2.686   7.924   6.241
 3927TIP3   OH211721   7.231   2.623   3.335
 3927TIP3    H111722   7.278   2.566   3.395
 3927TIP3    H211723   7.274   2.708   3.344
 3928TIP3   OH211724   7.738   0.551   4.727
 3928TIP3    H111725   7.770   0.606   4.656
 3928TIP3    H211726   7.773   0.592   4.806
 3929TIP3   OH211727   1.711   6.303   6.590
 3929TIP3    H111728   1.730   6.380   6.644
 3929TIP3    H211729   1.735   6.329   6.501
 3930TIP3   OH211730   5.827   0.097   3.359
 3930TIP3    H111731   5.733   0.079   3.365
 3930TIP3    H211732   5.833   0.192   3.363
 3931TIP3   OH211733   2.989   0.520   2.054
 3931TIP3    H111734   3.074   0.559   2.076
 3931TIP3    H211735   2.993   0.432   2.093
 3932TIP3   OH211736   8.316   4.549   5.211
 3932TIP3    H111737   8.381   4.603   5.256
 3932TIP3    H211738   8.262   4.512   5.281
 3933TIP3   OH211739   3.397   3.665   0.710
 3933TIP3    H111740   3.329   3.598   0.709
 3933TIP3    H211741   3.425   3.672   0.618
 3934TIP3   OH211742   3.943   4.588   4.870
 3934TIP3    H111743   3.948   4.637   4.788
 3934TIP3    H211744   3.870   4.528   4.857
 3935TIP3   OH211745   3.239   2.883   1.008
 3935TIP3    H111746   3.185   2.962   0.999
 3935TIP3    H211747   3.250   2.872   1.102
 3936TIP3   OH211748   1.840   6.231   1.334
 3936TIP3    H111749   1.754   6.190   1.346
 3936TIP3    H211750   1.833   6.281   1.253
 3937TIP3   OH211751   1.171   3.476   5.496
 3937TIP3    H111752   1.161   3.555   5.443
 3937TIP3    H211753   1.171   3.404   5.432
 3938TIP3   OH211754   7.053   2.607   5.512
 3938TIP3    H111755   7.021   2.560   5.435
 3938TIP3    H211756   7.023   2.553   5.586
 3939TIP3   OH211757   0.581   1.479   3.972
 3939TIP3    H111758   0.656   1.431   4.006
 3939TIP3    H211759   0.520   1.484   4.046
 3940TIP3   OH211760   5.855   3.884   6.015
 3940TIP3    H111761   5.943   3.913   6.040
 3940TIP3    H211762   5.855   3.790   6.031
 3941TIP3   OH211763   2.182   3.939   6.010
 3941TIP3    H111764   2.100   3.889   6.004
 3941TIP3    H211765   2.229   3.916   5.930
 3942TIP3   OH211766   0.750   7.054   5.266
 3942TIP3    H111767   0.768   6.995   5.192
 3942TIP3    H211768   0.700   7.126   5.227
 3943TIP3   OH211769   7.428   7.280   0.255
 3943TIP3    H111770   7.496   7.217   0.230
 3943TIP3    H211771   7.435   7.287   0.350
 3944TIP3   OH211772   6.330   0.868   5.963
 3944TIP3    H111773   6.254   0.824   5.925
 3944TIP3    H211774   6.310   0.872   6.057
 3945TIP3   OH211775   1.024   2.036   3.751
 3945TIP3    H111776   1.075   2.090   3.691
 3945TIP3    H211777   1.088   2.003   3.814
 3946TIP3   OH211778   7.855   0.193   0.949
 3946TIP3    H111779   7.822   0.140   0.876
 3946TIP3    H211780   7.831   0.283   0.926
 3947TIP3   OH211781   6.997   1.772   3.800
 3947TIP3    H111782   6.963   1.685   3.781
 3947TIP3    H211783   7.087   1.771   3.766
 3948TIP3   OH211784   4.531   4.213   0.743
 3948TIP3    H111785   4.475   4.281   0.780
 3948TIP3    H211786   4.602   4.261   0.701
 3949TIP3   OH211787   6.991   7.753   4.433
 3949TIP3    H111788   7.067   7.788   4.480
 3949TIP3    H211789   6.957   7.826   4.382
 3950TIP3   OH211790   4.484   1.036   2.151
 3950TIP3    H111791   4.398   1.066   2.121
 3950TIP3    H211792   4.491   0.947   2.118
 3951TIP3   OH211793   4.308   7.738   1.094
 3951TIP3    H111794   4.277   7.693   1.173
 3951TIP3    H211795   4.243   7.807   1.080
 3952TIP3   OH211796   0.917   6.030   1.243
 3952TIP3    H111797   0.909   6.116   1.203
 3952TIP3    H211798   0.858   6.032   1.319
 3953TIP3   OH211799   7.626   2.935   0.675
 3953TIP3    H111800   7.630   2.910   0.583
 3953TIP3    H211801   7.647   2.854   0.722
 3954TIP3   OH211802   1.773   4.320   3.096
 3954TIP3    H111803   1.785   4.365   3.180
 3954TIP3    H211804   1.810   4.380   3.031
 3955TIP3   OH211805   5.918   3.365   3.407
 3955TIP3    H111806   5.924   3.460   3.399
 3955TIP3    H211807   5.924   3.349   3.501
 3956TIP3   OH211808   3.652   7.152   2.999
 3956TIP3    H111809   3.643   7.067   2.956
 3956TIP3    H211810   3.570   7.163   3.047
 3957TIP3   OH211811   5.706   2.748   1.464
 3957TIP3    H111812   5.693   2.726   1.372
 3957TIP3    H211813   5.662   2.832   1.476
 3958TIP3   OH211814   1.462   2.611   4.499
 3958TIP3    H111815   1.415   2.553   4.439
 3958TIP3    H211816   1.393   2.662   4.542
 3959TIP3   OH211817   2.991   6.273   3.148
 3959TIP3    H111818   3.044   6.329   3.091
 3959TIP3    H211819   2.992   6.188   3.104
 3960TIP3   OH211820   0.519   2.002   5.866
 3960TIP3    H111821   0.545   1.983   5.956
 3960TIP3    H211822   0.454   1.935   5.845
 3961TIP3   OH211823   1.639   4.815   4.570
 3961TIP3    H111824   1.600   4.784   4.651
 3961TIP3    H211825   1.588   4.772   4.501
 3962TIP3   OH211826   2.352   4.777   2.724
 3962TIP3    H111827   2.410   4.702   2.712
 3962TIP3    H211828   2.341   4.813   2.636
 3963TIP3   OH211829   3.178   4.956   4.352
 3963TIP3    H111830   3.265   4.930   4.380
 3963TIP3    H211831   3.143   5.007   4.426
 3964TIP3   OH211832   8.320   2.612   1.937
 3964TIP3    H111833   8.363   2.575   1.860
 3964TIP3    H211834   8.390   2.659   1.983
 3965TIP3   OH211835   4.123   2.183   5.677
 3965TIP3    H111836   4.125   2.109   5.617
 3965TIP3    H211837   4.177   2.156   5.751
 3966TIP3   OH211838   4.263   7.037   1.893
 3966TIP3    H111839   4.213   6.979   1.835
 3966TIP3    H211840   4.310   7.095   1.834
 3967TIP3   OH211841   5.463   1.006   4.156
 3967TIP3    H111842   5.372   1.031   4.142
 3967TIP3    H211843   5.460   0.940   4.225
 3968TIP3   OH211844   2.621   6.998   6.118
 3968TIP3    H111845   2.597   6.914   6.079
 3968TIP3    H211846   2.715   7.005   6.104
 3969TIP3   OH211847   3.010   6.993   4.435
 3969TIP3    H111848   3.084   6.933   4.439
 3969TIP3    H211849   2.989   7.011   4.527
 3970TIP3   OH211850   5.582   0.810   3.474
 3970TIP3    H111851   5.588   0.723   3.514
 3970TIP3    H211852   5.657   0.815   3.415
 3971TIP3   OH211853   5.734   5.618   1.218
 3971TIP3    H111854   5.824   5.645   1.235
 3971TIP3    H211855   5.730   5.526   1.244
 3972TIP3   OH211856   7.321   6.101   5.931
 3972TIP3    H111857   7.253   6.120   5.866
 3972TIP3    H211858   7.400   6.088   5.879
 3973TIP3   OH211859   6.127   7.080   3.862
 3973TIP3    H111860   6.151   6.990   3.843
 3973TIP3    H211861   6.180   7.103   3.938
 3974TIP3   OH211862   7.104   7.723   6.697
 3974TIP3    H111863   7.026   7.767   6.730
 3974TIP3    H211864   7.127   7.773   6.618
 3975TIP3   OH211865   7.742   4.357   2.504
 3975TIP3    H111866   7.679   4.419   2.541
 3975TIP3    H211867   7.822   4.408   2.491
 3976TIP3   OH211868   7.724   3.119   4.575
 3976TIP3    H111869   7.795   3.055   4.584
 3976TIP3    H211870   7.769   3.202   4.558
 3977TIP3   OH211871   4.289   2.719   4.402
 3977TIP3    H111872   4.206   2.697   4.443
 3977TIP3    H211873   4.338   2.636   4.401
 3978TIP3   OH211874   4.708   2.135   5.484
 3978TIP3    H111875   4.742   2.220   5.511
 3978TIP3    H211876   4.785   2.078   5.482
 3979TIP3   OH211877   2.205   2.860   0.030
 3979TIP3    H111878   2.164   2.918  -0.034
 3979TIP3    H211879   2.135   2.804   0.061
 3980TIP3   OH211880   6.011   4.249   1.293
 3980TIP3    H111881   6.039   4.215   1.208
 3980TIP3    H211882   6.069   4.323   1.310
 3981TIP3   OH211883   6.141   2.490   5.673
 3981TIP3    H111884   6.122   2.427   5.604
 3981TIP3    H211885   6.127   2.576   5.632
 3982TIP3   OH211886   0.910   7.422   3.465
 3982TIP3    H111887   0.970   7.357   3.501
 3982TIP3    H211888   0.964   7.473   3.404
 3983TIP3   OH211889   0.976   3.397   3.398
 3983TIP3    H111890   0.883   3.415   3.403
 3983TIP3    H211891   0.997   3.356   3.483
 3984TIP3   OH211892   7.794   2.210  -0.002
 3984TIP3    H111893   7.835   2.212   0.084
 3984TIP3    H211894   7.866   2.191  -0.062
 3985TIP3   OH211895   5.127   3.588   3.465
 3985TIP3    H111896   5.102   3.631   3.383
 3985TIP3    H211897   5.138   3.496   3.443
 3986TIP3   OH211898   8.052   3.894   2.823
 3986TIP3    H111899   8.111   3.864   2.754
 3986TIP3    H211900   8.077   3.842   2.900
 3987TIP3   OH211901   6.305   2.879   4.325
 3987TIP3    H111902   6.248   2.876   4.248
 3987TIP3    H211903   6.315   2.972   4.344
 3988TIP3   OH211904   0.243   2.451   3.769
 3988TIP3    H111905   0.182   2.376   3.763
 3988TIP3    H211906   0.278   2.460   3.680
 3989TIP3   OH211907   7.238   1.624   4.753
 3989TIP3    H111908   7.308   1.681   4.719
 3989TIP3    H211909   7.189   1.597   4.675
 3990TIP3   OH211910   3.412   1.897   5.209
 3990TIP3    H111911   3.357   1.916   5.285
 3990TIP3    H211912   3.485   1.846   5.244
 3991TIP3   OH211913   8.347   0.386   1.761
 3991TIP3    H111914   8.405   0.372   1.837
 3991TIP3    H211915   8.381   0.465   1.720
 3992TIP3   OH211916   7.569   6.942   6.656
 3992TIP3    H111917   7.618   6.872   6.613
 3992TIP3    H211918   7.630   7.016   6.659
 3993TIP3   OH211919   1.139   3.912   1.164
 3993TIP3    H111920   1.228   3.878   1.150
 3993TIP3    H211921   1.087   3.833   1.181
 3994TIP3   OH211922   7.411   3.486   4.463
 3994TIP3    H111923   7.341   3.428   4.432
 3994TIP3    H211924   7.366   3.551   4.517
 3995TIP3   OH211925   3.184   6.127   5.459
 3995TIP3    H111926   3.246   6.167   5.520
 3995TIP3    H211927   3.198   6.033   5.469
 3996TIP3   OH211928   1.767   1.373   6.712
 3996TIP3    H111929   1.692   1.429   6.732
 3996TIP3    H211930   1.744   1.287   6.746
 3997TIP3   OH211931   2.883   4.467   1.642
 3997TIP3    H111932   2.940   4.424   1.705
 3997TIP3    H211933   2.934   4.468   1.561
 3998TIP3   OH211934   6.767   1.247   4.100
 3998TIP3    H111935   6.728   1.231   4.186
 3998TIP3    H211936   6.692   1.249   4.040
 3999TIP3   OH211937   0.858   7.588   0.133
 3999TIP3    H111938   0.785   7.530   0.111
 3999TIP3    H211939   0.921   7.576   0.062
 4000TIP3   OH211940   0.567   6.728   2.344
 4000TIP3    H111941   0.625   6.653   2.327
 4000TIP3    H211942   0.527   6.746   2.259
 4001TIP3   OH211943   6.559   4.696   3.982
 4001TIP3    H111944   6.475   4.701   4.028
 4001TIP3    H211945   6.550   4.621   3.922
 4002TIP3   OH211946   7.422   5.140   2.246
 4002TIP3    H111947   7.440   5.221   2.293
 4002TIP3    H211948   7.365   5.166   2.174
 4003TIP3   OH211949   0.720   7.744   0.877
 4003TIP3    H111950   0.688   7.833   0.893
 4003TIP3    H211951   0.666   7.711   0.805
 4004TIP3   OH211952   0.882   0.822   1.838
 4004TIP3    H111953   0.904   0.768   1.913
 4004TIP3    H211954   0.884   0.763   1.763
 4005TIP3   OH211955   5.892   1.977   1.494
 4005TIP3    H111956   5.861   2.067   1.485
 4005TIP3    H211957   5.828   1.924   1.447
 4006TIP3   OH211958   8.280   7.014   0.388
 4006TIP3    H111959   8.185   7.012   0.377
 4006TIP3    H211960   8.302   6.927   0.421
 4007TIP3   OH211961   5.272   7.325   5.547
 4007TIP3    H111962   5.340   7.273   5.591
 4007TIP3    H211963   5.309   7.345   5.462
 4008TIP3   OH211964   0.680   3.928   3.926
 4008TIP3    H111965   0.659   3.979   4.004
 4008TIP3    H211966   0.658   3.986   3.853
 4009TIP3   OH211967   2.540   0.553   6.818
 4009TIP3    H111968   2.622   0.576   6.776
 4009TIP3    H211969   2.565   0.500   6.894
 4010TIP3   OH211970   3.620   1.173   2.037
 4010TIP3    H111971   3.613   1.085   2.000
 4010TIP3    H211972   3.630   1.230   1.960
 4011TIP3   OH211973   4.111   1.772   1.774
 4011TIP3    H111974   4.027   1.761   1.731
 4011TIP3    H211975   4.150   1.849   1.733
 4012TIP3   OH211976   0.274   6.781   6.371
 4012TIP3    H111977   0.264   6.724   6.447
 4012TIP3    H211978   0.297   6.866   6.408
 4013TIP3   OH211979   4.233   1.181   2.051
 4013TIP3    H111980   4.162   1.242   2.029
 4013TIP3    H211981   4.244   1.129   1.972
 4014TIP3   OH211982   4.109   0.529   4.064
 4014TIP3    H111983   4.166   0.589   4.016
 4014TIP3    H211984   4.099   0.453   4.007
 4015TIP3   OH211985   3.373   4.197   3.038
 4015TIP3    H111986   3.360   4.270   2.977
 4015TIP3    H211987   3.285   4.178   3.071
 4016TIP3   OH211988   4.776   2.733   1.972
 4016TIP3    H111989   4.738   2.694   1.894
 4016TIP3    H211990   4.812   2.659   2.022
 4017TIP3   OH211991   1.678   5.115   4.621
 4017TIP3    H111992   1.657   5.209   4.621
 4017TIP3    H211993   1.667   5.088   4.530
 4018TIP3   OH211994   1.353   3.373   6.219
 4018TIP3    H111995   1.385   3.393   6.307
 4018TIP3    H211996   1.259   3.362   6.228
 4019TIP3   OH211997   4.243   1.539   2.122
 4019TIP3    H111998   4.325   1.534   2.072
 4019TIP3    H211999   4.183   1.482   2.074
 4020TIP3   OH212000   0.876   0.795   4.102
 4020TIP3    H112001   0.968   0.820   4.101
 4020TIP3    H212002   0.832   0.864   4.150
 4021TIP3   OH212003   6.961   2.530   3.275
 4021TIP3    H112004   6.911   2.594   3.223
 4021TIP3    H212005   7.050   2.565   3.276
 4022TIP3   OH212006   3.825   1.040   6.066
 4022TIP3    H112007   3.737   1.077   6.057
 4022TIP3    H212008   3.883   1.116   6.064
 4023TIP3   OH212009   2.997   0.431   2.677
 4023TIP3    H112010   2.935   0.401   2.610
 4023TIP3    H212011   3.083   0.410   2.641
 4024TIP3   OH212012   6.330   3.172   4.358
 4024TIP3    H112013   6.403   3.164   4.419
 4024TIP3    H212014   6.268   3.231   4.402
 4025TIP3   OH212015   7.617   2.649   3.965
 4025TIP3    H112016   7.687   2.628   3.903
 4025TIP3    H212017   7.539   2.607   3.929
 4026TIP3   OH212018   2.857   1.227   1.568
 4026TIP3    H112019   2.850   1.201   1.477
 4026TIP3    H212020   2.950   1.242   1.582
 4027TIP3   OH212021   6.330   0.457   4.064
 4027TIP3    H112022   6.285   0.519   4.121
 4027TIP3    H212023   6.327   0.374   4.111
 4028TIP3   OH212024   2.545   2.883   3.288
 4028TIP3    H112025   2.620   2.867   3.346
 4028TIP3    H212026   2.519   2.795   3.259
 4029TIP3   OH212027   4.534   5.828   4.170
 4029TIP3    H112028   4.440   5.842   4.174
 4029TIP3    H212029   4.569   5.909   4.132
 4030TIP3   OH212030   8.168   0.730   2.558
 4030TIP3    H112031   8.117   0.803   2.522
 4030TIP3    H212032   8.154   0.658   2.497
 4031TIP3   OH212033   1.934   0.410   0.919
 4031TIP3    H112034   1.934   0.340   0.985
 4031TIP3    H212035   1.904   0.487   0.967
 4032TIP3   OH212036   7.714   5.273   5.067
 4032TIP3    H112037   7.713   5.367   5.082
 4032TIP3    H212038   7.806   5.248   5.078
 4033TIP3   OH212039   7.091   5.410   6.197
 4033TIP3    H112040   7.007   5.424   6.240
 4033TIP3    H212041   7.073   5.425   6.104
 4034TIP3   OH212042   0.014   0.198   4.480
 4034TIP3    H112043   0.040   0.267   4.419
 4034TIP3    H212044   0.037   0.117   4.435
 4035TIP3   OH212045   1.245   6.106   2.748
 4035TIP3    H112046   1.167   6.050   2.745
 4035TIP3    H212047   1.210   6.195   2.753
 4036TIP3   OH212048   4.074   3.782   6.485
 4036TIP3    H112049   4.008   3.753   6.548
 4036TIP3    H212050   4.057   3.875   6.474
 4037TIP3   OH212051   0.807   7.136   6.204
 4037TIP3    H112052   0.727   7.106   6.162
 4037TIP3    H212053   0.845   7.058   6.244
 4038TIP3   OH212054   0.788   7.645   2.909
 4038TIP3    H112055   0.771   7.695   2.830
 4038TIP3    H212056   0.737   7.564   2.898
 4039TIP3   OH212057   1.361   2.045   3.490
 4039TIP3    H112058   1.370   2.135   3.520
 4039TIP3    H212059   1.411   2.043   3.408
 4040TIP3   OH212060   2.149   3.303   0.860
 4040TIP3    H112061   2.222   3.255   0.822
 4040TIP3    H212062   2.088   3.236   0.889
 4041TIP3   OH212063   2.360   7.417   1.753
 4041TIP3    H112064   2.403   7.477   1.692
 4041TIP3    H212065   2.326   7.474   1.823
 4042TIP3   OH212066   6.049   6.317   0.533
 4042TIP3    H112067   6.004   6.374   0.470
 4042TIP3    H212068   6.054   6.368   0.613
 4043TIP3   OH212069   7.377   0.331   2.322
 4043TIP3    H112070   7.345   0.298   2.406
 4043TIP3    H212071   7.372   0.426   2.330
 4044TIP3   OH212072   2.795   4.034   3.832
 4044TIP3    H112073   2.763   3.944   3.828
 4044TIP3    H212074   2.728   4.085   3.786
 4045TIP3   OH212075   2.894   7.012   0.962
 4045TIP3    H112076   2.858   6.952   1.028
 4045TIP3    H212077   2.960   7.062   1.010
 4046TIP3   OH212078   7.358   7.886   5.519
 4046TIP3    H112079   7.413   7.821   5.562
 4046TIP3    H212080   7.286   7.835   5.481
 4047TIP3   OH212081   7.173   1.714   0.129
 4047TIP3    H112082   7.212   1.627   0.140
 4047TIP3    H212083   7.151   1.718   0.036
 4048TIP3   OH212084   0.720   4.608   4.679
 4048TIP3    H112085   0.760   4.663   4.746
 4048TIP3    H212086   0.744   4.649   4.596
 4049TIP3   OH212087   2.649   0.412   4.070
 4049TIP3    H112088   2.741   0.385   4.072
 4049TIP3    H212089   2.623   0.402   3.978
 4050TIP3   OH212090   1.832   1.132   6.417
 4050TIP3    H112091   1.874   1.104   6.336
 4050TIP3    H212092   1.895   1.110   6.486
 4051TIP3   OH212093   1.828   2.439   1.214
 4051TIP3    H112094   1.880   2.385   1.274
 4051TIP3    H212095   1.783   2.502   1.270
 4052TIP3   OH212096   1.484   0.136   2.512
 4052TIP3    H112097   1.467   0.228   2.494
 4052TIP3    H212098   1.566   0.135   2.560
 4053TIP3   OH212099   5.894   6.171   3.437
 4053TIP3    H112100   5.831   6.101   3.425
 4053TIP3    H212101   5.976   6.136   3.403
 4054TIP3   OH212102   4.997   3.871   1.149
 4054TIP3    H112103   4.994   3.867   1.245
 4054TIP3    H212104   5.027   3.960   1.130
 4055TIP3   OH212105   1.092   7.645   2.219
 4055TIP3    H112106   1.103   7.707   2.147
 4055TIP3    H212107   1.046   7.695   2.287
 4056TIP3   OH212108   1.359   0.758   5.142
 4056TIP3    H112109   1.336   0.848   5.121
 4056TIP3    H212110   1.354   0.712   5.059
 4057TIP3   OH212111   1.386   3.668   3.026
 4057TIP3    H112112   1.440   3.599   3.064
 4057TIP3    H212113   1.449   3.735   2.997
 4058TIP3   OH212114   0.460   3.650   4.383
 4058TIP3    H112115   0.369   3.629   4.359
 4058TIP3    H212116   0.483   3.583   4.448
 4059TIP3   OH212117   1.797   5.656   4.565
 4059TIP3    H112118   1.869   5.716   4.587
 4059TIP3    H212119   1.838   5.589   4.510
 4060TIP3   OH212120   1.678   5.566   6.506
 4060TIP3    H112121   1.766   5.535   6.481
 4060TIP3    H212122   1.625   5.554   6.427
 4061TIP3   OH212123   0.888   2.537   2.532
 4061TIP3    H112124   0.951   2.581   2.589
 4061TIP3    H212125   0.854   2.606   2.476
 4062TIP3   OH212126   2.312   2.826   5.744
 4062TIP3    H112127   2.218   2.815   5.756
 4062TIP3    H212128   2.320   2.873   5.661
 4063TIP3   OH212129   6.488   2.735   1.027
 4063TIP3    H112130   6.434   2.714   1.104
 4063TIP3    H212131   6.577   2.739   1.061
 4064TIP3   OH212132   5.347   1.962   2.775
 4064TIP3    H112133   5.407   2.009   2.717
 4064TIP3    H212134   5.310   1.893   2.720
 4065TIP3   OH212135   4.032   2.077   3.892
 4065TIP3    H112136   3.938   2.060   3.898
 4065TIP3    H212137   4.055   2.052   3.802
 4066TIP3   OH212138   0.165   1.538   2.902
 4066TIP3    H112139   0.121   1.570   2.980
 4066TIP3    H212140   0.159   1.609   2.839
 4067TIP3   OH212141   4.815   1.913   4.426
 4067TIP3    H112142   4.825   1.821   4.450
 4067TIP3    H212143   4.825   1.961   4.508
 4068TIP3   OH212144   7.942   6.692   0.580
 4068TIP3    H112145   7.853   6.715   0.555
 4068TIP3    H212146   7.942   6.596   0.584
 4069TIP3   OH212147   1.014   3.184   0.078
 4069TIP3    H112148   1.093   3.230   0.108
 4069TIP3    H212149   0.973   3.153   0.158
 4070TIP3   OH212150   5.058   4.214   1.453
 4070TIP3    H112151   5.080   4.241   1.542
 4070TIP3    H212152   5.001   4.284   1.420
 4071TIP3   OH212153   7.687   1.061   5.194
 4071TIP3    H112154   7.726   1.011   5.267
 4071TIP3    H212155   7.707   1.009   5.116
 4072TIP3   OH212156   4.152   1.139   5.074
 4072TIP3    H112157   4.065   1.136   5.033
 4072TIP3    H212158   4.137   1.109   5.164
 4073TIP3   OH212159   2.197   1.273   1.632
 4073TIP3    H112160   2.172   1.212   1.563
 4073TIP3    H212161   2.209   1.218   1.710
 4074TIP3   OH212162   8.100   0.120   1.515
 4074TIP3    H112163   8.063   0.033   1.503
 4074TIP3    H212164   8.150   0.137   1.435
 4075TIP3   OH212165   3.994   6.485   0.450
 4075TIP3    H112166   4.007   6.489   0.545
 4075TIP3    H212167   3.943   6.405   0.436
 4076TIP3   OH212168   5.610   6.142   2.454
 4076TIP3    H112169   5.597   6.237   2.454
 4076TIP3    H212170   5.632   6.121   2.545
 4077TIP3   OH212171   7.962   1.431   4.760
 4077TIP3    H112172   7.949   1.348   4.714
 4077TIP3    H212173   7.977   1.495   4.691
 4078TIP3   OH212174   2.008   4.402   5.171
 4078TIP3    H112175   1.956   4.365   5.243
 4078TIP3    H212176   2.089   4.351   5.171
 4079TIP3   OH212177   1.952   6.020   6.006
 4079TIP3    H112178   1.950   6.009   6.101
 4079TIP3    H212179   2.044   6.011   5.983
 4080TIP3   OH212180   4.110   7.821   6.406
 4080TIP3    H112181   4.120   7.728   6.426
 4080TIP3    H212182   4.097   7.863   6.491
 4081TIP3   OH212183   1.905   0.117   3.291
 4081TIP3    H112184   1.839   0.183   3.308
 4081TIP3    H212185   1.893   0.052   3.360
 4082TIP3   OH212186   4.119   1.036   0.392
 4082TIP3    H112187   4.099   0.982   0.468
 4082TIP3    H212188   4.039   1.086   0.376
 4083TIP3   OH212189   0.068   7.223   3.852
 4083TIP3    H112190   0.075   7.288   3.782
 4083TIP3    H212191  -0.005   7.166   3.825
 4084TIP3   OH212192   6.289   6.758   3.193
 4084TIP3    H112193   6.318   6.725   3.278
 4084TIP3    H212194   6.349   6.829   3.172
 4085TIP3   OH212195   1.656   7.599   6.086
 4085TIP3    H112196   1.654   7.576   5.993
 4085TIP3    H212197   1.694   7.523   6.128
 4086TIP3   OH212198   2.129   6.915   3.109
 4086TIP3    H112199   2.220   6.903   3.083
 4086TIP3    H212200   2.131   6.910   3.204
 4087TIP3   OH212201   4.336   3.596   5.517
 4087TIP3    H112202   4.352   3.681   5.477
 4087TIP3    H212203   4.388   3.598   5.598
 4088TIP3   OH212204   3.312   6.033   4.108
 4088TIP3    H112205   3.304   6.116   4.061
 4088TIP3    H212206   3.406   6.020   4.118
 4089TIP3   OH212207   6.375   5.497   1.163
 4089TIP3    H112208   6.367   5.497   1.258
 4089TIP3    H212209   6.327   5.418   1.135
 4090TIP3   OH212210   2.235   6.476   0.537
 4090TIP3    H112211   2.285   6.534   0.595
 4090TIP3    H212212   2.273   6.490   0.451
 4091TIP3   OH212213   0.514   5.840   3.828
 4091TIP3    H112214   0.585   5.785   3.796
 4091TIP3    H212215   0.553   5.890   3.900
 4092TIP3   OH212216   3.637   1.089   0.623
 4092TIP3    H112217   3.717   1.141   0.620
 4092TIP3    H212218   3.578   1.131   0.560
 4093TIP3   OH212219   0.403   7.172   0.731
 4093TIP3    H112220   0.321   7.125   0.715
 4093TIP3    H212221   0.386   7.222   0.811
 4094TIP3   OH212222   3.105   4.319   4.101
 4094TIP3    H112223   3.028   4.337   4.047
 4094TIP3    H212224   3.141   4.405   4.121
 4095TIP3   OH212225   2.802   4.966   4.766
 4095TIP3    H112226   2.798   5.019   4.846
 4095TIP3    H212227   2.860   5.015   4.708
 4096TIP3   OH212228   3.725   1.129   6.335
 4096TIP3    H112229   3.812   1.157   6.307
 4096TIP3    H212230   3.700   1.062   6.271
 4097TIP3   OH212231   6.554   5.955   5.309
 4097TIP3    H112232   6.565   6.005   5.389
 4097TIP3    H212233   6.499   6.010   5.253
 4098TIP3   OH212234   6.007   1.647   0.393
 4098TIP3    H112235   6.051   1.570   0.357
 4098TIP3    H212236   5.952   1.613   0.464
 4099TIP3   OH212237   4.623   6.919   4.416
 4099TIP3    H112238   4.591   6.830   4.433
 4099TIP3    H212239   4.564   6.953   4.349
 4100TIP3   OH212240   3.792   4.839   4.815
 4100TIP3    H112241   3.860   4.809   4.755
 4100TIP3    H212242   3.838   4.860   4.896
 4101TIP3   OH212243   1.443   2.024   0.216
 4101TIP3    H112244   1.493   2.007   0.296
 4101TIP3    H212245   1.509   2.044   0.150
 4102TIP3   OH212246   8.219   4.415   6.786
 4102TIP3    H112247   8.201   4.498   6.830
 4102TIP3    H212248   8.296   4.380   6.831
 4103TIP3   OH212249   7.498   0.089   4.387
 4103TIP3    H112250   7.571   0.028   4.395
 4103TIP3    H212251   7.539   0.176   4.387
 4104TIP3   OH212252   0.638   7.098   6.454
 4104TIP3    H112253   0.565   7.144   6.413
 4104TIP3    H212254   0.650   7.019   6.401
 4105TIP3   OH212255   7.100   0.786   6.746
 4105TIP3    H112256   7.168   0.761   6.809
 4105TIP3    H212257   7.129   0.871   6.712
 4106TIP3   OH212258   7.884   6.114   6.480
 4106TIP3    H112259   7.858   6.058   6.407
 4106TIP3    H212260   7.952   6.171   6.444
 4107TIP3   OH212261   0.465   1.343   5.332
 4107TIP3    H112262   0.500   1.255   5.346
 4107TIP3    H212263   0.386   1.329   5.280
 4108TIP3   OH212264   6.874   2.044   4.926
 4108TIP3    H112265   6.834   2.070   4.843
 4108TIP3    H212266   6.954   1.998   4.901
 4109TIP3   OH212267   3.663   6.646   2.741
 4109TIP3    H112268   3.634   6.615   2.655
 4109TIP3    H212269   3.756   6.627   2.744
 4110TIP3   OH212270   3.962   2.998   2.403
 4110TIP3    H112271   3.987   3.032   2.317
 4110TIP3    H212272   4.044   2.969   2.442
 4111TIP3   OH212273   5.245   5.236   4.734
 4111TIP3    H112274   5.168   5.263   4.784
 4111TIP3    H212275   5.317   5.239   4.798
 4112TIP3   OH212276   0.766   5.816   0.101
 4112TIP3    H112277   0.672   5.804   0.118
 4112TIP3    H212278   0.769   5.882   0.032
 4113TIP3   OH212279   3.818   5.269   3.879
 4113TIP3    H112280   3.729   5.293   3.851
 4113TIP3    H212281   3.853   5.348   3.918
 4114TIP3   OH212282   3.833   3.332   3.338
 4114TIP3    H112283   3.874   3.398   3.394
 4114TIP3    H212284   3.889   3.329   3.260
 4115TIP3   OH212285   5.635   3.862   6.191
 4115TIP3    H112286   5.626   3.771   6.161
 4115TIP3    H212287   5.702   3.900   6.133
 4116TIP3   OH212288   4.456   4.723   2.366
 4116TIP3    H112289   4.472   4.630   2.352
 4116TIP3    H212290   4.531   4.753   2.418
 4117TIP3   OH212291   0.572   3.781   1.249
 4117TIP3    H112292   0.569   3.876   1.256
 4117TIP3    H212293   0.665   3.759   1.259
 4118TIP3   OH212294   1.542   6.877   4.981
 4118TIP3    H112295   1.459   6.835   4.960
 4118TIP3    H212296   1.607   6.831   4.928
 4119TIP3   OH212297   0.785   2.602   3.337
 4119TIP3    H112298   0.770   2.508   3.351
 4119TIP3    H212299   0.718   2.628   3.275
 4120TIP3   OH212300   8.168   2.799   6.677
 4120TIP3    H112301   8.124   2.742   6.614
 4120TIP3    H212302   8.185   2.880   6.628
 4121TIP3   OH212303   8.199   1.803   0.378
 4121TIP3    H112304   8.222   1.753   0.299
 4121TIP3    H212305   8.246   1.886   0.368
 4122TIP3   OH212306   4.771   1.453   2.883
 4122TIP3    H112307   4.801   1.491   2.966
 4122TIP3    H212308   4.677   1.440   2.895
 4123TIP3   OH212309   1.057   1.246   4.024
 4123TIP3    H112310   1.089   1.171   4.075
 4123TIP3    H212311   1.068   1.219   3.933
 4124TIP3   OH212312   1.230   0.318   3.158
 4124TIP3    H112313   1.260   0.228   3.151
 4124TIP3    H212314   1.155   0.323   3.099
 4125TIP3   OH212315   2.924   1.748   1.666
 4125TIP3    H112316   2.969   1.664   1.665
 4125TIP3    H212317   2.855   1.738   1.731
 4126TIP3   OH212318   0.442   2.606   1.804
 4126TIP3    H112319   0.472   2.677   1.861
 4126TIP3    H212320   0.363   2.573   1.847
 4127TIP3   OH212321   4.119   5.235   0.309
 4127TIP3    H112322   4.167   5.180   0.247
 4127TIP3    H212323   4.027   5.223   0.286
 4128TIP3   OH212324   2.569   6.609   4.217
 4128TIP3    H112325   2.625   6.586   4.291
 4128TIP3    H212326   2.571   6.705   4.214
 4129TIP3   OH212327   5.615   3.287   0.247
 4129TIP3    H112328   5.696   3.333   0.224
 4129TIP3    H212329   5.642   3.224   0.314
 4130TIP3   OH212330   0.371   5.616   3.581
 4130TIP3    H112331   0.361   5.594   3.674
 4130TIP3    H212332   0.289   5.659   3.557
 4131TIP3   OH212333   2.038   6.652   0.311
 4131TIP3    H112334   2.133   6.648   0.315
 4131TIP3    H212335   2.017   6.637   0.219
 4132TIP3   OH212336   7.355   1.296   5.920
 4132TIP3    H112337   7.390   1.364   5.862
 4132TIP3    H212338   7.361   1.215   5.869
 4133TIP3   OH212339   7.041   3.539   6.512
 4133TIP3    H112340   7.061   3.554   6.419
 4133TIP3    H212341   6.988   3.614   6.537
 4134TIP3   OH212342   1.456   3.770   5.746
 4134TIP3    H112343   1.510   3.729   5.679
 4134TIP3    H212344   1.371   3.783   5.704
 4135TIP3   OH212345   2.713   3.303   0.225
 4135TIP3    H112346   2.761   3.325   0.305
 4135TIP3    H212347   2.622   3.292   0.253
 4136TIP3   OH212348   3.562   2.291   4.149
 4136TIP3    H112349   3.510   2.239   4.211
 4136TIP3    H212350   3.589   2.367   4.199
 4137TIP3   OH212351   5.428   4.372   4.890
 4137TIP3    H112352   5.343   4.412   4.909
 4137TIP3    H212353   5.439   4.305   4.958
 4138TIP3   OH212354   7.192   4.611   1.772
 4138TIP3    H112355   7.209   4.616   1.678
 4138TIP3    H212356   7.160   4.697   1.797
 4139TIP3   OH212357   7.008   2.792   4.806
 4139TIP3    H112358   7.001   2.858   4.875
 4139TIP3    H212359   6.948   2.822   4.738
 4140TIP3   OH212360   2.485   6.160   5.164
 4140TIP3    H112361   2.510   6.240   5.211
 4140TIP3    H212362   2.392   6.148   5.184
 4141TIP3   OH212363   2.337   0.802   0.675
 4141TIP3    H112364   2.372   0.714   0.664
 4141TIP3    H212365   2.411   0.861   0.658
 4142TIP3   OH212366   5.813   3.140   6.214
 4142TIP3    H112367   5.818   3.096   6.128
 4142TIP3    H212368   5.904   3.141   6.245
 4143TIP3   OH212369   2.775   6.657   0.607
 4143TIP3    H112370   2.710   6.587   0.620
 4143TIP3    H212371   2.824   6.629   0.530
 4144TIP3   OH212372   4.833   4.159   1.723
 4144TIP3    H112373   4.785   4.233   1.760
 4144TIP3    H212374   4.922   4.191   1.711
 4145TIP3   OH212375   2.380   5.397   1.975
 4145TIP3    H112376   2.330   5.315   1.975
 4145TIP3    H212377   2.414   5.405   1.886
 4146TIP3   OH212378   5.043   7.867   5.859
 4146TIP3    H112379   5.074   7.861   5.769
 4146TIP3    H212380   5.113   7.829   5.912
 4147TIP3   OH212381   0.189   2.562   3.121
 4147TIP3    H112382   0.105   2.550   3.076
 4147TIP3    H212383   0.253   2.517   3.066
 4148TIP3   OH212384   6.330   5.323   4.718
 4148TIP3    H112385   6.275   5.387   4.673
 4148TIP3    H212386   6.293   5.238   4.692
 4149TIP3   OH212387   3.291   2.724   1.279
 4149TIP3    H112388   3.331   2.638   1.289
 4149TIP3    H212389   3.354   2.785   1.318
 4150TIP3   OH212390   3.360   3.133   6.333
 4150TIP3    H112391   3.382   3.073   6.262
 4150TIP3    H212392   3.265   3.130   6.340
 4151TIP3   OH212393   1.167   6.500   5.016
 4151TIP3    H112394   1.235   6.532   4.958
 4151TIP3    H212395   1.191   6.533   5.103
 4152TIP3   OH212396   8.384   3.671   4.323
 4152TIP3    H112397   8.387   3.763   4.297
 4152TIP3    H212398   8.376   3.623   4.241
 4153TIP3   OH212399   2.257   2.038   0.622
 4153TIP3    H112400   2.284   2.121   0.583
 4153TIP3    H212401   2.241   2.059   0.714
 4154TIP3   OH212402   2.991   5.196   4.208
 4154TIP3    H112403   2.952   5.113   4.235
 4154TIP3    H212404   2.917   5.248   4.176
 4155TIP3   OH212405   0.567   4.268   5.250
 4155TIP3    H112406   0.555   4.178   5.280
 4155TIP3    H212407   0.658   4.271   5.219
 4156TIP3   OH212408   5.405   2.922   1.055
 4156TIP3    H112409   5.314   2.932   1.030
 4156TIP3    H212410   5.410   2.959   1.143
 4157TIP3   OH212411   0.187   6.520   5.949
 4157TIP3    H112412   0.112   6.494   6.003
 4157TIP3    H212413   0.180   6.466   5.870
 4158TIP3   OH212414   2.832   6.495   4.972
 4158TIP3    H112415   2.909   6.517   5.025
 4158TIP3    H212416   2.795   6.417   5.014
 4159TIP3   OH212417   2.792   6.483   1.726
 4159TIP3    H112418   2.828   6.429   1.656
 4159TIP3    H212419   2.738   6.423   1.777
 4160TIP3   OH212420   0.959   6.741   0.409
 4160TIP3    H112421   0.896   6.672   0.388
 4160TIP3    H212422   0.905   6.819   0.422
 4161TIP3   OH212423   1.653   6.785   5.216
 4161TIP3    H112424   1.718   6.856   5.211
 4161TIP3    H212425   1.592   6.803   5.145
 4162TIP3   OH212426   5.657   1.776   0.970
 4162TIP3    H112427   5.609   1.776   0.887
 4162TIP3    H212428   5.744   1.809   0.946
 4163TIP3   OH212429   1.165   7.812   2.037
 4163TIP3    H112430   1.243   7.785   1.988
 4163TIP3    H212431   1.115   7.864   1.974
 4164TIP3   OH212432   8.335   1.157   0.606
 4164TIP3    H112433   8.273   1.230   0.606
 4164TIP3    H212434   8.301   1.098   0.673
 4165TIP3   OH212435   7.454   7.811   0.491
 4165TIP3    H112436   7.412   7.869   0.554
 4165TIP3    H212437   7.427   7.845   0.405
 4166TIP3   OH212438   2.015   6.241   6.470
 4166TIP3    H112439   1.934   6.244   6.522
 4166TIP3    H212440   2.039   6.332   6.458
 4167TIP3   OH212441   3.722   6.379   5.602
 4167TIP3    H112442   3.645   6.423   5.564
 4167TIP3    H212443   3.687   6.332   5.678
 4168TIP3   OH212444   7.267   3.801   0.635
 4168TIP3    H112445   7.355   3.767   0.617
 4168TIP3    H212446   7.252   3.867   0.568
 4169TIP3   OH212447   1.741   3.965   1.004
 4169TIP3    H112448   1.829   3.927   0.999
 4169TIP3    H212449   1.748   4.033   1.071
 4170TIP3   OH212450   3.006   4.389   4.469
 4170TIP3    H112451   2.967   4.476   4.461
 4170TIP3    H212452   3.087   4.403   4.518
 4171TIP3   OH212453   8.135   5.936   4.964
 4171TIP3    H112454   8.206   5.991   4.930
 4171TIP3    H212455   8.180   5.860   5.002
 4172TIP3   OH212456   2.251   5.682   5.510
 4172TIP3    H112457   2.232   5.733   5.432
 4172TIP3    H212458   2.169   5.640   5.533
 4173TIP3   OH212459   2.395   6.263   0.551
 4173TIP3    H112460   2.343   6.344   0.554
 4173TIP3    H212461   2.370   6.216   0.631
 4174TIP3   OH212462   1.324   5.795   3.748
 4174TIP3    H112463   1.415   5.797   3.777
 4174TIP3    H212464   1.281   5.864   3.798
 4175TIP3   OH212465   1.436   0.119   6.546
 4175TIP3    H112466   1.367   0.095   6.608
 4175TIP3    H212467   1.405   0.084   6.462
 4176TIP3   OH212468   4.380   1.792   0.608
 4176TIP3    H112469   4.342   1.705   0.618
 4176TIP3    H212470   4.310   1.845   0.570
 4177TIP3   OH212471   0.171   0.369   0.866
 4177TIP3    H112472   0.175   0.464   0.854
 4177TIP3    H212473   0.143   0.335   0.781
 4178TIP3   OH212474   4.764   0.207   1.281
 4178TIP3    H112475   4.841   0.189   1.228
 4178TIP3    H212476   4.727   0.287   1.244
 4179TIP3   OH212477   0.602   7.355   1.576
 4179TIP3    H112478   0.558   7.314   1.650
 4179TIP3    H212479   0.694   7.330   1.586
 4180TIP3   OH212480   8.101   0.293   1.075
 4180TIP3    H112481   8.142   0.249   1.000
 4180TIP3    H212482   8.009   0.264   1.071
 4181TIP3   OH212483   7.111   7.875   0.001
 4181TIP3    H112484   7.124   7.956  -0.048
 4181TIP3    H212485   7.139   7.896   0.090
 4182TIP3   OH212486   7.741   3.813   6.073
 4182TIP3    H112487   7.811   3.876   6.058
 4182TIP3    H212488   7.671   3.841   6.015
 4183TIP3   OH212489   7.775   2.572   0.585
 4183TIP3    H112490   7.796   2.517   0.660
 4183TIP3    H212491   7.845   2.637   0.582
 4184TIP3   OH212492   0.199   3.797   5.499
 4184TIP3    H112493   0.108   3.768   5.496
 4184TIP3    H212494   0.247   3.720   5.531
 4185TIP3   OH212495   6.888   4.807   0.890
 4185TIP3    H112496   6.930   4.762   0.963
 4185TIP3    H212497   6.795   4.808   0.912
 4186TIP3   OH212498   0.475   1.692   1.007
 4186TIP3    H112499   0.538   1.623   0.985
 4186TIP3    H212500   0.529   1.770   1.021
 4187TIP3   OH212501   5.097   1.271   6.134
 4187TIP3    H112502   5.058   1.348   6.177
 4187TIP3    H212503   5.074   1.198   6.192
 4188TIP3   OH212504   0.898   4.541   1.429
 4188TIP3    H112505   0.843   4.518   1.504
 4188TIP3    H212506   0.986   4.514   1.455
 4189TIP3   OH212507   1.665   5.088   6.296
 4189TIP3    H112508   1.611   5.009   6.296
 4189TIP3    H212509   1.677   5.109   6.388
 4190TIP3   OH212510   6.806   5.078   2.540
 4190TIP3    H112511   6.732   5.026   2.507
 4190TIP3    H212512   6.876   5.015   2.554
 4191TIP3   OH212513   1.207   6.047   1.141
 4191TIP3    H112514   1.148   5.999   1.199
 4191TIP3    H212515   1.162   6.046   1.056
 4192TIP3   OH212516   1.137   1.738   0.784
 4192TIP3    H112517   1.191   1.772   0.855
 4192TIP3    H212518   1.072   1.806   0.768
 4193TIP3   OH212519   1.082   5.073   2.830
 4193TIP3    H112520   1.033   5.089   2.749
 4193TIP3    H212521   1.145   5.146   2.834
 4194TIP3   OH212522   0.543   5.986   5.282
 4194TIP3    H112523   0.637   5.970   5.288
 4194TIP3    H212524   0.517   5.945   5.199
 4195TIP3   OH212525   6.549   5.608   4.724
 4195TIP3    H112526   6.624   5.657   4.758
 4195TIP3    H212527   6.585   5.521   4.703
 4196TIP3   OH212528   1.294   3.163   3.541
 4196TIP3    H112529   1.343   3.094   3.585
 4196TIP3    H212530   1.359   3.231   3.523
 4197TIP3   OH212531   2.061   4.787   2.256
 4197TIP3    H112532   2.024   4.872   2.229
 4197TIP3    H212533   1.989   4.743   2.301
 4198TIP3   OH212534   5.422   3.195   1.969
 4198TIP3    H112535   5.447   3.286   1.952
 4198TIP3    H212536   5.444   3.181   2.061
 4199TIP3   OH212537   6.087   2.853   6.006
 4199TIP3    H112538   6.177   2.871   5.978
 4199TIP3    H212539   6.092   2.849   6.101
 4200TIP3   OH212540   3.336   7.677   1.377
 4200TIP3    H112541   3.301   7.714   1.458
 4200TIP3    H212542   3.431   7.676   1.389
 4201TIP3   OH212543   0.264   2.895   3.465
 4201TIP3    H112544   0.267   2.925   3.556
 4201TIP3    H212545   0.209   2.959   3.421
 4202TIP3   OH212546   8.363   5.984   0.534
 4202TIP3    H112547   8.380   5.969   0.627
 4202TIP3    H212548   8.426   5.929   0.489
 4203TIP3   OH212549   3.518   4.354   3.435
 4203TIP3    H112550   3.453   4.394   3.493
 4203TIP3    H212551   3.595   4.343   3.491
 4204TIP3   OH212552   1.674   2.434   1.747
 4204TIP3    H112553   1.688   2.430   1.653
 4204TIP3    H212554   1.603   2.372   1.764
 4205TIP3   OH212555   6.265   1.114   1.151
 4205TIP3    H112556   6.250   1.080   1.239
 4205TIP3    H212557   6.289   1.206   1.164
 4206TIP3   OH212558   2.840   5.210   4.902
 4206TIP3    H112559   2.810   5.298   4.925
 4206TIP3    H212560   2.929   5.205   4.937
 4207TIP3   OH212561   4.918   4.676   2.751
 4207TIP3    H112562   4.910   4.587   2.715
 4207TIP3    H212563   4.863   4.730   2.693
 4208TIP3   OH212564   2.173   5.378   3.877
 4208TIP3    H112565   2.184   5.289   3.909
 4208TIP3    H212566   2.259   5.419   3.889
 4209TIP3   OH212567   1.182   6.468   0.802
 4209TIP3    H112568   1.122   6.519   0.748
 4209TIP3    H212569   1.171   6.378   0.772
 4210TIP3   OH212570   3.201   1.911   0.090
 4210TIP3    H112571   3.201   1.961   0.009
 4210TIP3    H212572   3.276   1.852   0.081
 4211TIP3   OH212573   6.451   7.488   4.330
 4211TIP3    H112574   6.370   7.534   4.304
 4211TIP3    H212575   6.517   7.557   4.333
 4212TIP3   OH212576   4.947   1.437   1.045
 4212TIP3    H112577   4.885   1.364   1.039
 4212TIP3    H212578   4.916   1.500   0.980
 4213TIP3   OH212579   1.403   1.218   5.359
 4213TIP3    H112580   1.484   1.267   5.373
 4213TIP3    H212581   1.384   1.230   5.265
 4214TIP3   OH212582   1.178   1.760   4.533
 4214TIP3    H112583   1.255   1.704   4.526
 4214TIP3    H212584   1.191   1.809   4.614
 4215TIP3   OH212585   7.863   6.614   5.782
 4215TIP3    H112586   7.953   6.621   5.815
 4215TIP3    H212587   7.872   6.610   5.687
 4216TIP3   OH212588   0.611   2.364   3.088
 4216TIP3    H112589   0.524   2.344   3.055
 4216TIP3    H212590   0.614   2.460   3.093
 4217TIP3   OH212591   3.387   7.044   1.232
 4217TIP3    H112592   3.378   6.964   1.179
 4217TIP3    H212593   3.422   7.109   1.171
 4218TIP3   OH212594   6.373   4.562   4.116
 4218TIP3    H112595   6.358   4.527   4.204
 4218TIP3    H212596   6.326   4.501   4.058
 4219TIP3   OH212597   4.701   2.659   6.349
 4219TIP3    H112598   4.627   2.598   6.349
 4219TIP3    H212599   4.774   2.609   6.314
 4220TIP3   OH212600   1.135   0.292   5.764
 4220TIP3    H112601   1.103   0.278   5.853
 4220TIP3    H212602   1.095   0.221   5.713
 4221TIP3   OH212603   8.061   0.409   1.796
 4221TIP3    H112604   8.073   0.470   1.724
 4221TIP3    H212605   8.141   0.357   1.797
 4222TIP3   OH212606   6.898   1.505   5.589
 4222TIP3    H112607   6.982   1.464   5.570
 4222TIP3    H212608   6.889   1.500   5.684
 4223TIP3   OH212609   0.370   1.218   0.352
 4223TIP3    H112610   0.423   1.156   0.401
 4223TIP3    H212611   0.280   1.187   0.361
 4224TIP3   OH212612   5.870   0.834   2.260
 4224TIP3    H112613   5.935   0.814   2.328
 4224TIP3    H212614   5.866   0.755   2.206
 4225TIP3   OH212615   1.212   4.834   5.611
 4225TIP3    H112616   1.239   4.799   5.695
 4225TIP3    H212617   1.196   4.927   5.628
 4226TIP3   OH212618   6.783   5.831   2.243
 4226TIP3    H112619   6.714   5.881   2.199
 4226TIP3    H212620   6.862   5.882   2.229
 4227TIP3   OH212621   0.482   5.426   1.731
 4227TIP3    H112622   0.393   5.391   1.726
 4227TIP3    H212623   0.473   5.505   1.784
 4228TIP3   OH212624   1.736   0.494   0.110
 4228TIP3    H112625   1.759   0.583   0.081
 4228TIP3    H212626   1.788   0.437   0.054
 4229TIP3   OH212627   7.331   4.047   2.656
 4229TIP3    H112628   7.393   3.974   2.648
 4229TIP3    H212629   7.386   4.122   2.679
 4230TIP3   OH212630   1.791   7.611   2.049
 4230TIP3    H112631   1.824   7.581   1.964
 4230TIP3    H212632   1.714   7.664   2.026
 4231TIP3   OH212633   3.493   4.025   4.300
 4231TIP3    H112634   3.476   4.109   4.342
 4231TIP3    H212635   3.554   3.981   4.359
 4232TIP3   OH212636   5.787   4.749   5.761
 4232TIP3    H112637   5.866   4.743   5.708
 4232TIP3    H212638   5.789   4.837   5.798
 4233TIP3   OH212639   6.574   2.679   2.733
 4233TIP3    H112640   6.591   2.684   2.827
 4233TIP3    H212641   6.658   2.655   2.694
 4234TIP3   OH212642   6.744   1.197   5.724
 4234TIP3    H112643   6.674   1.184   5.788
 4234TIP3    H212644   6.818   1.147   5.759
 4235TIP3   OH212645   6.263   3.534   2.071
 4235TIP3    H112646   6.236   3.442   2.073
 4235TIP3    H212647   6.351   3.534   2.108
 4236TIP3   OH212648   2.558   7.588   0.805
 4236TIP3    H112649   2.650   7.586   0.831
 4236TIP3    H212650   2.523   7.668   0.846
 4237TIP3   OH212651   5.211   3.828   1.698
 4237TIP3    H112652   5.274   3.889   1.658
 4237TIP3    H212653   5.136   3.882   1.720
 4238TIP3   OH212654   6.893   1.038   2.324
 4238TIP3    H112655   6.961   1.057   2.388
 4238TIP3    H212656   6.919   0.954   2.285
 4239TIP3   OH212657   5.052   2.640   3.869
 4239TIP3    H112658   4.985   2.701   3.838
 4239TIP3    H212659   5.012   2.595   3.943
 4240TIP3   OH212660   4.353   4.090   6.219
 4240TIP3    H112661   4.310   4.142   6.287
 4240TIP3    H212662   4.366   4.004   6.259
 4241TIP3   OH212663   1.411   7.777   4.211
 4241TIP3    H112664   1.401   7.784   4.116
 4241TIP3    H212665   1.337   7.723   4.239
 4242TIP3   OH212666   6.544   6.824   3.062
 4242TIP3    H112667   6.630   6.810   3.022
 4242TIP3    H212668   6.485   6.839   2.988
 4243TIP3   OH212669   1.336   0.366   4.159
 4243TIP3    H112670   1.366   0.275   4.161
 4243TIP3    H212671   1.241   0.360   4.173
 4244TIP3   OH212672   7.021   1.381   0.265
 4244TIP3    H112673   7.069   1.323   0.324
 4244TIP3    H212674   6.989   1.452   0.320
 4245TIP3   OH212675   4.311   6.752   5.158
 4245TIP3    H112676   4.374   6.739   5.087
 4245TIP3    H212677   4.276   6.665   5.175
 4246TIP3   OH212678   2.586   3.666   4.255
 4246TIP3    H112679   2.669   3.642   4.215
 4246TIP3    H212680   2.560   3.747   4.211
 4247TIP3   OH212681   0.106   1.157   0.391
 4247TIP3    H112682   0.056   1.153   0.473
 4247TIP3    H212683   0.043   1.189   0.326
 4248TIP3   OH212684   7.278   2.780   1.729
 4248TIP3    H112685   7.193   2.738   1.714
 4248TIP3    H212686   7.266   2.829   1.811
 4249TIP3   OH212687   0.951   2.228   1.485
 4249TIP3    H112688   1.023   2.168   1.502
 4249TIP3    H212689   0.873   2.182   1.517
 4250TIP3   OH212690   7.691   6.971   3.477
 4250TIP3    H112691   7.664   7.049   3.525
 4250TIP3    H212692   7.764   7.000   3.424
 4251TIP3   OH212693   4.895   1.076   4.924
 4251TIP3    H112694   4.835   1.149   4.944
 4251TIP3    H212695   4.862   1.041   4.841
 4252TIP3   OH212696   7.199   7.864   6.330
 4252TIP3    H112697   7.141   7.790   6.313
 4252TIP3    H212698   7.258   7.833   6.399
 4253TIP3   OH212699   5.600   3.949   4.979
 4253TIP3    H112700   5.659   3.919   5.048
 4253TIP3    H212701   5.653   4.009   4.927
 4254TIP3   OH212702   6.905   5.257   3.742
 4254TIP3    H112703   6.967   5.254   3.670
 4254TIP3    H212704   6.947   5.209   3.813
 4255TIP3   OH212705   0.819   6.631   6.282
 4255TIP3    H112706   0.786   6.552   6.325
 4255TIP3    H212707   0.807   6.614   6.189
 4256TIP3   OH212708   3.455   4.677   5.192
 4256TIP3    H112709   3.477   4.602   5.247
 4256TIP3    H212710   3.526   4.681   5.128
 4257TIP3   OH212711   1.260   1.112   6.788
 4257TIP3    H112712   1.326   1.110   6.856
 4257TIP3    H212713   1.214   1.195   6.801
 4258TIP3   OH212714   1.557   5.211   1.062
 4258TIP3    H112715   1.601   5.285   1.104
 4258TIP3    H212716   1.510   5.250   0.988
 4259TIP3   OH212717   1.301   1.851   5.636
 4259TIP3    H112718   1.325   1.839   5.544
 4259TIP3    H212719   1.224   1.796   5.649
 4260TIP3   OH212720   1.857   2.842   0.287
 4260TIP3    H112721   1.921   2.771   0.277
 4260TIP3    H212722   1.900   2.918   0.248
 4261TIP3   OH212723   1.854   1.010   3.374
 4261TIP3    H112724   1.893   1.097   3.370
 4261TIP3    H212725   1.921   0.955   3.415
 4262TIP3   OH212726   6.454   5.944   1.037
 4262TIP3    H112727   6.531   5.898   1.069
 4262TIP3    H212728   6.398   5.875   1.000
 4263TIP3   OH212729   5.030   6.334   1.851
 4263TIP3    H112730   4.935   6.332   1.852
 4263TIP3    H212731   5.057   6.279   1.924
 4264TIP3   OH212732   4.120   4.335   1.292
 4264TIP3    H112733   4.093   4.337   1.200
 4264TIP3    H212734   4.213   4.315   1.289
 4265TIP3   OH212735   0.494   4.069   0.689
 4265TIP3    H112736   0.416   4.045   0.739
 4265TIP3    H212737   0.466   4.063   0.597
 4266TIP3   OH212738   3.458   6.204   6.450
 4266TIP3    H112739   3.439   6.252   6.531
 4266TIP3    H212740   3.499   6.123   6.480
 4267TIP3   OH212741   2.640   0.159   0.111
 4267TIP3    H112742   2.616   0.085   0.167
 4267TIP3    H212743   2.634   0.235   0.169
 4268TIP3   OH212744   4.128   0.238   6.477
 4268TIP3    H112745   4.086   0.152   6.470
 4268TIP3    H212746   4.222   0.220   6.472
 4269TIP3   OH212747   4.866   6.292   3.225
 4269TIP3    H112748   4.795   6.355   3.221
 4269TIP3    H212749   4.869   6.265   3.317
 4270TIP3   OH212750   6.468   0.136   1.939
 4270TIP3    H112751   6.535   0.174   1.881
 4270TIP3    H212752   6.399   0.108   1.879
 4271TIP3   OH212753   3.904   0.166   5.273
 4271TIP3    H112754   3.980   0.135   5.222
 4271TIP3    H212755   3.841   0.195   5.206
 4272TIP3   OH212756   1.759   1.934   5.165
 4272TIP3    H112757   1.818   1.997   5.205
 4272TIP3    H212758   1.696   1.986   5.116
 4273TIP3   OH212759   7.075   7.449   3.375
 4273TIP3    H112760   7.145   7.512   3.359
 4273TIP3    H212761   7.051   7.417   3.288
 4274TIP3   OH212762   8.359   6.567   0.632
 4274TIP3    H112763   8.297   6.511   0.678
 4274TIP3    H212764   8.425   6.508   0.596
 4275TIP3   OH212765   7.346   6.963   6.018
 4275TIP3    H112766   7.407   7.027   5.982
 4275TIP3    H212767   7.390   6.878   6.008
 4276TIP3   OH212768   2.072   2.082   6.030
 4276TIP3    H112769   2.009   2.017   6.062
 4276TIP3    H212770   2.095   2.053   5.942
 4277TIP3   OH212771   4.771   5.028   2.790
 4277TIP3    H112772   4.735   5.034   2.702
 4277TIP3    H212773   4.866   5.038   2.778
 4278TIP3   OH212774   4.401   1.028   5.942
 4278TIP3    H112775   4.317   1.052   5.980
 4278TIP3    H212776   4.452   0.994   6.015
 4279TIP3   OH212777   7.780   4.163   1.372
 4279TIP3    H112778   7.689   4.147   1.346
 4279TIP3    H212779   7.787   4.258   1.378
 4280TIP3   OH212780   0.151   6.411   1.771
 4280TIP3    H112781   0.245   6.397   1.771
 4280TIP3    H212782   0.127   6.419   1.679
 4281TIP3   OH212783   7.327   6.987   6.730
 4281TIP3    H112784   7.413   6.965   6.694
 4281TIP3    H212785   7.345   7.056   6.794
 4282TIP3   OH212786   3.682   6.115   3.811
 4282TIP3    H112787   3.687   6.203   3.773
 4282TIP3    H212788   3.709   6.128   3.902
 4283TIP3   OH212789   3.505   6.830   2.368
 4283TIP3    H112790   3.580   6.832   2.428
 4283TIP3    H212791   3.535   6.778   2.294
 4284TIP3   OH212792   2.748   3.100   0.037
 4284TIP3    H112793   2.696   3.115  -0.041
 4284TIP3    H212794   2.733   3.178   0.091
 4285TIP3   OH212795   6.027   6.741   3.609
 4285TIP3    H112796   6.026   6.800   3.684
 4285TIP3    H212797   6.108   6.763   3.562
 4286TIP3   OH212798   7.606   0.805   2.135
 4286TIP3    H112799   7.578   0.735   2.195
 4286TIP3    H212800   7.529   0.821   2.080
 4287TIP3   OH212801   3.637   4.938   5.367
 4287TIP3    H112802   3.662   4.875   5.299
 4287TIP3    H212803   3.581   5.001   5.323
 4288TIP3   OH212804   4.773   5.478   6.167
 4288TIP3    H112805   4.715   5.472   6.091
 4288TIP3    H212806   4.727   5.431   6.236
 4289TIP3   OH212807   4.514   1.233   3.858
 4289TIP3    H112808   4.439   1.199   3.811
 4289TIP3    H212809   4.586   1.228   3.795
 4290TIP3   OH212810   4.977   0.450   5.948
 4290TIP3    H112811   4.922   0.406   5.883
 4290TIP3    H212812   5.048   0.489   5.897
 4291TIP3   OH212813   3.510   3.572   5.403
 4291TIP3    H112814   3.515   3.540   5.493
 4291TIP3    H212815   3.536   3.497   5.350
 4292TIP3   OH212816   0.286   4.515   6.111
 4292TIP3    H112817   0.227   4.590   6.121
 4292TIP3    H212818   0.374   4.551   6.121
 4293TIP3   OH212819   1.058   5.574   6.629
 4293TIP3    H112820   1.149   5.593   6.610
 4293TIP3    H212821   1.016   5.571   6.543
 4294TIP3   OH212822   5.390   6.119   5.432
 4294TIP3    H112823   5.404   6.130   5.338
 4294TIP3    H212824   5.309   6.167   5.450
 4295TIP3   OH212825   5.808   4.768   2.997
 4295TIP3    H112826   5.742   4.709   3.032
 4295TIP3    H212827   5.788   4.773   2.903
 4296TIP3   OH212828   0.614   5.579   5.823
 4296TIP3    H112829   0.593   5.670   5.801
 4296TIP3    H212830   0.654   5.585   5.910
 4297TIP3   OH212831   2.415   2.889   4.768
 4297TIP3    H112832   2.427   2.982   4.782
 4297TIP3    H212833   2.436   2.849   4.852
 4298TIP3   OH212834   7.035   6.551   0.961
 4298TIP3    H112835   7.014   6.492   0.889
 4298TIP3    H212836   7.070   6.493   1.029
 4299TIP3   OH212837   1.063   6.449   3.069
 4299TIP3    H112838   1.062   6.459   3.164
 4299TIP3    H212839   1.071   6.538   3.035
 4300TIP3   OH212840   3.654  -0.006   3.414
 4300TIP3    H112841   3.629  -0.065   3.485
 4300TIP3    H212842   3.645   0.081   3.452
 4301TIP3   OH212843   8.286   1.382   1.717
 4301TIP3    H112844   8.353   1.392   1.649
 4301TIP3    H212845   8.216   1.442   1.691
 4302TIP3   OH212846   6.988   6.426   2.536
 4302TIP3    H112847   7.005   6.360   2.469
 4302TIP3    H212848   6.945   6.498   2.489
 4303TIP3   OH212849   7.989   2.309   1.647
 4303TIP3    H112850   7.914   2.276   1.598
 4303TIP3    H212851   8.062   2.255   1.619
 4304TIP3   OH212852   3.620   5.463   2.724
 4304TIP3    H112853   3.706   5.496   2.750
 4304TIP3    H212854   3.615   5.376   2.764
 4305TIP3   OH212855   4.285   3.311   1.443
 4305TIP3    H112856   4.302   3.269   1.359
 4305TIP3    H212857   4.331   3.257   1.507
 4306TIP3   OH212858   3.154   4.777   1.163
 4306TIP3    H112859   3.163   4.697   1.111
 4306TIP3    H212860   3.209   4.841   1.118
 4307TIP3   OH212861   2.954   2.397   0.611
 4307TIP3    H112862   3.012   2.471   0.631
 4307TIP3    H212863   3.013   2.321   0.607
 4308TIP3   OH212864   6.831   1.844   0.848
 4308TIP3    H112865   6.815   1.825   0.940
 4308TIP3    H212866   6.877   1.928   0.848
 4309TIP3   OH212867   5.059   4.531   1.465
 4309TIP3    H112868   5.096   4.606   1.419
 4309TIP3    H212869   4.964   4.548   1.466
 4310TIP3   OH212870   8.322   7.636   3.959
 4310TIP3    H112871   8.348   7.678   3.877
 4310TIP3    H212872   8.250   7.578   3.935
 4311TIP3   OH212873   4.215   5.294   1.822
 4311TIP3    H112874   4.223   5.228   1.891
 4311TIP3    H212875   4.124   5.321   1.825
 4312TIP3   OH212876   4.476   3.085   0.962
 4312TIP3    H112877   4.478   3.049   0.873
 4312TIP3    H212878   4.537   3.030   1.011
 4313TIP3   OH212879   6.480   5.217   3.331
 4313TIP3    H112880   6.413   5.259   3.276
 4313TIP3    H212881   6.445   5.226   3.420
 4314TIP3   OH212882   2.604   5.814   6.128
 4314TIP3    H112883   2.596   5.723   6.101
 4314TIP3    H212884   2.628   5.861   6.048
 4315TIP3   OH212885   4.326   3.605   1.115
 4315TIP3    H112886   4.285   3.671   1.059
 4315TIP3    H212887   4.263   3.532   1.116
 4316TIP3   OH212888   2.106   1.891   0.449
 4316TIP3    H112889   2.150   1.954   0.505
 4316TIP3    H212890   2.063   1.830   0.509
 4317TIP3   OH212891   3.264   3.950   4.573
 4317TIP3    H112892   3.313   3.880   4.615
 4317TIP3    H212893   3.330   4.014   4.549
 4318TIP3   OH212894   3.673   6.876   3.962
 4318TIP3    H112895   3.602   6.940   3.960
 4318TIP3    H212896   3.736   6.906   3.896
 4319TIP3   OH212897   4.778   5.459   1.715
 4319TIP3    H112898   4.713   5.407   1.764
 4319TIP3    H212899   4.862   5.436   1.755
 4320TIP3   OH212900   1.433   6.901   6.558
 4320TIP3    H112901   1.453   6.862   6.473
 4320TIP3    H212902   1.338   6.896   6.565
 4321TIP3   OH212903   6.891   4.071   0.259
 4321TIP3    H112904   6.978   4.031   0.254
 4321TIP3    H212905   6.905   4.162   0.232
 4322TIP3   OH212906   0.847   0.137   5.945
 4322TIP3    H112907   0.889   0.222   5.929
 4322TIP3    H212908   0.896   0.099   6.017
 4323TIP3   OH212909   5.590   2.472   1.526
 4323TIP3    H112910   5.564   2.490   1.436
 4323TIP3    H212911   5.620   2.557   1.559
 4324TIP3   OH212912   6.733   7.775   1.868
 4324TIP3    H112913   6.683   7.742   1.793
 4324TIP3    H212914   6.669   7.787   1.937
 4325TIP3   OH212915   5.125   2.055   4.974
 4325TIP3    H112916   5.070   2.005   5.034
 4325TIP3    H212917   5.064   2.114   4.929
 4326TIP3   OH212918   4.426   5.271   3.378
 4326TIP3    H112919   4.431   5.342   3.442
 4326TIP3    H212920   4.513   5.232   3.378
 4327TIP3   OH212921   0.599   4.690   1.964
 4327TIP3    H112922   0.608   4.785   1.971
 4327TIP3    H212923   0.548   4.664   2.040
 4328TIP3   OH212924   5.987   1.719   5.979
 4328TIP3    H112925   6.029   1.760   5.904
 4328TIP3    H212926   5.893   1.724   5.959
 4329TIP3   OH212927   0.457   5.172   0.619
 4329TIP3    H112928   0.483   5.108   0.553
 4329TIP3    H212929   0.514   5.248   0.604
 4330TIP3   OH212930   2.816   4.596   2.613
 4330TIP3    H112931   2.882   4.530   2.593
 4330TIP3    H212932   2.857   4.680   2.590
 4331TIP3   OH212933   1.526   4.822   6.312
 4331TIP3    H112934   1.564   4.757   6.370
 4331TIP3    H212935   1.446   4.782   6.280
 4332TIP3   OH212936   7.207   2.255   6.709
 4332TIP3    H112937   7.288   2.282   6.751
 4332TIP3    H212938   7.165   2.337   6.683
 4333TIP3   OH212939   0.605   0.281   2.961
 4333TIP3    H112940   0.669   0.350   2.947
 4333TIP3    H212941   0.573   0.296   3.050
 4334TIP3   OH212942   3.342   2.517   4.010
 4334TIP3    H112943   3.396   2.463   3.953
 4334TIP3    H212944   3.397   2.533   4.087
 4335TIP3   OH212945   3.828   3.642   5.905
 4335TIP3    H112946   3.785   3.606   5.828
 4335TIP3    H212947   3.917   3.663   5.876
 4336TIP3   OH212948   7.422   2.590   4.353
 4336TIP3    H112949   7.356   2.627   4.294
 4336TIP3    H212950   7.439   2.660   4.416
 4337TIP3   OH212951   6.972   2.076   2.314
 4337TIP3    H112952   6.934   2.001   2.358
 4337TIP3    H212953   6.928   2.152   2.352
 4338TIP3   OH212954   0.405   4.915   0.132
 4338TIP3    H112955   0.444   4.929   0.045
 4338TIP3    H212956   0.311   4.916   0.116
 4339TIP3   OH212957   6.269   5.723   6.360
 4339TIP3    H112958   6.286   5.799   6.415
 4339TIP3    H212959   6.355   5.692   6.333
 4340TIP3   OH212960   2.122   2.844   2.629
 4340TIP3    H112961   2.081   2.765   2.664
 4340TIP3    H212962   2.144   2.821   2.539
 4341TIP3   OH212963   5.834   1.798   3.500
 4341TIP3    H112964   5.927   1.795   3.524
 4341TIP3    H212965   5.811   1.708   3.478
 4342TIP3   OH212966   2.835   2.402   4.827
 4342TIP3    H112967   2.759   2.433   4.778
 4342TIP3    H212968   2.803   2.326   4.876
 4343TIP3   OH212969   5.042   2.988   0.289
 4343TIP3    H112970   5.128   2.981   0.246
 4343TIP3    H212971   5.061   3.027   0.374
 4344TIP3   OH212972   2.771   0.917   6.427
 4344TIP3    H112973   2.695   0.951   6.475
 4344TIP3    H212974   2.761   0.822   6.433
 4345TIP3   OH212975   3.703   2.998   6.762
 4345TIP3    H112976   3.645   3.047   6.820
 4345TIP3    H212977   3.644   2.952   6.703
 4346TIP3   OH212978   7.116   2.117   4.580
 4346TIP3    H112979   7.207   2.132   4.605
 4346TIP3    H212980   7.104   2.022   4.587
 4347TIP3   OH212981   7.332   5.784   5.867
 4347TIP3    H112982   7.236   5.783   5.860
 4347TIP3    H212983   7.351   5.849   5.934
 4348TIP3   OH212984   3.339   0.110   0.307
 4348TIP3    H112985   3.336   0.088   0.400
 4348TIP3    H212986   3.421   0.073   0.276
 4349TIP3   OH212987   4.831   7.306   6.177
 4349TIP3    H112988   4.820   7.392   6.137
 4349TIP3    H212989   4.796   7.315   6.266
 4350TIP3   OH212990   1.128   2.925   6.412
 4350TIP3    H112991   1.078   2.998   6.375
 4350TIP3    H212992   1.219   2.954   6.407
 4351TIP3   OH212993   6.667   7.136   2.514
 4351TIP3    H112994   6.585   7.165   2.473
 4351TIP3    H212995   6.716   7.095   2.444
 4352TIP3   OH212996   3.068   1.001   2.917
 4352TIP3    H112997   2.975   0.980   2.911
 4352TIP3    H212998   3.086   1.050   2.837
 4353TIP3   OH212999   8.391   7.677   2.778
 4353TIP3    H113000   8.436   7.751   2.818
 4353TIP3    H213001   8.300   7.705   2.771
 4354TIP3   OH213002   1.767   3.546   1.398
 4354TIP3    H113003   1.690   3.578   1.444
 4354TIP3    H213004   1.804   3.480   1.457
 4355TIP3   OH213005   3.181   1.096   3.154
 4355TIP3    H113006   3.143   1.055   3.076
 4355TIP3    H213007   3.143   1.184   3.156
 4356TIP3   OH213008   4.222   3.808   3.937
 4356TIP3    H113009   4.160   3.817   4.010
 4356TIP3    H213010   4.245   3.715   3.936
 4357TIP3   OH213011   4.494   6.983   6.418
 4357TIP3    H113012   4.505   6.976   6.323
 4357TIP3    H213013   4.405   6.953   6.433
 4358TIP3   OH213014   1.502   3.649   2.509
 4358TIP3    H113015   1.415   3.687   2.527
 4358TIP3    H213016   1.486   3.585   2.440
 4359TIP3   OH213017   0.917   2.707   1.690
 4359TIP3    H113018   0.874   2.791   1.706
 4359TIP3    H213019   0.919   2.664   1.775
 4360TIP3   OH213020   3.566   1.166   1.072
 4360TIP3    H113021   3.627   1.202   1.008
 4360TIP3    H213022   3.613   1.093   1.111
 4361TIP3   OH213023   0.795   1.331   4.104
 4361TIP3    H113024   0.880   1.330   4.059
 4361TIP3    H213025   0.816   1.337   4.197
 4362TIP3   OH213026   6.312   4.431   3.211
 4362TIP3    H113027   6.227   4.400   3.181
 4362TIP3    H213028   6.332   4.505   3.154
 4363TIP3   OH213029   0.971   3.551   2.577
 4363TIP3    H113030   1.054   3.577   2.537
 4363TIP3    H213031   0.966   3.601   2.659
 4364TIP3   OH213032   6.219   0.802   5.187
 4364TIP3    H113033   6.230   0.716   5.147
 4364TIP3    H213034   6.276   0.801   5.263
 4365TIP3   OH213035   1.687   2.473   2.071
 4365TIP3    H113036   1.635   2.428   2.005
 4365TIP3    H213037   1.749   2.526   2.021
 4366TIP3   OH213038   4.614   4.610   4.682
 4366TIP3    H113039   4.619   4.548   4.609
 4366TIP3    H213040   4.524   4.642   4.681
 4367TIP3   OH213041   6.313   2.629   6.591
 4367TIP3    H113042   6.287   2.607   6.680
 4367TIP3    H213043   6.298   2.548   6.541
 4368TIP3   OH213044   0.507   6.744   6.569
 4368TIP3    H113045   0.506   6.799   6.647
 4368TIP3    H213046   0.550   6.797   6.503
 4369TIP3   OH213047   7.384   4.801   6.681
 4369TIP3    H113048   7.370   4.894   6.695
 4369TIP3    H213049   7.357   4.786   6.590
 4370TIP3   OH213050   4.633   4.523   2.534
 4370TIP3    H113051   4.693   4.449   2.543
 4370TIP3    H213052   4.688   4.600   2.551
 4371TIP3   OH213053   4.210   7.433   0.589
 4371TIP3    H113054   4.239   7.378   0.516
 4371TIP3    H213055   4.115   7.441   0.577
 4372TIP3   OH213056   4.790   4.414   2.001
 4372TIP3    H113057   4.808   4.470   1.925
 4372TIP3    H213058   4.701   4.382   1.985
 4373TIP3   OH213059   2.918   3.570   1.860
 4373TIP3    H113060   2.904   3.640   1.924
 4373TIP3    H213061   2.839   3.515   1.867
 4374TIP3   OH213062   0.951   4.768   0.528
 4374TIP3    H113063   0.904   4.778   0.611
 4374TIP3    H213064   0.901   4.822   0.466
 4375TIP3   OH213065   2.821   6.065   2.909
 4375TIP3    H113066   2.745   6.054   2.966
 4375TIP3    H213067   2.896   6.064   2.969
 4376TIP3   OH213068   3.991   3.861   4.120
 4376TIP3    H113069   3.926   3.861   4.050
 4376TIP3    H213070   3.959   3.927   4.182
 4377TIP3   OH213071   0.702   3.524   1.009
 4377TIP3    H113072   0.727   3.458   1.073
 4377TIP3    H213073   0.633   3.483   0.958
 4378TIP3   OH213074   2.684   5.152   3.984
 4378TIP3    H113075   2.711   5.179   3.896
 4378TIP3    H213076   2.716   5.062   3.993
 4379TIP3   OH213077   2.423   0.573   1.400
 4379TIP3    H113078   2.385   0.529   1.476
 4379TIP3    H213079   2.402   0.665   1.413
 4380TIP3   OH213080   3.581   6.004   1.912
 4380TIP3    H113081   3.490   5.976   1.920
 4380TIP3    H213082   3.580   6.070   1.843
 4381TIP3   OH213083   4.625   1.504   5.031
 4381TIP3    H113084   4.606   1.520   5.123
 4381TIP3    H213085   4.607   1.588   4.988
 4382TIP3   OH213086   4.197   5.428   3.141
 4382TIP3    H113087   4.198   5.354   3.202
 4382TIP3    H213088   4.204   5.505   3.196
 4383TIP3   OH213089   3.736   4.601   6.612
 4383TIP3    H113090   3.829   4.580   6.611
 4383TIP3    H213091   3.693   4.523   6.576
 4384TIP3   OH213092   4.645   2.034   5.021
 4384TIP3    H113093   4.574   2.060   5.079
 4384TIP3    H213094   4.611   2.051   4.933
 4385TIP3   OH213095   1.799   6.045   5.011
 4385TIP3    H113096   1.707   6.055   4.988
 4385TIP3    H213097   1.844   6.032   4.928
 4386TIP3   OH213098   5.345   5.206   4.985
 4386TIP3    H113099   5.363   5.281   5.041
 4386TIP3    H213100   5.293   5.147   5.039
 4387TIP3   OH213101   6.498   1.220   0.514
 4387TIP3    H113102   6.479   1.277   0.439
 4387TIP3    H213103   6.585   1.185   0.497
 4388TIP3   OH213104   3.521   1.103   2.515
 4388TIP3    H113105   3.556   1.176   2.463
 4388TIP3    H213106   3.520   1.137   2.605
 4389TIP3   OH213107   3.569   5.066   0.894
 4389TIP3    H113108   3.566   5.073   0.798
 4389TIP3    H213109   3.645   5.119   0.919
 4390TIP3   OH213110   7.284   4.514   6.743
 4390TIP3    H113111   7.204   4.506   6.693
 4390TIP3    H213112   7.336   4.580   6.696
 4391TIP3   OH213113   7.934   7.368   6.364
 4391TIP3    H113114   8.019   7.411   6.377
 4391TIP3    H213115   7.957   7.283   6.325
 4392TIP3   OH213116   0.093   1.610   3.158
 4392TIP3    H113117   0.181   1.592   3.190
 4392TIP3    H213118   0.038   1.606   3.236
 4393TIP3   OH213119   2.130   1.830   6.868
 4393TIP3    H113120   2.116   1.829   6.773
 4393TIP3    H213121   2.196   1.762   6.883
 4394TIP3   OH213122   2.931   5.463   6.652
 4394TIP3    H113123   3.026   5.455   6.666
 4394TIP3    H213124   2.903   5.530   6.714
 4395TIP3   OH213125   5.812   3.300   0.595
 4395TIP3    H113126   5.782   3.258   0.514
 4395TIP3    H213127   5.862   3.376   0.565
 4396TIP3   OH213128   2.757   6.651   4.435
 4396TIP3    H113129   2.808   6.683   4.509
 4396TIP3    H213130   2.776   6.557   4.431
 4397TIP3   OH213131   7.644   6.256   6.306
 4397TIP3    H113132   7.711   6.232   6.243
 4397TIP3    H213133   7.684   6.240   6.391
 4398TIP3   OH213134   8.032   3.739   5.778
 4398TIP3    H113135   8.035   3.833   5.791
 4398TIP3    H213136   8.072   3.702   5.857
 4399TIP3   OH213137   6.868   2.808   5.441
 4399TIP3    H113138   6.849   2.818   5.534
 4399TIP3    H213139   6.935   2.739   5.438
 4400TIP3   OH213140   3.964   1.897   3.394
 4400TIP3    H113141   4.004   1.856   3.471
 4400TIP3    H213142   4.020   1.868   3.321
 4401TIP3   OH213143   3.552   3.981   2.986
 4401TIP3    H113144   3.520   4.070   2.969
 4401TIP3    H213145   3.598   3.989   3.070
 4402TIP3   OH213146   5.354   7.038   0.695
 4402TIP3    H113147   5.431   6.982   0.705
 4402TIP3    H213148   5.290   6.983   0.649
 4403TIP3   OH213149   2.422   7.245   6.531
 4403TIP3    H113150   2.503   7.271   6.487
 4403TIP3    H213151   2.433   7.275   6.621
 4404TIP3   OH213152   4.949   4.679   3.411
 4404TIP3    H113153   5.018   4.698   3.347
 4404TIP3    H213154   4.952   4.583   3.420
 4405TIP3   OH213155   5.008   0.652   0.715
 4405TIP3    H113156   4.952   0.664   0.638
 4405TIP3    H213157   5.013   0.557   0.725
 4406TIP3   OH213158   3.492   7.413   2.498
 4406TIP3    H113159   3.513   7.398   2.590
 4406TIP3    H213160   3.557   7.364   2.449
 4407TIP3   OH213161   7.808   2.179   2.152
 4407TIP3    H113162   7.725   2.135   2.136
 4407TIP3    H213163   7.788   2.245   2.218
 4408TIP3   OH213164   3.158   5.481   1.266
 4408TIP3    H113165   3.113   5.520   1.190
 4408TIP3    H213166   3.234   5.436   1.228
 4409TIP3   OH213167   2.156   2.818   4.696
 4409TIP3    H113168   2.244   2.854   4.703
 4409TIP3    H213169   2.146   2.763   4.774
 4410TIP3   OH213170   6.037   3.747   2.672
 4410TIP3    H113171   6.039   3.823   2.613
 4410TIP3    H213172   6.110   3.760   2.731
 4411TIP3   OH213173   2.291   4.309   1.286
 4411TIP3    H113174   2.327   4.365   1.216
 4411TIP3    H213175   2.333   4.224   1.272
 4412TIP3   OH213176   1.294   4.355   3.888
 4412TIP3    H113177   1.349   4.401   3.952
 4412TIP3    H213178   1.347   4.281   3.859
 4413TIP3   OH213179   0.940   7.458   1.452
 4413TIP3    H113180   0.916   7.434   1.362
 4413TIP3    H213181   0.902   7.544   1.465
 4414TIP3   OH213182   2.997   7.509   4.513
 4414TIP3    H113183   3.012   7.429   4.462
 4414TIP3    H213184   3.011   7.580   4.451
 4415TIP3   OH213185   1.221   3.111   4.523
 4415TIP3    H113186   1.262   3.193   4.497
 4415TIP3    H213187   1.162   3.135   4.595
 4416TIP3   OH213188   6.609   4.607   1.405
 4416TIP3    H113189   6.665   4.577   1.477
 4416TIP3    H213190   6.651   4.687   1.374
 4417TIP3   OH213191   5.227   6.573   2.482
 4417TIP3    H113192   5.256   6.547   2.569
 4417TIP3    H213193   5.170   6.649   2.497
 4418TIP3   OH213194   4.607   2.424   1.095
 4418TIP3    H113195   4.619   2.336   1.059
 4418TIP3    H213196   4.671   2.478   1.048
 4419TIP3   OH213197   5.906   6.522   0.365
 4419TIP3    H113198   5.841   6.540   0.433
 4419TIP3    H213199   5.874   6.442   0.323
 4420TIP3   OH213200   4.842   4.070   5.342
 4420TIP3    H113201   4.892   4.136   5.391
 4420TIP3    H213202   4.784   4.030   5.406
 4421TIP3   OH213203   2.354   1.557   6.012
 4421TIP3    H113204   2.259   1.554   6.023
 4421TIP3    H213205   2.385   1.608   6.087
 4422TIP3   OH213206   8.422   4.973   6.154
 4422TIP3    H113207   8.438   4.989   6.247
 4422TIP3    H213208   8.327   4.978   6.144
 4423TIP3   OH213209   5.819   3.612   5.841
 4423TIP3    H113210   5.767   3.543   5.882
 4423TIP3    H213211   5.872   3.648   5.912
 4424TIP3   OH213212   2.137   6.889   5.810
 4424TIP3    H113213   2.227   6.858   5.822
 4424TIP3    H213214   2.127   6.958   5.875
 4425TIP3   OH213215   7.207   5.469   3.273
 4425TIP3    H113216   7.272   5.403   3.299
 4425TIP3    H213217   7.259   5.547   3.256
 4426TIP3   OH213218   8.254   0.436   5.327
 4426TIP3    H113219   8.280   0.400   5.412
 4426TIP3    H213220   8.244   0.530   5.343
 4427TIP3   OH213221   0.398   3.787   6.572
 4427TIP3    H113222   0.316   3.776   6.620
 4427TIP3    H213223   0.384   3.867   6.520
 4428TIP3   OH213224   4.614   2.764   4.921
 4428TIP3    H113225   4.592   2.672   4.910
 4428TIP3    H213226   4.555   2.795   4.990
 4429TIP3   OH213227   0.036   1.674   6.468
 4429TIP3    H113228   0.080   1.590   6.485
 4429TIP3    H213229   0.024   1.676   6.374
 4430TIP3   OH213230   2.427   3.976   4.941
 4430TIP3    H113231   2.457   4.051   4.993
 4430TIP3    H213232   2.421   3.904   5.003
 4431TIP3   OH213233   6.915   0.460   2.878
 4431TIP3    H113234   6.820   0.461   2.866
 4431TIP3    H213235   6.939   0.368   2.873
 4432TIP3   OH213236   0.738   1.785   2.853
 4432TIP3    H113237   0.699   1.845   2.917
 4432TIP3    H213238   0.805   1.837   2.809
 4433TIP3   OH213239   0.315   6.138   1.755
 4433TIP3    H113240   0.398   6.172   1.789
 4433TIP3    H213241   0.309   6.175   1.667
 4434TIP3   OH213242   7.864   5.886   3.994
 4434TIP3    H113243   7.900   5.813   4.045
 4434TIP3    H213244   7.856   5.852   3.905
 4435TIP3   OH213245   3.899   3.539   6.334
 4435TIP3    H113246   3.929   3.559   6.422
 4435TIP3    H213247   3.884   3.445   6.333
 4436TIP3   OH213248   2.598   4.826   5.267
 4436TIP3    H113249   2.553   4.799   5.347
 4436TIP3    H213250   2.544   4.789   5.196
 4437TIP3   OH213251   3.476   2.175   5.162
 4437TIP3    H113252   3.511   2.212   5.243
 4437TIP3    H213253   3.442   2.089   5.188
 4438TIP3   OH213254   7.009   7.401   3.112
 4438TIP3    H113255   7.040   7.473   3.058
 4438TIP3    H213256   7.048   7.323   3.072
 4439TIP3   OH213257   1.794   1.177   4.597
 4439TIP3    H113258   1.800   1.116   4.671
 4439TIP3    H213259   1.879   1.170   4.554
 4440TIP3   OH213260   6.139   1.418   0.278
 4440TIP3    H113261   6.198   1.479   0.233
 4440TIP3    H213262   6.189   1.337   0.285
 4441TIP3   OH213263   5.145   1.673   3.894
 4441TIP3    H113264   5.131   1.739   3.961
 4441TIP3    H213265   5.240   1.669   3.883
 4442TIP3   OH213266   5.903   2.504   5.092
 4442TIP3    H113267   5.899   2.421   5.139
 4442TIP3    H213268   5.974   2.493   5.029
 4443TIP3   OH213269   1.598   6.048   3.058
 4443TIP3    H113270   1.688   6.056   3.091
 4443TIP3    H213271   1.551   6.003   3.127
 4444TIP3   OH213272   7.071   4.946   2.295
 4444TIP3    H113273   7.073   5.039   2.274
 4444TIP3    H213274   6.978   4.926   2.310
 4445TIP3   OH213275   3.223   3.973   2.687
 4445TIP3    H113276   3.313   3.945   2.705
 4445TIP3    H213277   3.190   3.907   2.626
 4446TIP3   OH213278   7.582   3.565   5.618
 4446TIP3    H113279   7.650   3.574   5.685
 4446TIP3    H213280   7.629   3.559   5.535
 4447TIP3   OH213281   0.957   6.685   3.253
 4447TIP3    H113282   0.903   6.647   3.184
 4447TIP3    H213283   0.896   6.703   3.325
 4448TIP3   OH213284   2.109   2.636   4.941
 4448TIP3    H113285   2.057   2.557   4.929
 4448TIP3    H213286   2.089   2.665   5.030
 4449TIP3   OH213287   1.262   0.598   5.722
 4449TIP3    H113288   1.327   0.628   5.658
 4449TIP3    H213289   1.307   0.531   5.773
 4450TIP3   OH213290   1.310   2.549   0.643
 4450TIP3    H113291   1.288   2.607   0.715
 4450TIP3    H213292   1.359   2.603   0.581
 4451TIP3   OH213293   6.220   7.407   5.896
 4451TIP3    H113294   6.274   7.340   5.854
 4451TIP3    H213295   6.216   7.380   5.988
 4452TIP3   OH213296   5.114   6.415   3.682
 4452TIP3    H113297   5.178   6.344   3.680
 4452TIP3    H213298   5.114   6.449   3.593
 4453TIP3   OH213299   4.224   0.993   4.196
 4453TIP3    H113300   4.190   0.945   4.271
 4453TIP3    H213301   4.319   0.979   4.199
 4454TIP3   OH213302   2.087   2.952   3.469
 4454TIP3    H113303   2.122   2.955   3.380
 4454TIP3    H213304   2.007   2.900   3.461
 4455TIP3   OH213305   3.184   3.700   2.830
 4455TIP3    H113306   3.120   3.770   2.815
 4455TIP3    H213307   3.243   3.735   2.897
 4456TIP3   OH213308   1.202   7.886   4.836
 4456TIP3    H113309   1.186   7.979   4.852
 4456TIP3    H213310   1.131   7.842   4.883
 4457TIP3   OH213311   5.731   3.240   4.397
 4457TIP3    H113312   5.805   3.186   4.426
 4457TIP3    H213313   5.656   3.206   4.447
 4458TIP3   OH213314   3.697   6.036   0.070
 4458TIP3    H113315   3.755   6.055  -0.003
 4458TIP3    H213316   3.756   6.019   0.144
 4459TIP3   OH213317   2.393   7.135   3.146
 4459TIP3    H113318   2.443   7.167   3.071
 4459TIP3    H213319   2.442   7.058   3.177
 4460TIP3   OH213320   4.686   1.651   4.688
 4460TIP3    H113321   4.705   1.563   4.657
 4460TIP3    H213322   4.591   1.657   4.690
 4461TIP3   OH213323   4.710   4.370   3.824
 4461TIP3    H113324   4.675   4.361   3.735
 4461TIP3    H213325   4.795   4.324   3.820
 4462TIP3   OH213326   1.837   2.429   5.169
 4462TIP3    H113327   1.865   2.484   5.243
 4462TIP3    H213328   1.764   2.477   5.130
 4463TIP3   OH213329   1.124   5.742   5.628
 4463TIP3    H113330   1.036   5.704   5.629
 4463TIP3    H213331   1.151   5.738   5.536
 4464TIP3   OH213332   7.527   7.293   4.959
 4464TIP3    H113333   7.439   7.255   4.967
 4464TIP3    H213334   7.580   7.223   4.922
 4465TIP3   OH213335   5.818   3.709   1.364
 4465TIP3    H113336   5.871   3.771   1.414
 4465TIP3    H213337   5.844   3.623   1.396
 4466TIP3   OH213338   3.435   6.437   0.272
 4466TIP3    H113339   3.409   6.369   0.209
 4466TIP3    H213340   3.358   6.492   0.282
 4467TIP3   OH213341   2.568   7.492   0.462
 4467TIP3    H113342   2.528   7.579   0.459
 4467TIP3    H213343   2.642   7.498   0.402
 4468TIP3   OH213344   2.557   2.398   1.741
 4468TIP3    H113345   2.558   2.494   1.740
 4468TIP3    H213346   2.479   2.375   1.690
 4469TIP3   OH213347   1.310   0.069   3.104
 4469TIP3    H113348   1.403   0.079   3.086
 4469TIP3    H213349   1.280   0.001   3.043
 4470TIP3   OH213350   7.149   6.411   2.777
 4470TIP3    H113351   7.192   6.483   2.823
 4470TIP3    H213352   7.100   6.453   2.706
 4471TIP3   OH213353   7.341   5.488   5.952
 4471TIP3    H113354   7.429   5.464   5.982
 4471TIP3    H213355   7.347   5.582   5.934
 4472TIP3   OH213356   7.141   3.343   5.641
 4472TIP3    H113357   7.191   3.360   5.721
 4472TIP3    H213358   7.100   3.427   5.620
 4473TIP3   OH213359   0.947   6.150   3.127
 4473TIP3    H113360   0.854   6.159   3.108
 4473TIP3    H213361   0.985   6.235   3.103
 4474TIP3   OH213362   6.857   1.851   2.422
 4474TIP3    H113363   6.839   1.834   2.515
 4474TIP3    H213364   6.780   1.818   2.377
 4475TIP3   OH213365   3.600   5.681   4.608
 4475TIP3    H113366   3.619   5.594   4.644
 4475TIP3    H213367   3.677   5.733   4.630
 4476TIP3   OH213368   3.723   0.694   4.603
 4476TIP3    H113369   3.762   0.689   4.516
 4476TIP3    H213370   3.770   0.627   4.654
 4477TIP3   OH213371   5.360   5.173   3.303
 4477TIP3    H113372   5.454   5.164   3.286
 4477TIP3    H213373   5.329   5.233   3.235
 4478TIP3   OH213374   6.783   6.433   4.598
 4478TIP3    H113375   6.787   6.339   4.582
 4478TIP3    H213376   6.738   6.469   4.521
 4479TIP3   OH213377   0.303   1.953   6.568
 4479TIP3    H113378   0.209   1.939   6.561
 4479TIP3    H213379   0.341   1.910   6.491
 4480TIP3   OH213380   6.330   1.589   5.834
 4480TIP3    H113381   6.364   1.517   5.888
 4480TIP3    H213382   6.243   1.607   5.870
 4481TIP3   OH213383   2.566   5.485   2.426
 4481TIP3    H113384   2.652   5.449   2.451
 4481TIP3    H213385   2.585   5.542   2.352
 4482TIP3   OH213386   6.026   7.131   5.377
 4482TIP3    H113387   6.010   7.158   5.287
 4482TIP3    H213388   6.094   7.064   5.371
 4483TIP3   OH213389   4.347   5.559   3.981
 4483TIP3    H113390   4.410   5.580   3.913
 4483TIP3    H213391   4.400   5.542   4.059
 4484TIP3   OH213392   5.134   2.624   3.345
 4484TIP3    H113393   5.195   2.621   3.419
 4484TIP3    H213394   5.150   2.542   3.297
 4485TIP3   OH213395   6.115   4.487   1.252
 4485TIP3    H113396   6.062   4.535   1.188
 4485TIP3    H213397   6.180   4.551   1.282
 4486TIP3   OH213398   4.260   7.574   1.451
 4486TIP3    H113399   4.249   7.668   1.463
 4486TIP3    H213400   4.354   7.562   1.436
 4487TIP3   OH213401   4.374   6.483   4.078
 4487TIP3    H113402   4.305   6.544   4.054
 4487TIP3    H213403   4.391   6.433   3.999
 4488TIP3   OH213404   5.796   0.483   5.417
 4488TIP3    H113405   5.739   0.416   5.456
 4488TIP3    H213406   5.735   0.542   5.372
 4489TIP3   OH213407   0.481   3.867   0.320
 4489TIP3    H113408   0.434   3.842   0.241
 4489TIP3    H213409   0.413   3.875   0.387
 4490TIP3   OH213410   4.208   4.223   3.303
 4490TIP3    H113411   4.155   4.175   3.367
 4490TIP3    H213412   4.169   4.201   3.219
 4491TIP3   OH213413   5.264   1.198  -0.017
 4491TIP3    H113414   5.251   1.104  -0.017
 4491TIP3    H213415   5.194   1.232   0.039
 4492TIP3   OH213416   2.378   6.881   0.414
 4492TIP3    H113417   2.424   6.949   0.365
 4492TIP3    H213418   2.296   6.868   0.367
 4493TIP3   OH213419   1.378   0.540   0.886
 4493TIP3    H113420   1.450   0.498   0.933
 4493TIP3    H213421   1.399   0.634   0.889
 4494TIP3   OH213422   4.189   6.522   6.753
 4494TIP3    H113423   4.212   6.560   6.668
 4494TIP3    H213424   4.227   6.582   6.817
 4495TIP3   OH213425   5.974   2.655   6.425
 4495TIP3    H113426   5.986   2.612   6.510
 4495TIP3    H213427   5.976   2.584   6.361
 4496TIP3   OH213428   6.336   2.931   0.849
 4496TIP3    H113429   6.342   2.849   0.897
 4496TIP3    H213430   6.244   2.938   0.824
 4497TIP3   OH213431   4.522   5.313   6.824
 4497TIP3    H113432   4.609   5.353   6.823
 4497TIP3    H213433   4.526   5.244   6.757
 4498TIP3   OH213434   7.156   4.284   6.275
 4498TIP3    H113435   7.070   4.254   6.306
 4498TIP3    H213436   7.218   4.246   6.337
 4499TIP3   OH213437   1.906   5.865   0.875
 4499TIP3    H113438   1.919   5.778   0.837
 4499TIP3    H213439   1.813   5.882   0.863
 4500TIP3   OH213440   4.242   4.531   0.152
 4500TIP3    H113441   4.280   4.553   0.067
 4500TIP3    H213442   4.239   4.435   0.153
 4501TIP3   OH213443   4.955   0.585   5.307
 4501TIP3    H113444   5.035   0.600   5.256
 4501TIP3    H213445   4.890   0.643   5.267
 4502TIP3   OH213446   7.824   5.334   6.511
 4502TIP3    H113447   7.850   5.374   6.428
 4502TIP3    H213448   7.857   5.244   6.505
 4503TIP3   OH213449   4.897   0.674   4.585
 4503TIP3    H113450   4.894   0.588   4.627
 4503TIP3    H213451   4.924   0.656   4.495
 4504TIP3   OH213452   8.119   5.563   4.662
 4504TIP3    H113453   8.098   5.478   4.701
 4504TIP3    H213454   8.213   5.573   4.677
 4505TIP3   OH213455   3.326   7.757   1.126
 4505TIP3    H113456   3.378   7.690   1.083
 4505TIP3    H213457   3.286   7.712   1.201
 4506TIP3   OH213458   0.900   5.712   5.088
 4506TIP3    H113459   0.983   5.701   5.042
 4506TIP3    H213460   0.834   5.718   5.018
 4507TIP3   OH213461   5.250   1.937   3.848
 4507TIP3    H113462   5.332   1.966   3.887
 4507TIP3    H213463   5.276   1.878   3.777
 4508TIP3   OH213464   3.144   1.540   0.685
 4508TIP3    H113465   3.207   1.506   0.749
 4508TIP3    H213466   3.198   1.588   0.622
 4509TIP3   OH213467   7.462   1.010   4.289
 4509TIP3    H113468   7.374   0.998   4.251
 4509TIP3    H213469   7.477   0.932   4.341
 4510TIP3   OH213470   7.464   4.565   2.337
 4510TIP3    H113471   7.401   4.547   2.267
 4510TIP3    H213472   7.481   4.659   2.330
 4511TIP3   OH213473   7.632   3.343   1.538
 4511TIP3    H113474   7.718   3.361   1.500
 4511TIP3    H213475   7.629   3.397   1.617
 4512TIP3   OH213476   5.841   0.271   6.373
 4512TIP3    H113477   5.907   0.235   6.433
 4512TIP3    H213478   5.845   0.366   6.389
 4513TIP3   OH213479   3.349   4.524   6.473
 4513TIP3    H113480   3.336   4.586   6.545
 4513TIP3    H213481   3.379   4.578   6.400
 4514TIP3   OH213482   8.008   0.454   2.991
 4514TIP3    H113483   7.990   0.525   2.929
 4514TIP3    H213484   7.963   0.479   3.071
 4515TIP3   OH213485   1.709   7.647   6.373
 4515TIP3    H113486   1.688   7.654   6.467
 4515TIP3    H213487   1.714   7.553   6.357
 4516TIP3   OH213488   0.091   6.743   2.017
 4516TIP3    H113489   0.033   6.769   2.088
 4516TIP3    H213490   0.057   6.658   1.988
 4517TIP3   OH213491   1.456   5.233   4.838
 4517TIP3    H113492   1.490   5.145   4.822
 4517TIP3    H213493   1.524   5.277   4.889
 4518TIP3   OH213494   3.640   6.650   3.089
 4518TIP3    H113495   3.575   6.588   3.055
 4518TIP3    H213496   3.709   6.594   3.125
 4519TIP3   OH213497   7.066   4.581   2.578
 4519TIP3    H113498   7.157   4.573   2.546
 4519TIP3    H213499   7.024   4.500   2.551
 4520TIP3   OH213500   6.297   0.155   4.026
 4520TIP3    H113501   6.267   0.143   4.116
 4520TIP3    H213502   6.391   0.135   4.029
 4521TIP3   OH213503   4.699   3.910   0.021
 4521TIP3    H113504   4.705   3.827  -0.026
 4521TIP3    H213505   4.698   3.885   0.114
 4522TIP3   OH213506   2.760   2.595   2.620
 4522TIP3    H113507   2.703   2.588   2.543
 4522TIP3    H213508   2.763   2.506   2.655
 4523TIP3   OH213509   2.004   2.567   1.567
 4523TIP3    H113510   2.069   2.629   1.534
 4523TIP3    H213511   2.003   2.496   1.502
 4524TIP3   OH213512   5.635   1.204   5.503
 4524TIP3    H113513   5.549   1.244   5.501
 4524TIP3    H213514   5.617   1.110   5.511
 4525TIP3   OH213515   4.585   7.466   0.087
 4525TIP3    H113516   4.526   7.512   0.028
 4525TIP3    H213517   4.664   7.520   0.089
 4526TIP3   OH213518   0.955   6.903   6.213
 4526TIP3    H113519   1.047   6.900   6.190
 4526TIP3    H213520   0.946   6.840   6.284
 4527TIP3   OH213521   3.953   3.626   1.094
 4527TIP3    H113522   3.980   3.654   1.006
 4527TIP3    H213523   4.032   3.587   1.132
 4528TIP3   OH213524   3.544   7.566   6.294
 4528TIP3    H113525   3.573   7.516   6.370
 4528TIP3    H213526   3.615   7.558   6.230
 4529TIP3   OH213527   2.368   0.797   0.959
 4529TIP3    H113528   2.342   0.809   0.867
 4529TIP3    H213529   2.364   0.703   0.972
 4530TIP3   OH213530   5.927   2.437   4.730
 4530TIP3    H113531   5.980   2.439   4.810
 4530TIP3    H213532   5.934   2.346   4.699
 4531TIP3   OH213533   2.128   4.977   6.070
 4531TIP3    H113534   2.129   5.072   6.058
 4531TIP3    H213535   2.062   4.963   6.138
 4532TIP3   OH213536   0.037   4.740   1.161
 4532TIP3    H113537   0.064   4.656   1.200
 4532TIP3    H213538   0.103   4.802   1.191
 4533TIP3   OH213539   6.120   2.053   1.131
 4533TIP3    H113540   6.178   2.050   1.054
 4533TIP3    H213541   6.117   2.146   1.154
 4534TIP3   OH213542   5.075   2.505   0.124
 4534TIP3    H113543   5.122   2.509   0.207
 4534TIP3    H213544   5.104   2.582   0.075
 4535TIP3   OH213545   6.396   1.294   6.510
 4535TIP3    H113546   6.407   1.204   6.479
 4535TIP3    H213547   6.440   1.295   6.595
 4536TIP3   OH213548   5.288   4.645   1.272
 4536TIP3    H113549   5.231   4.707   1.225
 4536TIP3    H213550   5.267   4.560   1.235
 4537TIP3   OH213551   5.137   1.728   2.962
 4537TIP3    H113552   5.154   1.694   3.049
 4537TIP3    H213553   5.144   1.823   2.972
 4538TIP3   OH213554   2.722   7.830   6.786
 4538TIP3    H113555   2.648   7.770   6.792
 4538TIP3    H213556   2.718   7.865   6.697
 4539TIP3   OH213557   2.654   1.488   0.291
 4539TIP3    H113558   2.623   1.500   0.381
 4539TIP3    H213559   2.581   1.443   0.247
 4540TIP3   OH213560   3.202   6.296   1.050
 4540TIP3    H113561   3.293   6.273   1.031
 4540TIP3    H213562   3.153   6.215   1.031
 4541TIP3   OH213563   4.842   6.721   2.635
 4541TIP3    H113564   4.883   6.638   2.658
 4541TIP3    H213565   4.805   6.753   2.717
 4542TIP3   OH213566   7.498   5.923   1.723
 4542TIP3    H113567   7.572   5.963   1.770
 4542TIP3    H213568   7.525   5.925   1.631
 4543TIP3   OH213569   4.431   0.859   3.854
 4543TIP3    H113570   4.340   0.890   3.853
 4543TIP3    H213571   4.456   0.862   3.946
 4544TIP3   OH213572   6.923   5.764   3.171
 4544TIP3    H113573   6.967   5.754   3.087
 4544TIP3    H213574   6.892   5.854   3.173
 4545TIP3   OH213575   7.177   0.767   6.339
 4545TIP3    H113576   7.250   0.755   6.398
 4545TIP3    H213577   7.122   0.689   6.353
 4546TIP3   OH213578   6.640   0.435   5.560
 4546TIP3    H113579   6.665   0.429   5.468
 4546TIP3    H213580   6.700   0.499   5.598
 4547TIP3   OH213581   5.554   4.584   1.377
 4547TIP3    H113582   5.619   4.538   1.323
 4547TIP3    H213583   5.482   4.603   1.316
 4548TIP3   OH213584   3.628   1.559   4.696
 4548TIP3    H113585   3.567   1.590   4.763
 4548TIP3    H213586   3.654   1.472   4.727
 4549TIP3   OH213587   1.201   2.961   6.127
 4549TIP3    H113588   1.283   3.008   6.113
 4549TIP3    H213589   1.215   2.914   6.209
 4550TIP3   OH213590   3.062   6.463   4.272
 4550TIP3    H113591   2.988   6.449   4.331
 4550TIP3    H213592   3.119   6.523   4.320
 4551TIP3   OH213593   6.862   1.619   4.684
 4551TIP3    H113594   6.787   1.563   4.705
 4551TIP3    H213595   6.828   1.682   4.621
 4552TIP3   OH213596   0.456   7.864   1.893
 4552TIP3    H113597   0.494   7.794   1.945
 4552TIP3    H213598   0.363   7.864   1.917
 4553TIP3   OH213599   8.212   3.217   4.020
 4553TIP3    H113600   8.215   3.189   4.112
 4553TIP3    H213601   8.265   3.152   3.974
 4554TIP3   OH213602   7.205   0.225   5.013
 4554TIP3    H113603   7.233   0.269   4.933
 4554TIP3    H213604   7.217   0.132   4.996
 4555TIP3   OH213605   4.026   3.185   5.626
 4555TIP3    H113606   4.059   3.270   5.595
 4555TIP3    H213607   3.962   3.159   5.560
 4556TIP3   OH213608   4.827   7.513   1.942
 4556TIP3    H113609   4.890   7.440   1.943
 4556TIP3    H213610   4.847   7.562   2.022
 4557TIP3   OH213611   5.324   2.439   3.469
 4557TIP3    H113612   5.286   2.358   3.504
 4557TIP3    H213613   5.359   2.415   3.384
 4558TIP3   OH213614   3.216   7.861   3.228
 4558TIP3    H113615   3.241   7.930   3.166
 4558TIP3    H213616   3.126   7.882   3.252
 4559TIP3   OH213617   5.271   3.762   3.910
 4559TIP3    H113618   5.264   3.806   3.825
 4559TIP3    H213619   5.302   3.831   3.969
 4560TIP3   OH213620   6.820   7.887   2.211
 4560TIP3    H113621   6.894   7.947   2.221
 4560TIP3    H213622   6.859   7.802   2.194
 4561TIP3   OH213623   3.563   2.705   2.626
 4561TIP3    H113624   3.605   2.643   2.567
 4561TIP3    H213625   3.469   2.692   2.612
 4562TIP3   OH213626   2.282   1.310   5.648
 4562TIP3    H113627   2.235   1.379   5.693
 4562TIP3    H213628   2.222   1.235   5.649
 4563TIP3   OH213629   7.499   2.736   5.378
 4563TIP3    H113630   7.444   2.673   5.425
 4563TIP3    H213631   7.511   2.699   5.291
 4564TIP3   OH213632   5.167   4.283   4.125
 4564TIP3    H113633   5.249   4.269   4.076
 4564TIP3    H213634   5.125   4.197   4.127
 4565TIP3   OH213635   1.597   3.169   5.732
 4565TIP3    H113636   1.627   3.111   5.662
 4565TIP3    H213637   1.571   3.250   5.687
 4566TIP3   OH213638   5.400   7.561   2.707
 4566TIP3    H113639   5.389   7.528   2.796
 4566TIP3    H213640   5.492   7.543   2.686
 4567TIP3   OH213641   7.064   1.353   1.202
 4567TIP3    H113642   6.999   1.396   1.257
 4567TIP3    H213643   7.057   1.398   1.117
 4568TIP3   OH213644   6.057   5.659   4.431
 4568TIP3    H113645   6.039   5.709   4.351
 4568TIP3    H213646   5.973   5.618   4.453
 4569TIP3   OH213647   7.982   1.205   4.070
 4569TIP3    H113648   7.886   1.211   4.067
 4569TIP3    H213649   8.009   1.277   4.127
 4570TIP3   OH213650   1.823   4.112   5.725
 4570TIP3    H113651   1.741   4.155   5.701
 4570TIP3    H213652   1.815   4.097   5.819
 4571TIP3   OH213653   1.996   4.496   5.882
 4571TIP3    H113654   2.070   4.508   5.823
 4571TIP3    H213655   1.924   4.469   5.825
 4572TIP3   OH213656   7.606   5.018   1.118
 4572TIP3    H113657   7.579   5.074   1.190
 4572TIP3    H213658   7.554   5.049   1.043
 4573TIP3   OH213659   6.664   1.648   3.911
 4573TIP3    H113660   6.620   1.725   3.876
 4573TIP3    H213661   6.715   1.680   3.985
 4574TIP3   OH213662   3.951   2.562   5.720
 4574TIP3    H113663   3.934   2.488   5.777
 4574TIP3    H213664   4.046   2.575   5.724
 4575TIP3   OH213665   8.190   2.386   6.808
 4575TIP3    H113666   8.252   2.315   6.793
 4575TIP3    H213667   8.105   2.350   6.785
 4576TIP3   OH213668   5.219   1.413   4.857
 4576TIP3    H113669   5.162   1.346   4.819
 4576TIP3    H213670   5.228   1.479   4.788
 4577TIP3   OH213671   0.736   5.914   1.019
 4577TIP3    H113672   0.645   5.921   1.047
 4577TIP3    H213673   0.787   5.929   1.099
 4578TIP3   OH213674   5.165   1.897   5.673
 4578TIP3    H113675   5.150   1.857   5.759
 4578TIP3    H213676   5.101   1.968   5.667
 4579TIP3   OH213677   3.390   0.670   0.592
 4579TIP3    H113678   3.390   0.657   0.497
 4579TIP3    H213679   3.426   0.758   0.604
 4580TIP3   OH213680   4.091   1.150  -0.013
 4580TIP3    H113681   4.018   1.211  -0.017
 4580TIP3    H213682   4.081   1.106   0.072
 4581TIP3   OH213683   6.941   7.481   6.557
 4581TIP3    H113684   6.869   7.419   6.540
 4581TIP3    H213685   6.901   7.548   6.612
 4582TIP3   OH213686   7.883   1.100   1.727
 4582TIP3    H113687   7.897   1.146   1.645
 4582TIP3    H213688   7.859   1.011   1.701
 4583TIP3   OH213689   1.502   0.534   2.226
 4583TIP3    H113690   1.557   0.458   2.210
 4583TIP3    H213691   1.563   0.602   2.256
 4584TIP3   OH213692   3.128   5.077   6.865
 4584TIP3    H113693   3.100   5.075   6.773
 4584TIP3    H213694   3.184   5.155   6.871
 4585TIP3   OH213695   0.581   2.124   1.405
 4585TIP3    H113696   0.540   2.039   1.393
 4585TIP3    H213697   0.599   2.156   1.317
 4586TIP3   OH213698   7.872   3.594   3.687
 4586TIP3    H113699   7.920   3.643   3.753
 4586TIP3    H213700   7.794   3.561   3.732
 4587TIP3   OH213701   5.367   3.684   0.457
 4587TIP3    H113702   5.443   3.658   0.405
 4587TIP3    H213703   5.374   3.630   0.536
 4588TIP3   OH213704   0.094   7.705   2.519
 4588TIP3    H113705   0.080   7.669   2.607
 4588TIP3    H213706   0.007   7.710   2.481
 4589TIP3   OH213707   3.413   2.853   5.804
 4589TIP3    H113708   3.457   2.935   5.779
 4589TIP3    H213709   3.485   2.791   5.819
 4590TIP3   OH213710   7.087   0.967   5.408
 4590TIP3    H113711   7.089   1.016   5.491
 4590TIP3    H213712   7.043   1.026   5.347
 4591TIP3   OH213713   6.210   1.428   3.574
 4591TIP3    H113714   6.234   1.461   3.661
 4591TIP3    H213715   6.116   1.446   3.567
 4592TIP3   OH213716   6.538   6.822   3.407
 4592TIP3    H113717   6.557   6.874   3.329
 4592TIP3    H213718   6.608   6.844   3.468
 4593TIP3   OH213719   4.719   2.851   1.399
 4593TIP3    H113720   4.773   2.930   1.405
 4593TIP3    H213721   4.680   2.842   1.486
 4594TIP3   OH213722   6.083   7.061   6.724
 4594TIP3    H113723   6.001   7.079   6.770
 4594TIP3    H213724   6.150   7.064   6.793
 4595TIP3   OH213725   8.042   0.269   2.777
 4595TIP3    H113726   8.043   0.330   2.850
 4595TIP3    H213727   8.040   0.182   2.818
 4596TIP3   OH213728   0.648   6.128   4.241
 4596TIP3    H113729   0.667   6.096   4.330
 4596TIP3    H213730   0.674   6.220   4.244
 4597TIP3   OH213731   4.129   2.691   2.139
 4597TIP3    H113732   4.157   2.601   2.126
 4597TIP3    H213733   4.138   2.705   2.233
 4598TIP3   OH213734   5.471   3.795   3.265
 4598TIP3    H113735   5.438   3.732   3.201
 4598TIP3    H213736   5.513   3.863   3.213
 4599TIP3   OH213737   4.720   3.131   5.100
 4599TIP3    H113738   4.634   3.115   5.061
 4599TIP3    H213739   4.709   3.112   5.193
 4600TIP3   OH213740   3.065   5.768   4.586
 4600TIP3    H113741   3.066   5.827   4.511
 4600TIP3    H213742   3.131   5.702   4.566
 4601TIP3   OH213743   6.369   4.905   6.435
 4601TIP3    H113744   6.430   4.893   6.362
 4601TIP3    H213745   6.369   4.821   6.480
 4602TIP3   OH213746   4.909   0.367   3.803
 4602TIP3    H113747   4.834   0.345   3.748
 4602TIP3    H213748   4.954   0.437   3.755
 4603TIP3   OH213749   0.108   5.201   2.242
 4603TIP3    H113750   0.027   5.245   2.265
 4603TIP3    H213751   0.158   5.197   2.324
 4604TIP3   OH213752   4.059   1.498   3.950
 4604TIP3    H113753   4.109   1.482   4.030
 4604TIP3    H213754   4.111   1.562   3.901
 4605TIP3   OH213755   7.139   1.087   5.645
 4605TIP3    H113756   7.210   1.027   5.667
 4605TIP3    H213757   7.076   1.076   5.716
 4606TIP3   OH213758   5.894   5.398   0.661
 4606TIP3    H113759   5.835   5.471   0.678
 4606TIP3    H213760   5.873   5.333   0.729
 4607TIP3   OH213761   0.212   4.914   4.369
 4607TIP3    H113762   0.191   4.869   4.452
 4607TIP3    H213763   0.294   4.873   4.341
 4608TIP3   OH213764   2.679   3.834   2.617
 4608TIP3    H113765   2.713   3.874   2.537
 4608TIP3    H213766   2.750   3.778   2.647
 4609TIP3   OH213767   0.479   3.045   5.990
 4609TIP3    H113768   0.563   3.006   5.967
 4609TIP3    H213769   0.425   3.035   5.911
 4610TIP3   OH213770   7.100   1.793   1.066
 4610TIP3    H113771   7.138   1.865   1.117
 4610TIP3    H213772   7.033   1.756   1.123
 4611TIP3   OH213773   3.251   2.124   0.243
 4611TIP3    H113774   3.237   2.048   0.187
 4611TIP3    H213775   3.162   2.152   0.268
 4612TIP3   OH213776   3.245   2.777   0.366
 4612TIP3    H113777   3.249   2.801   0.273
 4612TIP3    H213778   3.334   2.792   0.398
 4613TIP3   OH213779   5.280   5.127   0.229
 4613TIP3    H113780   5.372   5.109   0.210
 4613TIP3    H213781   5.266   5.093   0.317
 4614TIP3   OH213782   6.253   1.435   0.883
 4614TIP3    H113783   6.287   1.402   0.799
 4614TIP3    H213784   6.201   1.511   0.859
 4615TIP3   OH213785   4.674   4.197   1.005
 4615TIP3    H113786   4.680   4.166   1.095
 4615TIP3    H213787   4.641   4.123   0.955
 4616TIP3   OH213788   3.361   6.871   4.078
 4616TIP3    H113789   3.278   6.853   4.123
 4616TIP3    H213790   3.376   6.965   4.092
 4617TIP3   OH213791   5.543   3.016   5.990
 4617TIP3    H113792   5.522   3.001   6.082
 4617TIP3    H213793   5.637   3.034   5.990
 4618TIP3   OH213794   8.027   2.913   3.643
 4618TIP3    H113795   8.035   2.853   3.569
 4618TIP3    H213796   7.986   2.991   3.607
 4619TIP3   OH213797   4.711   2.143   6.809
 4619TIP3    H113798   4.733   2.077   6.744
 4619TIP3    H213799   4.675   2.216   6.759
 4620TIP3   OH213800   8.053   2.329   3.193
 4620TIP3    H113801   7.978   2.335   3.254
 4620TIP3    H213802   8.026   2.379   3.117
 4621TIP3   OH213803   3.226   3.188   6.767
 4621TIP3    H113804   3.226   3.266   6.823
 4621TIP3    H213805   3.136   3.181   6.736
 4622TIP3   OH213806   6.072   0.209   3.675
 4622TIP3    H113807   6.122   0.135   3.708
 4622TIP3    H213808   6.047   0.257   3.754
 4623TIP3   OH213809   2.612   4.725   3.433
 4623TIP3    H113810   2.564   4.744   3.352
 4623TIP3    H213811   2.616   4.630   3.437
 4624TIP3   OH213812   4.091   7.477   5.350
 4624TIP3    H113813   4.096   7.515   5.438
 4624TIP3    H213814   4.083   7.383   5.365
 4625TIP3   OH213815   3.465   0.841   0.130
 4625TIP3    H113816   3.376   0.840   0.163
 4625TIP3    H213817   3.456   0.834   0.035
 4626TIP3   OH213818   5.730   2.220   3.743
 4626TIP3    H113819   5.796   2.153   3.758
 4626TIP3    H213820   5.776   2.303   3.753
 4627TIP3   OH213821   3.116   1.860   4.498
 4627TIP3    H113822   3.187   1.820   4.549
 4627TIP3    H213823   3.120   1.953   4.521
 4628TIP3   OH213824   2.919   1.364   4.043
 4628TIP3    H113825   2.977   1.428   4.084
 4628TIP3    H213826   2.936   1.282   4.089
 4629TIP3   OH213827   1.969   2.988   4.565
 4629TIP3    H113828   2.027   2.935   4.619
 4629TIP3    H213829   1.995   2.970   4.475
 4630TIP3   OH213830   5.107   3.414   4.372
 4630TIP3    H113831   5.111   3.391   4.279
 4630TIP3    H213832   5.016   3.399   4.397
 4631TIP3   OH213833   4.437   0.252   6.407
 4631TIP3    H113834   4.462   0.174   6.358
 4631TIP3    H213835   4.474   0.325   6.357
 4632TIP3   OH213836   6.556   2.714   5.517
 4632TIP3    H113837   6.550   2.809   5.516
 4632TIP3    H213838   6.621   2.693   5.449
 4633TIP3   OH213839   2.581   6.124   3.095
 4633TIP3    H113840   2.651   6.085   3.147
 4633TIP3    H213841   2.545   6.192   3.151
 4634TIP3   OH213842   6.129   3.814   0.211
 4634TIP3    H113843   6.094   3.800   0.299
 4634TIP3    H213844   6.087   3.894   0.181
 4635TIP3   OH213845   0.614   3.962   5.349
 4635TIP3    H113846   0.708   3.960   5.332
 4635TIP3    H213847   0.587   3.871   5.345
 4636TIP3   OH213848   5.324   5.110   0.863
 4636TIP3    H113849   5.338   5.179   0.799
 4636TIP3    H213850   5.230   5.115   0.884
 4637TIP3   OH213851   5.460   6.877   5.396
 4637TIP3    H113852   5.448   6.967   5.367
 4637TIP3    H213853   5.446   6.824   5.318
 4638TIP3   OH213854   7.926   1.727   4.881
 4638TIP3    H113855   7.929   1.781   4.959
 4638TIP3    H213856   8.014   1.689   4.875
 4639TIP3   OH213857   5.726   5.961   3.402
 4639TIP3    H113858   5.667   6.036   3.392
 4639TIP3    H213859   5.679   5.902   3.461
 4640TIP3   OH213860   0.720   7.272   4.045
 4640TIP3    H113861   0.762   7.318   3.973
 4640TIP3    H213862   0.680   7.194   4.005
 4641TIP3   OH213863   7.740   6.977   6.338
 4641TIP3    H113864   7.796   6.908   6.375
 4641TIP3    H213865   7.779   6.996   6.253
 4642TIP3   OH213866   4.165   6.958   5.032
 4642TIP3    H113867   4.090   6.910   5.067
 4642TIP3    H213868   4.240   6.927   5.083
 4643TIP3   OH213869   6.861   3.870   4.190
 4643TIP3    H113870   6.885   3.898   4.278
 4643TIP3    H213871   6.776   3.826   4.201
 4644TIP3   OH213872   6.001   1.706   6.467
 4644TIP3    H113873   6.061   1.728   6.396
 4644TIP3    H213874   6.044   1.739   6.546
 4645TIP3   OH213875   6.864   6.483   0.259
 4645TIP3    H113876   6.775   6.516   0.257
 4645TIP3    H213877   6.859   6.396   0.219
 4646TIP3   OH213878   6.716   6.012   3.631
 4646TIP3    H113879   6.731   6.105   3.614
 4646TIP3    H213880   6.641   5.989   3.576
 4647TIP3   OH213881   4.019   5.121   0.793
 4647TIP3    H113882   4.106   5.133   0.830
 4647TIP3    H213883   4.034   5.094   0.702
 4648TIP3   OH213884   1.970   1.263   3.369
 4648TIP3    H113885   1.932   1.351   3.378
 4648TIP3    H213886   2.061   1.274   3.396
 4649TIP3   OH213887   5.190   0.967   3.783
 4649TIP3    H113888   5.262   0.951   3.723
 4649TIP3    H213889   5.115   0.986   3.726
 4650TIP3   OH213890   5.444   6.860   3.841
 4650TIP3    H113891   5.537   6.858   3.816
 4650TIP3    H213892   5.442   6.916   3.918
 4651TIP3   OH213893   5.327   6.315   5.794
 4651TIP3    H113894   5.328   6.340   5.886
 4651TIP3    H213895   5.293   6.392   5.749
 4652TIP3   OH213896   1.240   0.951   5.372
 4652TIP3    H113897   1.243   0.977   5.280
 4652TIP3    H213898   1.305   1.006   5.415
 4653TIP3   OH213899   0.161   2.370   6.304
 4653TIP3    H113900   0.212   2.444   6.271
 4653TIP3    H213901   0.147   2.315   6.227
 4654TIP3   OH213902   4.259   4.323   1.971
 4654TIP3    H113903   4.343   4.278   1.955
 4654TIP3    H213904   4.284   4.403   2.018
 4655TIP3   OH213905   5.076   5.855   0.289
 4655TIP3    H113906   5.110   5.766   0.301
 4655TIP3    H213907   5.117   5.906   0.358
 4656TIP3   OH213908   7.583   7.066   5.915
 4656TIP3    H113909   7.657   7.006   5.926
 4656TIP3    H213910   7.561   7.061   5.822
 4657TIP3   OH213911   5.846   6.557   1.710
 4657TIP3    H113912   5.787   6.618   1.666
 4657TIP3    H213913   5.888   6.509   1.639
 4658TIP3   OH213914   0.767   3.157   6.213
 4658TIP3    H113915   0.723   3.240   6.195
 4658TIP3    H213916   0.703   3.106   6.262
 4659TIP3   OH213917   2.604   3.307   2.943
 4659TIP3    H113918   2.640   3.293   2.855
 4659TIP3    H213919   2.598   3.220   2.981
 4660TIP3   OH213920   2.145   3.772   0.151
 4660TIP3    H113921   2.058   3.747   0.180
 4660TIP3    H213922   2.147   3.752   0.058
 4661TIP3   OH213923   0.264   3.768   5.878
 4661TIP3    H113924   0.300   3.723   5.954
 4661TIP3    H213925   0.336   3.768   5.815
 4662TIP3   OH213926   5.112   0.571   4.060
 4662TIP3    H113927   5.050   0.502   4.084
 4662TIP3    H213928   5.076   0.608   3.979
 4663TIP3   OH213929   3.648   0.107   0.666
 4663TIP3    H113930   3.691   0.031   0.627
 4663TIP3    H213931   3.560   0.106   0.631
 4664TIP3   OH213932   4.719   1.039   0.102
 4664TIP3    H113933   4.698   1.103   0.033
 4664TIP3    H213934   4.686   1.079   0.183
 4665TIP3   OH213935   4.636   3.699   5.498
 4665TIP3    H113936   4.585   3.702   5.579
 4665TIP3    H213937   4.640   3.790   5.469
 4666TIP3   OH213938   0.437   4.321   1.287
 4666TIP3    H113939   0.437   4.280   1.373
 4666TIP3    H213940   0.463   4.251   1.227
 4667TIP3   OH213941   3.629   6.756   2.128
 4667TIP3    H113942   3.561   6.698   2.094
 4667TIP3    H213943   3.706   6.701   2.137
 4668TIP3   OH213944   7.138   2.781   3.957
 4668TIP3    H113945   7.159   2.739   3.873
 4668TIP3    H213946   7.192   2.860   3.958
 4669TIP3   OH213947   3.427   1.673   6.485
 4669TIP3    H113948   3.393   1.691   6.572
 4669TIP3    H213949   3.508   1.722   6.479
 4670TIP3   OH213950   1.141   5.764   0.874
 4670TIP3    H113951   1.191   5.750   0.794
 4670TIP3    H213952   1.050   5.743   0.850
 4671TIP3   OH213953   0.604   4.821   0.603
 4671TIP3    H113954   0.560   4.860   0.527
 4671TIP3    H213955   0.671   4.885   0.627
 4672TIP3   OH213956   5.954   6.631   2.199
 4672TIP3    H113957   5.973   6.603   2.109
 4672TIP3    H213958   5.889   6.568   2.230
 4673TIP3   OH213959   1.624   2.237   4.127
 4673TIP3    H113960   1.594   2.191   4.205
 4673TIP3    H213961   1.586   2.325   4.134
 4674TIP3   OH213962   4.981   6.720   0.655
 4674TIP3    H113963   4.953   6.652   0.717
 4674TIP3    H213964   4.912   6.786   0.660
 4675TIP3   OH213965   7.558   0.306   1.249
 4675TIP3    H113966   7.568   0.215   1.276
 4675TIP3    H213967   7.475   0.309   1.203
 4676TIP3   OH213968   3.197   6.295   4.052
 4676TIP3    H113969   3.131   6.349   4.009
 4676TIP3    H213970   3.156   6.271   4.136
 4677TIP3   OH213971   0.836   1.204   1.326
 4677TIP3    H113972   0.915   1.252   1.351
 4677TIP3    H213973   0.764   1.257   1.362
 4678TIP3   OH213974   0.640   3.059   0.776
 4678TIP3    H113975   0.580   2.989   0.805
 4678TIP3    H213976   0.585   3.118   0.725
 4679TIP3   OH213977   0.664   4.988   4.688
 4679TIP3    H113978   0.591   4.960   4.632
 4679TIP3    H213979   0.680   4.913   4.746
 4680TIP3   OH213980   5.171   0.567   4.543
 4680TIP3    H113981   5.099   0.530   4.492
 4680TIP3    H213982   5.191   0.650   4.500
 4681TIP3   OH213983   1.255   6.611   5.266
 4681TIP3    H113984   1.257   6.621   5.362
 4681TIP3    H213985   1.229   6.697   5.234
 4682TIP3   OH213986   8.232   0.037   3.679
 4682TIP3    H113987   8.293   0.054   3.750
 4682TIP3    H213988   8.189  -0.045   3.702
 4683TIP3   OH213989   6.561   3.441   5.305
 4683TIP3    H113990   6.555   3.529   5.266
 4683TIP3    H213991   6.572   3.456   5.398
 4684TIP3   OH213992   6.607   1.161   2.344
 4684TIP3    H113993   6.695   1.126   2.332
 4684TIP3    H213994   6.553   1.083   2.362
 4685TIP3   OH213995   1.272   2.375   6.492
 4685TIP3    H113996   1.307   2.320   6.562
 4685TIP3    H213997   1.320   2.457   6.498
 4686TIP3   OH213998   6.938   4.314   0.733
 4686TIP3    H113999   7.010   4.275   0.683
 4686TIP3    H214000   6.892   4.369   0.669
 4687TIP3   OH214001   1.757   4.582   1.623
 4687TIP3    H114002   1.775   4.614   1.534
 4687TIP3    H214003   1.675   4.625   1.647
 4688TIP3   OH214004   5.676   0.129   4.848
 4688TIP3    H114005   5.759   0.176   4.843
 4688TIP3    H214006   5.631   0.167   4.923
 4689TIP3   OH214007   0.937   0.150   2.389
 4689TIP3    H114008   0.856   0.160   2.341
 4689TIP3    H214009   1.001   0.121   2.324
 4690TIP3   OH214010   0.562   0.376   3.823
 4690TIP3    H114011   0.607   0.454   3.855
 4690TIP3    H214012   0.506   0.408   3.752
 4691TIP3   OH214013   0.280   3.184   3.485
 4691TIP3    H114014   0.289   3.245   3.411
 4691TIP3    H214015   0.220   3.227   3.545
 4692TIP3   OH214016   1.914   6.733   5.051
 4692TIP3    H114017   1.953   6.795   5.113
 4692TIP3    H214018   1.987   6.700   5.000
 4693TIP3   OH214019   6.686   0.595   6.103
 4693TIP3    H114020   6.733   0.665   6.148
 4693TIP3    H214021   6.743   0.518   6.114
 4694TIP3   OH214022   1.811   3.816   2.975
 4694TIP3    H114023   1.852   3.732   2.952
 4694TIP3    H214024   1.879   3.863   3.024
 4695TIP3   OH214025   8.338   1.326   5.670
 4695TIP3    H114026   8.387   1.406   5.648
 4695TIP3    H214027   8.404   1.268   5.708
 4696TIP3   OH214028   1.211   5.809   6.009
 4696TIP3    H114029   1.280   5.862   6.048
 4696TIP3    H214030   1.253   5.764   5.935
 4697TIP3   OH214031   6.155   1.426   4.918
 4697TIP3    H114032   6.197   1.397   4.999
 4697TIP3    H214033   6.071   1.462   4.946
 4698TIP3   OH214034   0.421   6.084   3.703
 4698TIP3    H114035   0.442   6.000   3.743
 4698TIP3    H214036   0.337   6.109   3.742
 4699TIP3   OH214037   8.333   4.690   0.636
 4699TIP3    H114038   8.314   4.740   0.557
 4699TIP3    H214039   8.426   4.705   0.653
 4700TIP3   OH214040   6.851   5.853   6.113
 4700TIP3    H114041   6.864   5.943   6.141
 4700TIP3    H214042   6.797   5.861   6.034
 4701TIP3   OH214043   5.268   5.427   5.533
 4701TIP3    H114044   5.279   5.332   5.546
 4701TIP3    H214045   5.222   5.434   5.449
 4702TIP3   OH214046   2.757   0.405   2.877
 4702TIP3    H114047   2.771   0.469   2.807
 4702TIP3    H214048   2.837   0.353   2.879
 4703TIP3   OH214049   5.614   2.341   5.457
 4703TIP3    H114050   5.644   2.298   5.537
 4703TIP3    H214051   5.610   2.272   5.392
 4704TIP3   OH214052   2.763   3.023   4.532
 4704TIP3    H114053   2.736   2.942   4.575
 4704TIP3    H214054   2.859   3.020   4.533
 4705TIP3   OH214055   7.038   5.895   0.828
 4705TIP3    H114056   7.012   5.968   0.772
 4705TIP3    H214057   7.008   5.817   0.781
 4706TIP3   OH214058   0.488   1.617   4.574
 4706TIP3    H114059   0.398   1.632   4.543
 4706TIP3    H214060   0.542   1.627   4.495
 4707TIP3   OH214061   4.816   6.937   0.320
 4707TIP3    H114062   4.776   7.002   0.263
 4707TIP3    H214063   4.910   6.949   0.309
 4708TIP3   OH214064   7.014   0.641   2.463
 4708TIP3    H114065   7.013   0.668   2.555
 4708TIP3    H214066   6.973   0.554   2.463
 4709TIP3   OH214067   0.283   7.858   2.327
 4709TIP3    H114068   0.376   7.861   2.307
 4709TIP3    H214069   0.277   7.809   2.409
 4710TIP3   OH214070   2.576   5.814   6.396
 4710TIP3    H114071   2.590   5.902   6.429
 4710TIP3    H214072   2.613   5.814   6.308
 4711TIP3   OH214073   3.148   7.355   0.582
 4711TIP3    H114074   3.228   7.404   0.597
 4711TIP3    H214075   3.121   7.325   0.668
 4712TIP3   OH214076   6.148   2.130   4.873
 4712TIP3    H114077   6.232   2.140   4.828
 4712TIP3    H214078   6.169   2.087   4.956
 4713TIP3   OH214079   4.433   3.156   1.610
 4713TIP3    H114080   4.380   3.165   1.689
 4713TIP3    H214081   4.402   3.074   1.570
 4714TIP3   OH214082   4.763   4.575   5.461
 4714TIP3    H114083   4.749   4.506   5.396
 4714TIP3    H214084   4.721   4.652   5.424
 4715TIP3   OH214085   5.563   1.210   4.336
 4715TIP3    H114086   5.627   1.242   4.273
 4715TIP3    H214087   5.513   1.144   4.288
 4716TIP3   OH214088   4.795   5.963   5.265
 4716TIP3    H114089   4.876   5.976   5.314
 4716TIP3    H214090   4.824   5.953   5.174
 4717TIP3   OH214091   3.304   5.317   6.113
 4717TIP3    H114092   3.339   5.288   6.029
 4717TIP3    H214093   3.241   5.250   6.138
 4718TIP3   OH214094   2.190   4.227   5.051
 4718TIP3    H114095   2.261   4.192   4.997
 4718TIP3    H214096   2.150   4.150   5.091
 4719TIP3   OH214097   3.147   5.230   6.434
 4719TIP3    H114098   3.106   5.190   6.511
 4719TIP3    H214099   3.118   5.321   6.435
 4720TIP3   OH214100   2.123   4.346   0.606
 4720TIP3    H114101   2.206   4.371   0.647
 4720TIP3    H214102   2.131   4.252   0.591
 4721TIP3   OH214103   3.908   0.316   4.479
 4721TIP3    H114104   3.849   0.317   4.403
 4721TIP3    H214105   3.977   0.255   4.455
 4722TIP3   OH214106   3.717   4.744   1.614
 4722TIP3    H114107   3.736   4.817   1.673
 4722TIP3    H214108   3.628   4.717   1.637
 4723TIP3   OH214109   8.023   3.813  -0.001
 4723TIP3    H114110   8.031   3.899   0.040
 4723TIP3    H214111   7.968   3.763   0.059
 4724TIP3   OH214112   7.162   7.858   4.940
 4724TIP3    H114113   7.161   7.896   5.028
 4724TIP3    H214114   7.072   7.867   4.910
 4725TIP3   OH214115   6.750   2.277   5.313
 4725TIP3    H114116   6.712   2.257   5.227
 4725TIP3    H214117   6.701   2.224   5.375
 4726TIP3   OH214118   4.231   5.534   0.586
 4726TIP3    H114119   4.313   5.572   0.617
 4726TIP3    H214120   4.190   5.604   0.535
 4727TIP3   OH214121   5.756   3.410   6.303
 4727TIP3    H114122   5.746   3.324   6.262
 4727TIP3    H214123   5.848   3.433   6.289
 4728TIP3   OH214124   4.652   7.889   1.725
 4728TIP3    H114125   4.668   7.795   1.720
 4728TIP3    H214126   4.637   7.907   1.818
 4729TIP3   OH214127   7.929   1.356   0.334
 4729TIP3    H114128   7.844   1.312   0.346
 4729TIP3    H214129   7.984   1.290   0.291
 4730TIP3   OH214130   3.592   6.201   2.819
 4730TIP3    H114131   3.518   6.252   2.785
 4730TIP3    H214132   3.586   6.117   2.774
 4731TIP3   OH214133   0.346   7.224   3.834
 4731TIP3    H114134   0.268   7.277   3.816
 4731TIP3    H214135   0.311   7.143   3.871
 4732TIP3   OH214136   2.660   0.847   6.000
 4732TIP3    H114137   2.675   0.754   6.020
 4732TIP3    H214138   2.565   0.857   6.001
 4733TIP3   OH214139   7.393   7.209   4.192
 4733TIP3    H114140   7.331   7.243   4.256
 4733TIP3    H214141   7.478   7.210   4.237
 4734TIP3   OH214142   2.985   3.376   2.188
 4734TIP3    H114143   2.938   3.336   2.115
 4734TIP3    H214144   2.930   3.357   2.264
 4735TIP3   OH214145   1.750   4.916   0.485
 4735TIP3    H114146   1.701   4.871   0.417
 4735TIP3    H214147   1.690   4.983   0.518
 4736TIP3   OH214148   4.074   2.515   1.047
 4736TIP3    H114149   4.021   2.454   0.995
 4736TIP3    H214150   4.157   2.519   1.000
 4737TIP3   OH214151   5.957   5.073   6.385
 4737TIP3    H114152   6.002   5.071   6.470
 4737TIP3    H214153   6.009   5.016   6.329
 4738TIP3   OH214154   4.393   3.808   3.688
 4738TIP3    H114155   4.344   3.812   3.770
 4738TIP3    H214156   4.453   3.734   3.699
 4739TIP3   OH214157   0.764   5.314   2.406
 4739TIP3    H114158   0.709   5.390   2.426
 4739TIP3    H214159   0.854   5.345   2.418
 4740TIP3   OH214160   0.849   2.887   1.266
 4740TIP3    H114161   0.934   2.923   1.242
 4740TIP3    H214162   0.786   2.956   1.244
 4741TIP3   OH214163   0.978   5.575   4.520
 4741TIP3    H114164   1.053   5.569   4.461
 4741TIP3    H214165   1.003   5.641   4.585
 4742TIP3   OH214166   3.575   6.938   4.702
 4742TIP3    H114167   3.659   6.973   4.671
 4742TIP3    H214168   3.509   6.997   4.665
 4743TIP3   OH214169   1.728   1.832   5.536
 4743TIP3    H114170   1.680   1.753   5.510
 4743TIP3    H214171   1.787   1.849   5.463
 4744TIP3   OH214172   1.306   2.294   1.661
 4744TIP3    H114173   1.241   2.325   1.725
 4744TIP3    H214174   1.260   2.300   1.577
 4745TIP3   OH214175   5.283   6.484   4.983
 4745TIP3    H114176   5.278   6.502   4.889
 4745TIP3    H214177   5.342   6.409   4.990
 4746TIP3   OH214178   6.360   6.588   1.925
 4746TIP3    H114179   6.422   6.627   1.863
 4746TIP3    H214180   6.278   6.634   1.909
 4747TIP3   OH214181   0.741   1.130   0.746
 4747TIP3    H114182   0.687   1.051   0.754
 4747TIP3    H214183   0.831   1.096   0.739
 4748TIP3   OH214184   3.765   6.682   0.440
 4748TIP3    H114185   3.852   6.701   0.404
 4748TIP3    H214186   3.783   6.617   0.509
 4749TIP3   OH214187   6.326   2.265   5.536
 4749TIP3    H114188   6.419   2.282   5.550
 4749TIP3    H214189   6.322   2.221   5.451
 4750TIP3   OH214190   6.827   3.540   1.694
 4750TIP3    H114191   6.835   3.465   1.636
 4750TIP3    H214192   6.901   3.597   1.672
 4751TIP3   OH214193   0.434   4.301   6.570
 4751TIP3    H114194   0.347   4.266   6.549
 4751TIP3    H214195   0.481   4.298   6.486
 4752TIP3   OH214196   4.509   3.589   5.744
 4752TIP3    H114197   4.575   3.548   5.800
 4752TIP3    H214198   4.430   3.594   5.799
 4753TIP3   OH214199   6.489   5.805   1.555
 4753TIP3    H114200   6.559   5.867   1.537
 4753TIP3    H214201   6.413   5.838   1.507
 4754TIP3   OH214202   5.516   3.984   0.527
 4754TIP3    H114203   5.448   3.920   0.508
 4754TIP3    H214204   5.514   3.994   0.622
 4755TIP3   OH214205   0.736   2.865   0.038
 4755TIP3    H114206   0.796   2.856   0.112
 4755TIP3    H214207   0.710   2.957   0.039
 4756TIP3   OH214208   0.409   0.326   6.030
 4756TIP3    H114209   0.459   0.386   5.973
 4756TIP3    H214210   0.339   0.294   5.974
 4757TIP3   OH214211   4.736   2.610   5.400
 4757TIP3    H114212   4.761   2.663   5.325
 4757TIP3    H214213   4.652   2.571   5.375
 4758TIP3   OH214214   7.630   5.534   5.062
 4758TIP3    H114215   7.578   5.545   4.983
 4758TIP3    H214216   7.670   5.620   5.078
 4759TIP3   OH214217   6.750   5.307   5.532
 4759TIP3    H114218   6.824   5.357   5.564
 4759TIP3    H214219   6.770   5.290   5.440
 4760TIP3   OH214220   1.903   7.897   0.319
 4760TIP3    H114221   1.882   7.903   0.412
 4760TIP3    H214222   1.819   7.909   0.275
 4761TIP3   OH214223   0.798   6.416   0.850
 4761TIP3    H114224   0.798   6.350   0.780
 4761TIP3    H214225   0.853   6.377   0.919
 4762TIP3   OH214226   0.718   6.606   3.102
 4762TIP3    H114227   0.691   6.525   3.145
 4762TIP3    H214228   0.753   6.579   3.018
 4763TIP3   OH214229   7.314   7.267   3.880
 4763TIP3    H114230   7.302   7.174   3.899
 4763TIP3    H214231   7.263   7.313   3.946
 4764TIP3   OH214232   6.650   6.207   2.582
 4764TIP3    H114233   6.593   6.283   2.587
 4764TIP3    H214234   6.675   6.202   2.489
 4765TIP3   OH214235   5.165   2.460   4.364
 4765TIP3    H114236   5.173   2.412   4.281
 4765TIP3    H214237   5.071   2.457   4.384
 4766TIP3   OH214238   5.462   6.658   1.042
 4766TIP3    H114239   5.405   6.671   0.966
 4766TIP3    H214240   5.541   6.618   1.006
 4767TIP3   OH214241   3.208   4.295   1.200
 4767TIP3    H114242   3.295   4.287   1.163
 4767TIP3    H214243   3.154   4.329   1.129
 4768TIP3   OH214244   7.024   0.712   0.748
 4768TIP3    H114245   7.036   0.784   0.686
 4768TIP3    H214246   6.929   0.707   0.761
 4769TIP3   OH214247   4.069   4.274   5.632
 4769TIP3    H114248   4.110   4.356   5.660
 4769TIP3    H214249   4.129   4.206   5.662
 4770TIP3   OH214250   3.398   4.190   3.730
 4770TIP3    H114251   3.345   4.177   3.808
 4770TIP3    H214252   3.416   4.101   3.699
 4771TIP3   OH214253   2.907   4.713   1.296
 4771TIP3    H114254   2.994   4.696   1.261
 4771TIP3    H214255   2.916   4.796   1.343
 4772TIP3   OH214256   2.974   1.971   5.414
 4772TIP3    H114257   2.911   2.043   5.417
 4772TIP3    H214258   2.921   1.892   5.423
 4773TIP3   OH214259   7.580   3.942   0.089
 4773TIP3    H114260   7.622   3.998   0.023
 4773TIP3    H214261   7.503   3.907   0.045
 4774TIP3   OH214262   8.013   6.416   3.397
 4774TIP3    H114263   8.070   6.450   3.327
 4774TIP3    H214264   7.993   6.326   3.370
 4775TIP3   OH214265   0.579   5.744   0.850
 4775TIP3    H114266   0.667   5.760   0.884
 4775TIP3    H214267   0.552   5.828   0.813
 4776TIP3   OH214268   5.541   1.256   2.090
 4776TIP3    H114269   5.523   1.217   2.175
 4776TIP3    H214270   5.568   1.346   2.110
 4777TIP3   OH214271   8.077   1.535   6.650
 4777TIP3    H114272   8.107   1.463   6.593
 4777TIP3    H214273   8.041   1.600   6.589
 4778TIP3   OH214274   1.533   2.725   3.366
 4778TIP3    H114275   1.438   2.715   3.364
 4778TIP3    H214276   1.564   2.650   3.417
 4779TIP3   OH214277   5.297   6.171   0.191
 4779TIP3    H114278   5.250   6.216   0.262
 4779TIP3    H214279   5.229   6.140   0.132
 4780TIP3   OH214280   7.071   3.142   3.069
 4780TIP3    H114281   7.034   3.201   3.136
 4780TIP3    H214282   6.995   3.095   3.035
 4781TIP3   OH214283   5.188   1.683   4.421
 4781TIP3    H114284   5.228   1.769   4.433
 4781TIP3    H214285   5.114   1.682   4.482
 4782TIP3   OH214286   1.197   3.150   2.727
 4782TIP3    H114287   1.292   3.161   2.722
 4782TIP3    H214288   1.163   3.198   2.651
 4783TIP3   OH214289   7.119   5.590   2.240
 4783TIP3    H114290   7.060   5.527   2.199
 4783TIP3    H214291   7.135   5.655   2.171
 4784TIP3   OH214292   2.783   1.855   2.650
 4784TIP3    H114293   2.726   1.832   2.724
 4784TIP3    H214294   2.828   1.934   2.678
 4785TIP3   OH214295   6.196   0.687   4.130
 4785TIP3    H114296   6.237   0.772   4.116
 4785TIP3    H214297   6.184   0.681   4.224
 4786TIP3   OH214298   4.512   0.129   1.029
 4786TIP3    H114299   4.586   0.069   1.040
 4786TIP3    H214300   4.550   0.205   0.984
 4787TIP3   OH214301   0.525   0.829   6.298
 4787TIP3    H114302   0.491   0.918   6.291
 4787TIP3    H214303   0.558   0.808   6.210
 4788TIP3   OH214304   2.561   5.958   5.395
 4788TIP3    H114305   2.554   6.036   5.449
 4788TIP3    H214306   2.565   5.990   5.305
 4789TIP3   OH214307   6.405   0.848   1.038
 4789TIP3    H114308   6.437   0.885   0.955
 4789TIP3    H214309   6.351   0.918   1.076
 4790TIP3   OH214310   3.618   3.665   1.483
 4790TIP3    H114311   3.644   3.735   1.543
 4790TIP3    H214312   3.523   3.672   1.477
 4791TIP3   OH214313   7.156   6.419   1.178
 4791TIP3    H114314   7.135   6.326   1.181
 4791TIP3    H214315   7.149   6.449   1.268
 4792TIP3   OH214316   4.855   1.997   0.829
 4792TIP3    H114317   4.884   2.022   0.916
 4792TIP3    H214318   4.767   1.962   0.842
 4793TIP3   OH214319   8.326   4.594   0.214
 4793TIP3    H114320   8.373   4.677   0.204
 4793TIP3    H214321   8.392   4.533   0.248
 4794TIP3   OH214322   6.182   5.476   6.220
 4794TIP3    H114323   6.243   5.414   6.182
 4794TIP3    H214324   6.237   5.545   6.258
 4795TIP3   OH214325   1.428   3.234   0.674
 4795TIP3    H114326   1.364   3.173   0.710
 4795TIP3    H214327   1.501   3.232   0.735
 4796TIP3   OH214328   2.794   7.493   3.529
 4796TIP3    H114329   2.767   7.406   3.499
 4796TIP3    H214330   2.774   7.551   3.455
 4797TIP3   OH214331   2.257   7.632   4.173
 4797TIP3    H114332   2.216   7.559   4.128
 4797TIP3    H214333   2.192   7.703   4.168
 4798TIP3   OH214334   5.334   5.179   2.563
 4798TIP3    H114335   5.420   5.159   2.600
 4798TIP3    H214336   5.286   5.097   2.569
 4799TIP3   OH214337   3.882   5.119   0.239
 4799TIP3    H114338   3.870   5.026   0.258
 4799TIP3    H214339   3.807   5.143   0.185
 4800TIP3   OH214340   1.950   7.522   3.043
 4800TIP3    H114341   1.878   7.503   3.103
 4800TIP3    H214342   2.022   7.466   3.073
 4801TIP3   OH214343   2.669   5.767   3.938
 4801TIP3    H114344   2.670   5.672   3.941
 4801TIP3    H214345   2.758   5.791   3.911
 4802TIP3   OH214346   2.172   6.202   2.515
 4802TIP3    H114347   2.161   6.211   2.610
 4802TIP3    H214348   2.100   6.145   2.488
 4803TIP3   OH214349   4.335   5.682   0.338
 4803TIP3    H114350   4.389   5.700   0.260
 4803TIP3    H214351   4.246   5.674   0.303
 4804TIP3   OH214352   0.666   7.080   0.853
 4804TIP3    H114353   0.577   7.089   0.820
 4804TIP3    H214354   0.664   7.122   0.939
 4805TIP3   OH214355   2.603   5.530   6.783
 4805TIP3    H114356   2.650   5.597   6.734
 4805TIP3    H214357   2.631   5.448   6.743
 4806TIP3   OH214358   0.815   1.597   2.145
 4806TIP3    H114359   0.895   1.648   2.140
 4806TIP3    H214360   0.777   1.618   2.230
 4807TIP3   OH214361   6.697   2.607   4.826
 4807TIP3    H114362   6.730   2.567   4.745
 4807TIP3    H214363   6.605   2.579   4.831
 4808TIP3   OH214364   6.473   1.201   4.025
 4808TIP3    H114365   6.477   1.247   3.942
 4808TIP3    H214366   6.435   1.264   4.086
 4809TIP3   OH214367   5.338   7.193   3.726
 4809TIP3    H114368   5.418   7.168   3.773
 4809TIP3    H214369   5.348   7.151   3.640
 4810TIP3   OH214370   7.418   3.204   4.103
 4810TIP3    H114371   7.451   3.283   4.145
 4810TIP3    H214372   7.468   3.133   4.144
 4811TIP3   OH214373   7.002   3.138   5.461
 4811TIP3    H114374   7.055   3.210   5.495
 4811TIP3    H214375   6.933   3.181   5.411
 4812TIP3   OH214376   6.672   0.517   2.486
 4812TIP3    H114377   6.605   0.535   2.552
 4812TIP3    H214378   6.631   0.454   2.427
 4813TIP3   OH214379   1.628   2.609   3.950
 4813TIP3    H114380   1.627   2.576   4.039
 4813TIP3    H214381   1.668   2.539   3.898
 4814TIP3   OH214382   6.018   6.676   0.791
 4814TIP3    H114383   6.085   6.671   0.859
 4814TIP3    H214384   6.009   6.585   0.760
 4815TIP3   OH214385   7.101   5.807   4.860
 4815TIP3    H114386   7.053   5.742   4.911
 4815TIP3    H214387   7.181   5.823   4.910
 4816TIP3   OH214388   1.584   7.654   2.646
 4816TIP3    H114389   1.635   7.662   2.565
 4816TIP3    H214390   1.630   7.587   2.696
 4817TIP3   OH214391   1.145   1.180   3.774
 4817TIP3    H114392   1.053   1.173   3.747
 4817TIP3    H214393   1.187   1.227   3.702
 4818TIP3   OH214394   0.091   3.640   3.112
 4818TIP3    H114395   0.059   3.719   3.156
 4818TIP3    H214396   0.029   3.572   3.138
 4819TIP3   OH214397   1.195   0.642   2.257
 4819TIP3    H114398   1.163   0.732   2.260
 4819TIP3    H214399   1.117   0.589   2.241
 4820TIP3   OH214400   5.278   7.238   4.987
 4820TIP3    H114401   5.210   7.172   4.987
 4820TIP3    H214402   5.348   7.200   4.934
 4821TIP3   OH214403   3.428   3.052   4.161
 4821TIP3    H114404   3.369   3.118   4.198
 4821TIP3    H214405   3.515   3.089   4.173
 4822TIP3   OH214406   2.105   7.811   0.756
 4822TIP3    H114407   2.020   7.802   0.713
 4822TIP3    H214408   2.123   7.723   0.792
 4823TIP3   OH214409   8.356   6.346   3.277
 4823TIP3    H114410   8.276   6.370   3.230
 4823TIP3    H214411   8.370   6.254   3.254
 4824TIP3   OH214412   7.655   2.142   4.463
 4824TIP3    H114413   7.716   2.152   4.536
 4824TIP3    H214414   7.652   2.047   4.447
 4825TIP3   OH214415   4.239   4.815   0.858
 4825TIP3    H114416   4.323   4.836   0.818
 4825TIP3    H214417   4.193   4.764   0.791
 4826TIP3   OH214418   7.402   2.481   3.931
 4826TIP3    H114419   7.334   2.500   3.994
 4826TIP3    H214420   7.363   2.418   3.871
 4827TIP3   OH214421   5.515   0.502   1.315
 4827TIP3    H114422   5.488   0.592   1.334
 4827TIP3    H214423   5.605   0.509   1.284
 4828TIP3   OH214424   5.132   0.169   4.379
 4828TIP3    H114425   5.208   0.217   4.413
 4828TIP3    H214426   5.164   0.079   4.367
 4829TIP3   OH214427   8.225   3.499   1.081
 4829TIP3    H114428   8.165   3.436   1.121
 4829TIP3    H214429   8.220   3.577   1.136
 4830TIP3   OH214430   5.471   2.089   5.549
 4830TIP3    H114431   5.544   2.132   5.594
 4830TIP3    H214432   5.494   2.093   5.456
 4831TIP3   OH214433   0.112   2.049   4.724
 4831TIP3    H114434   0.094   2.052   4.630
 4831TIP3    H214435   0.029   2.071   4.765
 4832TIP3   OH214436   6.746   5.083   0.903
 4832TIP3    H114437   6.723   5.169   0.868
 4832TIP3    H214438   6.825   5.058   0.855
 4833TIP3   OH214439   1.110   4.479   6.570
 4833TIP3    H114440   1.106   4.405   6.630
 4833TIP3    H214441   1.107   4.556   6.627
 4834TIP3   OH214442   2.037   1.933   3.320
 4834TIP3    H114443   2.030   1.973   3.407
 4834TIP3    H214444   2.022   2.006   3.260
 4835TIP3   OH214445   3.028   3.526   5.724
 4835TIP3    H114446   3.095   3.487   5.780
 4835TIP3    H214447   2.951   3.533   5.781
 4836TIP3   OH214448   1.645   3.754   5.975
 4836TIP3    H114449   1.561   3.793   5.948
 4836TIP3    H214450   1.663   3.688   5.908
 4837TIP3   OH214451   4.850   6.021   4.999
 4837TIP3    H114452   4.906   6.077   4.946
 4837TIP3    H214453   4.761   6.054   4.983
 4838TIP3   OH214454   5.154   4.175   5.717
 4838TIP3    H114455   5.203   4.243   5.670
 4838TIP3    H214456   5.174   4.192   5.810
 4839TIP3   OH214457   1.914   3.151   0.987
 4839TIP3    H114458   1.934   3.104   1.068
 4839TIP3    H214459   1.860   3.089   0.937
 4840TIP3   OH214460   0.242   2.521   1.980
 4840TIP3    H114461   0.186   2.574   2.037
 4840TIP3    H214462   0.191   2.443   1.960
 4841TIP3   OH214463   0.101   7.754   3.434
 4841TIP3    H114464   0.035   7.778   3.368
 4841TIP3    H214465   0.134   7.669   3.404
 4842TIP3   OH214466   4.695   2.132   6.053
 4842TIP3    H114467   4.679   2.150   5.960
 4842TIP3    H214468   4.778   2.177   6.072
 4843TIP3   OH214469   0.452   3.179   5.495
 4843TIP3    H114470   0.458   3.275   5.490
 4843TIP3    H214471   0.398   3.154   5.420
 4844TIP3   OH214472   0.076   7.230   3.288
 4844TIP3    H114473   0.069   7.183   3.371
 4844TIP3    H214474   0.136   7.178   3.235
 4845TIP3   OH214475   3.394   5.080   3.522
 4845TIP3    H114476   3.457   5.068   3.593
 4845TIP3    H214477   3.311   5.096   3.565
 4846TIP3   OH214478   4.357   0.497   6.119
 4846TIP3    H114479   4.281   0.444   6.099
 4846TIP3    H214480   4.418   0.436   6.162
 4847TIP3   OH214481   7.094   2.016   5.762
 4847TIP3    H114482   7.087   2.022   5.858
 4847TIP3    H214483   7.104   1.922   5.745
 4848TIP3   OH214484   4.147   7.338   1.323
 4848TIP3    H114485   4.206   7.271   1.357
 4848TIP3    H214486   4.173   7.418   1.369
 4849TIP3   OH214487   7.310   5.148   6.143
 4849TIP3    H114488   7.332   5.139   6.050
 4849TIP3    H214489   7.310   5.243   6.158
 4850TIP3   OH214490   7.244   1.287   2.155
 4850TIP3    H114491   7.189   1.234   2.097
 4850TIP3    H214492   7.191   1.299   2.233
 4851TIP3   OH214493   1.763   6.398   0.812
 4851TIP3    H114494   1.733   6.352   0.890
 4851TIP3    H214495   1.694   6.461   0.792
 4852TIP3   OH214496   4.207   5.154   3.280
 4852TIP3    H114497   4.237   5.085   3.220
 4852TIP3    H214498   4.287   5.190   3.317
 4853TIP3   OH214499   7.703   0.496   4.297
 4853TIP3    H114500   7.696   0.506   4.202
 4853TIP3    H214501   7.614   0.474   4.326
 4854TIP3   OH214502   1.087   1.694   5.720
 4854TIP3    H114503   1.119   1.744   5.795
 4854TIP3    H214504   1.096   1.602   5.747
 4855TIP3   OH214505   6.602   2.932   3.363
 4855TIP3    H114506   6.585   2.976   3.279
 4855TIP3    H214507   6.681   2.974   3.396
 4856TIP3   OH214508   4.512   1.093   2.703
 4856TIP3    H114509   4.493   1.154   2.633
 4856TIP3    H214510   4.441   1.104   2.766
 4857TIP3   OH214511   4.495   0.549   1.580
 4857TIP3    H114512   4.474   0.584   1.666
 4857TIP3    H214513   4.560   0.481   1.597
 4858TIP3   OH214514   0.096   6.250   3.666
 4858TIP3    H114515   0.123   6.172   3.618
 4858TIP3    H214516   0.141   6.243   3.750
 4859TIP3   OH214517   4.633   2.768   5.980
 4859TIP3    H114518   4.561   2.800   5.926
 4859TIP3    H214519   4.658   2.843   6.034
 4860TIP3   OH214520   0.097   7.564   3.141
 4860TIP3    H114521   0.123   7.502   3.209
 4860TIP3    H214522   0.176   7.575   3.088
 4861TIP3   OH214523   3.981   0.771   0.447
 4861TIP3    H114524   3.896   0.773   0.492
 4861TIP3    H214525   3.958   0.773   0.354
 4862TIP3   OH214526   7.563   2.748   1.738
 4862TIP3    H114527   7.480   2.743   1.690
 4862TIP3    H214528   7.623   2.693   1.687
 4863TIP3   OH214529   1.933   5.448   3.652
 4863TIP3    H114530   1.931   5.542   3.672
 4863TIP3    H214531   1.946   5.406   3.737
 4864TIP3   OH214532   7.329   7.113   5.119
 4864TIP3    H114533   7.302   7.144   5.205
 4864TIP3    H214534   7.417   7.078   5.132
 4865TIP3   OH214535   0.894   1.984   4.419
 4865TIP3    H114536   0.853   1.910   4.374
 4865TIP3    H214537   0.837   2.001   4.494
 4866TIP3   OH214538   5.307   6.662   2.201
 4866TIP3    H114539   5.292   6.627   2.288
 4866TIP3    H214540   5.327   6.585   2.147
 4867TIP3   OH214541   0.458   5.796   1.467
 4867TIP3    H114542   0.534   5.855   1.465
 4867TIP3    H214543   0.416   5.814   1.552
 4868TIP3   OH214544   4.165   0.945   3.908
 4868TIP3    H114545   4.163   0.958   4.003
 4868TIP3    H214546   4.151   1.032   3.872
 4869TIP3   OH214547   3.598   3.373   5.209
 4869TIP3    H114548   3.567   3.352   5.121
 4869TIP3    H214549   3.548   3.315   5.267
 4870TIP3   OH214550   4.939   5.303   4.088
 4870TIP3    H114551   5.014   5.291   4.147
 4870TIP3    H214552   4.936   5.222   4.037
 4871TIP3   OH214553   2.324   4.207   1.743
 4871TIP3    H114554   2.361   4.162   1.668
 4871TIP3    H214555   2.249   4.153   1.769
 4872TIP3   OH214556   1.452   2.306   2.200
 4872TIP3    H114557   1.384   2.241   2.221
 4872TIP3    H214558   1.412   2.390   2.222
 4873TIP3   OH214559   0.443   5.451   6.804
 4873TIP3    H114560   0.515   5.467   6.743
 4873TIP3    H214561   0.394   5.533   6.806
 4874TIP3   OH214562   6.392   3.742   1.363
 4874TIP3    H114563   6.385   3.838   1.365
 4874TIP3    H214564   6.461   3.722   1.426
 4875TIP3   OH214565   3.905   0.511   4.699
 4875TIP3    H114566   3.999   0.525   4.698
 4875TIP3    H214567   3.891   0.434   4.644
 4876TIP3   OH214568   5.158   4.757   4.067
 4876TIP3    H114569   5.250   4.753   4.095
 4876TIP3    H214570   5.142   4.672   4.027
 4877TIP3   OH214571   1.881   4.379   2.647
 4877TIP3    H114572   1.930   4.449   2.689
 4877TIP3    H214573   1.943   4.341   2.585
 4878TIP3   OH214574   3.280   2.817   0.729
 4878TIP3    H114575   3.271   2.835   0.823
 4878TIP3    H214576   3.224   2.741   0.713
 4879TIP3   OH214577   7.647   3.801   0.839
 4879TIP3    H114578   7.704   3.737   0.881
 4879TIP3    H214579   7.654   3.879   0.894
 4880TIP3   OH214580   3.945   1.878   2.792
 4880TIP3    H114581   3.857   1.866   2.756
 4880TIP3    H214582   3.978   1.957   2.748
 4881TIP3   OH214583   4.892   2.296   2.297
 4881TIP3    H114584   4.984   2.322   2.298
 4881TIP3    H214585   4.869   2.287   2.390
 4882TIP3   OH214586   3.187   2.465   5.947
 4882TIP3    H114587   3.225   2.380   5.926
 4882TIP3    H214588   3.111   2.445   6.001
 4883TIP3   OH214589   4.685   3.410   5.507
 4883TIP3    H114590   4.627   3.340   5.537
 4883TIP3    H214591   4.632   3.490   5.515
 4884TIP3   OH214592   1.571   1.281   5.993
 4884TIP3    H114593   1.537   1.336   6.064
 4884TIP3    H214594   1.564   1.336   5.915
 4885TIP3   OH214595   6.338   0.765   6.711
 4885TIP3    H114596   6.312   0.673   6.712
 4885TIP3    H214597   6.429   0.764   6.741
 4886TIP3   OH214598   6.022   2.322   3.006
 4886TIP3    H114599   5.934   2.288   3.024
 4886TIP3    H214600   6.070   2.247   2.970
 4887TIP3   OH214601   3.144   5.840   3.985
 4887TIP3    H114602   3.184   5.911   4.034
 4887TIP3    H214603   3.212   5.812   3.923
 4888TIP3   OH214604   2.355   1.124   0.256
 4888TIP3    H114605   2.281   1.067   0.234
 4888TIP3    H214606   2.407   1.128   0.175
 4889TIP3   OH214607   3.384   2.032   1.984
 4889TIP3    H114608   3.397   2.117   1.942
 4889TIP3    H214609   3.294   2.036   2.017
 4890TIP3   OH214610   5.956   1.617   1.057
 4890TIP3    H114611   5.976   1.584   0.970
 4890TIP3    H214612   5.918   1.703   1.042
 4891TIP3   OH214613   8.344   0.670   2.758
 4891TIP3    H114614   8.320   0.580   2.783
 4891TIP3    H214615   8.298   0.684   2.675
 4892TIP3   OH214616   1.892   3.670   6.167
 4892TIP3    H114617   1.802   3.677   6.135
 4892TIP3    H214618   1.917   3.579   6.149
 4893TIP3   OH214619   1.172   0.661   3.182
 4893TIP3    H114620   1.189   0.746   3.142
 4893TIP3    H214621   1.237   0.653   3.251
 4894TIP3   OH214622   6.428   1.949   6.269
 4894TIP3    H114623   6.443   1.990   6.354
 4894TIP3    H214624   6.474   1.865   6.275
 4895TIP3   OH214625   2.736   2.823   1.716
 4895TIP3    H114626   2.778   2.809   1.632
 4895TIP3    H214627   2.644   2.841   1.694
 4896TIP3   OH214628   5.814   7.117   6.812
 4896TIP3    H114629   5.733   7.071   6.835
 4896TIP3    H214630   5.828   7.178   6.884
 4897TIP3   OH214631   2.507   6.507   2.422
 4897TIP3    H114632   2.571   6.436   2.433
 4897TIP3    H214633   2.484   6.533   2.511
 4898TIP3   OH214634   2.283   5.165   4.847
 4898TIP3    H114635   2.362   5.118   4.819
 4898TIP3    H214636   2.255   5.213   4.770
 4899TIP3   OH214637   6.005   6.700   4.685
 4899TIP3    H114638   6.049   6.692   4.770
 4899TIP3    H214639   5.920   6.738   4.706
 4900TIP3   OH214640   7.236   1.153   6.169
 4900TIP3    H114641   7.321   1.160   6.125
 4900TIP3    H214642   7.257   1.156   6.262
 4901TIP3   OH214643   7.119   5.531   6.816
 4901TIP3    H114644   7.183   5.488   6.873
 4901TIP3    H214645   7.157   5.525   6.728
 4902TIP3   OH214646   2.014   6.780   6.494
 4902TIP3    H114647   2.094   6.788   6.545
 4902TIP3    H214648   2.022   6.846   6.425
 4903TIP3   OH214649   2.804   7.557   6.353
 4903TIP3    H114650   2.812   7.646   6.319
 4903TIP3    H214651   2.892   7.519   6.342
 4904TIP3   OH214652   2.546   1.885   6.092
 4904TIP3    H114653   2.467   1.933   6.068
 4904TIP3    H214654   2.592   1.871   6.008
 4905TIP3   OH214655   2.452   2.385   6.718
 4905TIP3    H114656   2.377   2.444   6.729
 4905TIP3    H214657   2.464   2.378   6.624
 4906TIP3   OH214658   6.504   4.728   1.938
 4906TIP3    H114659   6.597   4.711   1.953
 4906TIP3    H214660   6.502   4.795   1.870
 4907TIP3   OH214661   4.062   3.325   3.119
 4907TIP3    H114662   4.108   3.409   3.115
 4907TIP3    H214663   4.015   3.320   3.036
 4908TIP3   OH214664   5.038   2.246   3.235
 4908TIP3    H114665   4.977   2.311   3.199
 4908TIP3    H214666   5.112   2.247   3.175
 4909TIP3   OH214667   3.356   4.924   6.083
 4909TIP3    H114668   3.390   4.909   6.171
 4909TIP3    H214669   3.279   4.979   6.096
 4910TIP3   OH214670   3.558   6.142   4.687
 4910TIP3    H114671   3.507   6.096   4.620
 4910TIP3    H214672   3.609   6.073   4.729
 4911TIP3   OH214673   3.507   3.723   6.046
 4911TIP3    H114674   3.592   3.763   6.061
 4911TIP3    H214675   3.502   3.653   6.110
 4912TIP3   OH214676   8.293   0.892   1.351
 4912TIP3    H114677   8.306   0.883   1.446
 4912TIP3    H214678   8.334   0.976   1.330
 4913TIP3   OH214679   7.390   0.939   2.303
 4913TIP3    H114680   7.374   0.926   2.210
 4913TIP3    H214681   7.424   0.855   2.334
 4914TIP3   OH214682   1.714   0.768   0.387
 4914TIP3    H114683   1.751   0.681   0.398
 4914TIP3    H214684   1.778   0.815   0.334
 4915TIP3   OH214685   0.844   6.307   0.606
 4915TIP3    H114686   0.822   6.274   0.519
 4915TIP3    H214687   0.913   6.372   0.591
 4916TIP3   OH214688   5.532   4.452   3.845
 4916TIP3    H114689   5.607   4.397   3.868
 4916TIP3    H214690   5.504   4.489   3.928
 4917TIP3   OH214691   1.122   6.173   4.077
 4917TIP3    H114692   1.095   6.246   4.133
 4917TIP3    H214693   1.044   6.118   4.070
 4918TIP3   OH214694   0.839   6.515   0.299
 4918TIP3    H114695   0.894   6.447   0.259
 4918TIP3    H214696   0.767   6.466   0.340
 4919TIP3   OH214697   0.812   7.456   4.960
 4919TIP3    H114698   0.748   7.503   4.907
 4919TIP3    H214699   0.847   7.388   4.902
 4920TIP3   OH214700   1.573   5.496   6.202
 4920TIP3    H114701   1.534   5.535   6.124
 4920TIP3    H214702   1.662   5.472   6.175
 4921TIP3   OH214703   5.366   4.181   6.270
 4921TIP3    H114704   5.276   4.191   6.300
 4921TIP3    H214705   5.390   4.092   6.294
 4922TIP3   OH214706   2.558   2.585   3.084
 4922TIP3    H114707   2.521   2.581   3.172
 4922TIP3    H214708   2.653   2.576   3.097
 4923TIP3   OH214709   6.760   6.450   2.722
 4923TIP3    H114710   6.847   6.477   2.694
 4923TIP3    H214711   6.708   6.446   2.642
 4924TIP3   OH214712   1.991   0.831   2.230
 4924TIP3    H114713   2.049   0.871   2.296
 4924TIP3    H214714   1.988   0.896   2.160
 4925TIP3   OH214715   2.102   6.908   5.527
 4925TIP3    H114716   2.091   6.923   5.621
 4925TIP3    H214717   2.156   6.981   5.497
 4926TIP3   OH214718   4.862   0.370   2.755
 4926TIP3    H114719   4.838   0.326   2.674
 4926TIP3    H214720   4.956   0.388   2.745
 4927TIP3   OH214721   6.851   0.199   0.715
 4927TIP3    H114722   6.885   0.229   0.800
 4927TIP3    H214723   6.928   0.182   0.663
 4928TIP3   OH214724   1.738   6.991   2.881
 4928TIP3    H114725   1.743   7.073   2.930
 4928TIP3    H214726   1.825   6.952   2.891
 4929TIP3   OH214727   0.862   3.975   0.641
 4929TIP3    H114728   0.895   3.931   0.719
 4929TIP3    H214729   0.838   3.905   0.581
 4930TIP3   OH214730   7.835   2.746   5.169
 4930TIP3    H114731   7.825   2.827   5.219
 4930TIP3    H214732   7.798   2.678   5.225
 4931TIP3   OH214733   4.945   2.174   6.166
 4931TIP3    H114734   4.961   2.106   6.101
 4931TIP3    H214735   5.018   2.236   6.154
 4932TIP3   OH214736   1.342   0.265   4.509
 4932TIP3    H114737   1.311   0.198   4.449
 4932TIP3    H214738   1.399   0.321   4.456
 4933TIP3   OH214739   6.328   2.118   0.914
 4933TIP3    H114740   6.354   2.044   0.859
 4933TIP3    H214741   6.388   2.116   0.988
 4934TIP3   OH214742   3.698   5.036   2.680
 4934TIP3    H114743   3.720   4.952   2.640
 4934TIP3    H214744   3.714   5.101   2.611
 4935TIP3   OH214745   2.331   3.809   6.618
 4935TIP3    H114746   2.243   3.840   6.642
 4935TIP3    H214747   2.321   3.715   6.607
 4936TIP3   OH214748   1.146   2.089   4.548
 4936TIP3    H114749   1.062   2.091   4.502
 4936TIP3    H214750   1.134   2.025   4.618
 4937TIP3   OH214751   7.455   3.270   1.294
 4937TIP3    H114752   7.423   3.353   1.329
 4937TIP3    H214753   7.464   3.214   1.371
 4938TIP3   OH214754   4.647   0.572   0.099
 4938TIP3    H114755   4.628   0.496   0.154
 4938TIP3    H214756   4.596   0.559   0.020
 4939TIP3   OH214757   2.170   2.198   3.721
 4939TIP3    H114758   2.135   2.278   3.761
 4939TIP3    H214759   2.247   2.177   3.774
 4940TIP3   OH214760   6.549   1.535   3.460
 4940TIP3    H114761   6.474   1.593   3.473
 4940TIP3    H214762   6.598   1.576   3.389
 4941TIP3   OH214763   6.857   2.935   4.626
 4941TIP3    H114764   6.820   2.913   4.540
 4941TIP3    H214765   6.794   2.998   4.663
 4942TIP3   OH214766   5.882   7.192   1.868
 4942TIP3    H114767   5.877   7.198   1.773
 4942TIP3    H214768   5.849   7.105   1.888
 4943TIP3   OH214769   1.998   4.035   6.471
 4943TIP3    H114770   1.949   3.998   6.398
 4943TIP3    H214771   1.978   4.128   6.469
 4944TIP3   OH214772   8.115   5.533   2.802
 4944TIP3    H114773   8.032   5.579   2.802
 4944TIP3    H214774   8.094   5.443   2.774
 4945TIP3   OH214775   6.789   1.174   0.480
 4945TIP3    H114776   6.858   1.164   0.415
 4945TIP3    H214777   6.836   1.186   0.563
 4946TIP3   OH214778   1.231   5.827   1.469
 4946TIP3    H114779   1.181   5.851   1.547
 4946TIP3    H214780   1.192   5.745   1.440
 4947TIP3   OH214781   1.322   5.748   2.199
 4947TIP3    H114782   1.233   5.732   2.166
 4947TIP3    H214783   1.377   5.686   2.152
 4948TIP3   OH214784   7.504   2.598   5.820
 4948TIP3    H114785   7.433   2.571   5.879
 4948TIP3    H214786   7.510   2.693   5.831
 4949TIP3   OH214787   4.582   2.420   0.172
 4949TIP3    H114788   4.588   2.516   0.179
 4949TIP3    H214789   4.615   2.401   0.084
 4950TIP3   OH214790   7.895   3.887   2.332
 4950TIP3    H114791   7.828   3.831   2.372
 4950TIP3    H214792   7.852   3.923   2.254
 4951TIP3   OH214793   6.958   5.133   1.454
 4951TIP3    H114794   7.030   5.169   1.401
 4951TIP3    H214795   6.912   5.074   1.394
 4952TIP3   OH214796   1.755   2.432   3.789
 4952TIP3    H114797   1.758   2.338   3.771
 4952TIP3    H214798   1.802   2.471   3.715
 4953TIP3   OH214799   2.115   5.207   0.294
 4953TIP3    H114800   2.105   5.283   0.236
 4953TIP3    H214801   2.044   5.148   0.268
 4954TIP3   OH214802   5.783   4.029   3.316
 4954TIP3    H114803   5.878   4.022   3.304
 4954TIP3    H214804   5.773   4.073   3.400
 4955TIP3   OH214805   1.186   3.736   5.392
 4955TIP3    H114806   1.196   3.775   5.479
 4955TIP3    H214807   1.116   3.787   5.351
 4956TIP3   OH214808   0.764   6.237   1.324
 4956TIP3    H114809   0.710   6.290   1.267
 4956TIP3    H214810   0.818   6.300   1.372
 4957TIP3   OH214811   0.041   5.919   0.797
 4957TIP3    H114812  -0.014   5.874   0.861
 4957TIP3    H214813   0.111   5.857   0.778
 4958TIP3   OH214814   4.533   0.172   3.133
 4958TIP3    H114815   4.518   0.085   3.172
 4958TIP3    H214816   4.622   0.166   3.097
 4959TIP3   OH214817   6.278   2.085   2.472
 4959TIP3    H114818   6.284   2.117   2.562
 4959TIP3    H214819   6.369   2.076   2.444
 4960TIP3   OH214820   5.167   5.247   4.234
 4960TIP3    H114821   5.158   5.270   4.326
 4960TIP3    H214822   5.184   5.153   4.234
 4961TIP3   OH214823   7.707   2.225   3.669
 4961TIP3    H114824   7.646   2.191   3.734
 4961TIP3    H214825   7.792   2.224   3.713
 4962TIP3   OH214826   7.834   7.197   2.254
 4962TIP3    H114827   7.866   7.112   2.286
 4962TIP3    H214828   7.911   7.239   2.217
 4963TIP3   OH214829   6.284   2.914   4.643
 4963TIP3    H114830   6.325   2.881   4.723
 4963TIP3    H214831   6.329   2.869   4.572
 4964TIP3   OH214832   0.098   3.886   3.484
 4964TIP3    H114833   0.149   3.808   3.502
 4964TIP3    H214834   0.042   3.862   3.410
 4965TIP3   OH214835   3.170   6.349   5.777
 4965TIP3    H114836   3.116   6.313   5.848
 4965TIP3    H214837   3.218   6.274   5.744
 4966TIP3   OH214838   5.668   2.014   2.954
 4966TIP3    H114839   5.742   1.989   2.899
 4966TIP3    H214840   5.691   2.103   2.984
 4967TIP3   OH214841   1.094   3.349   1.832
 4967TIP3    H114842   1.120   3.440   1.820
 4967TIP3    H214843   1.162   3.312   1.889
 4968TIP3   OH214844   2.150   1.238   5.155
 4968TIP3    H114845   2.094   1.305   5.117
 4968TIP3    H214846   2.159   1.171   5.086
 4969TIP3   OH214847   4.933   7.139   2.587
 4969TIP3    H114848   4.978   7.066   2.631
 4969TIP3    H214849   4.984   7.153   2.507
 4970TIP3   OH214850   5.327   6.917   2.203
 4970TIP3    H114851   5.303   6.825   2.203
 4970TIP3    H214852   5.266   6.958   2.141
 4971TIP3   OH214853   6.358   1.509   4.744
 4971TIP3    H114854   6.375   1.455   4.821
 4971TIP3    H214855   6.279   1.557   4.766
 4972TIP3   OH214856   7.208   4.573   3.073
 4972TIP3    H114857   7.287   4.525   3.051
 4972TIP3    H214858   7.162   4.584   2.990
 4973TIP3   OH214859   4.913   3.052   2.893
 4973TIP3    H114860   4.948   3.136   2.865
 4973TIP3    H214861   4.923   3.052   2.988
 4974TIP3   OH214862   3.306   6.200   2.893
 4974TIP3    H114863   3.358   6.122   2.912
 4974TIP3    H214864   3.222   6.165   2.863
 4975TIP3   OH214865   2.886   1.880   3.913
 4975TIP3    H114866   2.918   1.816   3.850
 4975TIP3    H214867   2.965   1.908   3.960
 4976TIP3   OH214868   7.722   0.460   1.645
 4976TIP3    H114869   7.695   0.531   1.587
 4976TIP3    H214870   7.804   0.429   1.608
 4977TIP3   OH214871   5.291   3.168   3.818
 4977TIP3    H114872   5.331   3.083   3.834
 4977TIP3    H214873   5.226   3.179   3.888
 4978TIP3   OH214874   7.514   4.653   5.857
 4978TIP3    H114875   7.479   4.651   5.946
 4978TIP3    H214876   7.573   4.728   5.856
 4979TIP3   OH214877   6.507   6.373   2.297
 4979TIP3    H114878   6.424   6.326   2.305
 4979TIP3    H214879   6.510   6.429   2.375
 4980TIP3   OH214880   7.654   4.939   6.708
 4980TIP3    H114881   7.610   4.911   6.788
 4980TIP3    H214882   7.584   4.974   6.653
 4981TIP3   OH214883   3.953   6.027   3.152
 4981TIP3    H114884   3.987   6.116   3.144
 4981TIP3    H214885   3.947   6.012   3.246
 4982TIP3   OH214886   5.385   0.916   0.238
 4982TIP3    H114887   5.437   0.938   0.160
 4982TIP3    H214888   5.421   0.972   0.307
 4983TIP3   OH214889   1.794   2.322   0.991
 4983TIP3    H114890   1.740   2.373   0.930
 4983TIP3    H214891   1.779   2.362   1.076
 4984TIP3   OH214892   3.494   7.395   6.691
 4984TIP3    H114893   3.480   7.398   6.785
 4984TIP3    H214894   3.588   7.381   6.680
 4985TIP3   OH214895   0.525   3.561   0.648
 4985TIP3    H114896   0.450   3.572   0.590
 4985TIP3    H214897   0.558   3.650   0.664
 4986TIP3   OH214898   5.819   6.608   4.312
 4986TIP3    H114899   5.837   6.538   4.374
 4986TIP3    H214900   5.795   6.563   4.231
 4987TIP3   OH214901   1.348   0.927   3.474
 4987TIP3    H114902   1.367   0.954   3.385
 4987TIP3    H214903   1.259   0.958   3.490
 4988TIP3   OH214904   4.360   6.535   6.269
 4988TIP3    H114905   4.414   6.498   6.200
 4988TIP3    H214906   4.414   6.529   6.348
 4989TIP3   OH214907   7.323   1.215   0.807
 4989TIP3    H114908   7.411   1.247   0.792
 4989TIP3    H214909   7.333   1.120   0.816
 4990TIP3   OH214910   3.819   0.496   2.157
 4990TIP3    H114911   3.749   0.501   2.223
 4990TIP3    H214912   3.778   0.453   2.083
 4991TIP3   OH214913   2.276   6.891   4.579
 4991TIP3    H114914   2.293   6.916   4.670
 4991TIP3    H214915   2.340   6.822   4.561
 4992TIP3   OH214916   2.639   3.443   6.778
 4992TIP3    H114917   2.724   3.399   6.778
 4992TIP3    H214918   2.648   3.513   6.713
 4993TIP3   OH214919   4.306   3.900   4.255
 4993TIP3    H114920   4.313   3.847   4.335
 4993TIP3    H214921   4.213   3.922   4.249
 4994TIP3   OH214922   6.684   6.718   0.542
 4994TIP3    H114923   6.601   6.731   0.496
 4994TIP3    H214924   6.672   6.758   0.628
 4995TIP3   OH214925   3.835   1.295   3.055
 4995TIP3    H114926   3.877   1.379   3.075
 4995TIP3    H214927   3.896   1.229   3.090
 4996TIP3   OH214928   3.040   1.320   4.896
 4996TIP3    H114929   3.109   1.380   4.869
 4996TIP3    H214930   3.038   1.328   4.992
 4997TIP3   OH214931   6.890   3.961   1.192
 4997TIP3    H114932   6.861   3.893   1.131
 4997TIP3    H214933   6.879   4.042   1.143
 4998TIP3   OH214934   3.013   2.314   4.552
 4998TIP3    H114935   3.035   2.228   4.588
 4998TIP3    H214936   2.918   2.320   4.561
 4999TIP3   OH214937   2.278   2.398   5.810
 4999TIP3    H114938   2.275   2.365   5.899
 4999TIP3    H214939   2.203   2.358   5.767
 5000TIP3   OH214940   0.726   6.930   4.104
 5000TIP3    H114941   0.637   6.958   4.080
 5000TIP3    H214942   0.783   6.981   4.047
 5001TIP3   OH214943   7.401   6.352   5.321
 5001TIP3    H114944   7.325   6.366   5.265
 5001TIP3    H214945   7.365   6.323   5.405
 5002TIP3   OH214946   5.421   5.365   4.468
 5002TIP3    H114947   5.374   5.439   4.432
 5002TIP3    H214948   5.359   5.324   4.529
 5003TIP3   OH214949   0.201   5.870   1.786
 5003TIP3    H114950   0.263   5.942   1.775
 5003TIP3    H214951   0.115   5.910   1.771
 5004TIP3   OH214952   2.755   5.973   3.256
 5004TIP3    H114953   2.824   5.986   3.321
 5004TIP3    H214954   2.740   5.878   3.257
 5005TIP3   OH214955   6.646   6.435   0.555
 5005TIP3    H114956   6.654   6.528   0.534
 5005TIP3    H214957   6.619   6.432   0.646
 5006TIP3   OH214958   7.342   2.374   1.916
 5006TIP3    H114959   7.343   2.282   1.943
 5006TIP3    H214960   7.307   2.373   1.827
 5007TIP3   OH214961   5.965   1.278   4.458
 5007TIP3    H114962   6.046   1.265   4.409
 5007TIP3    H214963   5.946   1.191   4.495
 5008TIP3   OH214964   2.273   3.292   4.100
 5008TIP3    H114965   2.349   3.265   4.049
 5008TIP3    H214966   2.303   3.367   4.151
 5009TIP3   OH214967   5.082   3.096   5.353
 5009TIP3    H114968   5.050   3.168   5.407
 5009TIP3    H214969   5.005   3.041   5.337
 5010TIP3   OH214970   5.546   3.548   5.040
 5010TIP3    H114971   5.502   3.546   5.125
 5010TIP3    H214972   5.511   3.627   4.997
 5011TIP3   OH214973   7.471   6.886   2.063
 5011TIP3    H114974   7.409   6.869   2.134
 5011TIP3    H214975   7.417   6.902   1.986
 5012TIP3   OH214976   8.309   2.010   0.229
 5012TIP3    H114977   8.307   1.962   0.146
 5012TIP3    H214978   8.393   2.055   0.229
 5013TIP3   OH214979   1.182   4.170   5.870
 5013TIP3    H114980   1.172   4.259   5.904
 5013TIP3    H214981   1.276   4.154   5.872
 5014TIP3   OH214982   7.862   5.871   0.997
 5014TIP3    H114983   7.824   5.842   1.080
 5014TIP3    H214984   7.946   5.910   1.021
 5015TIP3   OH214985   1.230   4.715   3.948
 5015TIP3    H114986   1.285   4.651   3.994
 5015TIP3    H214987   1.165   4.662   3.902
 5016TIP3   OH214988   0.519   3.475   6.648
 5016TIP3    H114989   0.559   3.504   6.567
 5016TIP3    H214990   0.518   3.553   6.704
 5017TIP3   OH214991   0.177   4.845   0.569
 5017TIP3    H114992   0.212   4.881   0.650
 5017TIP3    H214993   0.242   4.780   0.541
 5018TIP3   OH214994   6.382   2.186   4.410
 5018TIP3    H114995   6.432   2.186   4.328
 5018TIP3    H214996   6.448   2.170   4.477
 5019TIP3   OH214997   6.470   0.920   2.388
 5019TIP3    H114998   6.554   0.877   2.370
 5019TIP3    H214999   6.426   0.922   2.303
 5020TIP3   OH215000   3.954   2.312   0.893
 5020TIP3    H115001   3.919   2.229   0.927
 5020TIP3    H215002   4.045   2.292   0.871
 5021TIP3   OH215003   7.528   2.789   3.211
 5021TIP3    H115004   7.563   2.702   3.224
 5021TIP3    H215005   7.455   2.777   3.149
 5022TIP3   OH215006   4.527   0.768   2.510
 5022TIP3    H115007   4.486   0.683   2.528
 5022TIP3    H215008   4.502   0.822   2.585
 5023TIP3   OH215009   3.066   0.810   3.298
 5023TIP3    H115010   3.008   0.837   3.369
 5023TIP3    H215011   3.122   0.886   3.283
 5024TIP3   OH215012   3.051   0.806   6.528
 5024TIP3    H115013   2.962   0.827   6.556
 5024TIP3    H215014   3.039   0.748   6.453
 5025TIP3   OH215015   5.779   7.616   2.272
 5025TIP3    H115016   5.784   7.548   2.205
 5025TIP3    H215017   5.689   7.648   2.266
 5026TIP3   OH215018   5.772   1.549   4.009
 5026TIP3    H115019   5.796   1.536   3.917
 5026TIP3    H215020   5.855   1.553   4.055
 5027TIP3   OH215021   5.197   6.992   0.038
 5027TIP3    H115022   5.133   7.027  -0.024
 5027TIP3    H215023   5.263   7.061   0.044
 5028TIP3   OH215024   6.649   3.975   4.605
 5028TIP3    H115025   6.663   3.977   4.699
 5028TIP3    H215026   6.645   4.067   4.579
 5029TIP3   OH215027   4.063   7.162   4.149
 5029TIP3    H115028   4.078   7.068   4.146
 5029TIP3    H215029   3.967   7.171   4.156
 5030TIP3   OH215030   1.962   2.616   0.782
 5030TIP3    H115031   1.983   2.523   0.795
 5030TIP3    H215032   2.041   2.653   0.743
 5031TIP3   OH215033   4.468   6.523   5.075
 5031TIP3    H115034   4.461   6.459   5.005
 5031TIP3    H215035   4.463   6.472   5.155
 5032TIP3   OH215036   4.114   7.696   4.542
 5032TIP3    H115037   4.068   7.618   4.572
 5032TIP3    H215038   4.187   7.663   4.490
 5033TIP3   OH215039   6.374   2.475   2.757
 5033TIP3    H115040   6.308   2.525   2.806
 5033TIP3    H215041   6.448   2.534   2.749
 5034TIP3   OH215042   0.690   7.555   1.066
 5034TIP3    H115043   0.685   7.596   0.980
 5034TIP3    H215044   0.693   7.628   1.128
 5035TIP3   OH215045   1.255   2.313   1.378
 5035TIP3    H115046   1.170   2.311   1.335
 5035TIP3    H215047   1.304   2.382   1.334
 5036TIP3   OH215048   8.400   4.843   3.241
 5036TIP3    H115049   8.420   4.884   3.157
 5036TIP3    H215050   8.328   4.896   3.277
 5037TIP3   OH215051   4.079   2.845   5.534
 5037TIP3    H115052   3.999   2.832   5.586
 5037TIP3    H215053   4.073   2.780   5.465
 5038TIP3   OH215054   7.730   2.944   1.878
 5038TIP3    H115055   7.670   2.885   1.832
 5038TIP3    H215056   7.816   2.904   1.867
 5039TIP3   OH215057   2.097   2.377   3.990
 5039TIP3    H115058   2.169   2.400   4.049
 5039TIP3    H215059   2.063   2.295   4.024
 5040TIP3   OH215060   7.570   2.853   5.003
 5040TIP3    H115061   7.655   2.899   5.002
 5040TIP3    H215062   7.590   2.766   5.036
 5041TIP3   OH215063   1.467   0.787   0.954
 5041TIP3    H115064   1.513   0.829   0.881
 5041TIP3    H215065   1.512   0.819   1.032
 5042TIP3   OH215066   3.259   0.302   2.630
 5042TIP3    H115067   3.349   0.330   2.643
 5042TIP3    H215068   3.239   0.250   2.708
 5043TIP3   OH215069   8.090   3.133   5.038
 5043TIP3    H115070   8.028   3.140   4.965
 5043TIP3    H215071   8.123   3.044   5.033
 5044TIP3   OH215072   2.524   3.797   0.532
 5044TIP3    H115073   2.437   3.758   0.533
 5044TIP3    H215074   2.514   3.880   0.578
 5045TIP3   OH215075   3.634   6.889   0.533
 5045TIP3    H115076   3.719   6.931   0.518
 5045TIP3    H215077   3.651   6.796   0.522
 5046TIP3   OH215078   6.329   6.205   3.028
 5046TIP3    H115079   6.340   6.229   2.937
 5046TIP3    H215080   6.416   6.213   3.067
 5047TIP3   OH215081   3.213   0.616   2.159
 5047TIP3    H115082   3.291   0.565   2.139
 5047TIP3    H215083   3.241   0.678   2.226
 5048TIP3   OH215084   6.261   5.543   3.520
 5048TIP3    H115085   6.265   5.576   3.610
 5048TIP3    H215086   6.248   5.621   3.466
 5049TIP3   OH215087   2.726   1.931   4.742
 5049TIP3    H115088   2.815   1.943   4.774
 5049TIP3    H215089   2.736   1.909   4.649
 5050TIP3   OH215090   7.629   0.607   3.501
 5050TIP3    H115091   7.567   0.534   3.508
 5050TIP3    H215092   7.667   0.597   3.413
 5051TIP3   OH215093   0.566   3.092   3.116
 5051TIP3    H115094   0.552   3.081   3.210
 5051TIP3    H215095   0.645   3.146   3.109
 5052TIP3   OH215096   2.358   6.457   4.902
 5052TIP3    H115097   2.364   6.549   4.928
 5052TIP3    H215098   2.448   6.434   4.877
 5053TIP3   OH215099   4.543   5.683   1.318
 5053TIP3    H115100   4.554   5.768   1.361
 5053TIP3    H215101   4.450   5.681   1.293
 5054TIP3   OH215102   2.002   5.230   6.321
 5054TIP3    H115103   2.026   5.235   6.414
 5054TIP3    H215104   1.984   5.138   6.305
 5055TIP3   OH215105   0.327   0.114   4.828
 5055TIP3    H115106   0.379   0.058   4.886
 5055TIP3    H215107   0.381   0.123   4.749
 5056TIP3   OH215108   0.255   6.544   2.971
 5056TIP3    H115109   0.247   6.499   3.055
 5056TIP3    H215110   0.164   6.557   2.943
 5057TIP3   OH215111   8.118   0.945   1.570
 5057TIP3    H115112   8.072   1.023   1.540
 5057TIP3    H215113   8.163   0.973   1.650
 5058TIP3   OH215114   6.240   1.490   3.836
 5058TIP3    H115115   6.220   1.575   3.876
 5058TIP3    H215116   6.336   1.490   3.828
 5059TIP3   OH215117   6.431   6.009   4.811
 5059TIP3    H115118   6.450   6.053   4.894
 5059TIP3    H215119   6.512   6.016   4.761
 5060TIP3   OH215120   1.364   2.212   0.429
 5060TIP3    H115121   1.440   2.167   0.465
 5060TIP3    H215122   1.338   2.159   0.354
 5061TIP3   OH215123   4.824   6.956   5.026
 5061TIP3    H115124   4.834   6.863   5.008
 5061TIP3    H215125   4.737   6.964   5.064
 5062TIP3   OH215126   2.441   4.934   6.724
 5062TIP3    H115127   2.471   5.024   6.709
 5062TIP3    H215128   2.346   4.941   6.731
 5063TIP3   OH215129   5.348   6.041   2.389
 5063TIP3    H115130   5.438   6.051   2.360
 5063TIP3    H215131   5.354   5.986   2.468
 5064TIP3   OH215132   4.895   0.232   2.173
 5064TIP3    H115133   4.885   0.297   2.104
 5064TIP3    H215134   4.813   0.183   2.174
 5065TIP3   OH215135   6.935   2.335   1.734
 5065TIP3    H115136   7.001   2.395   1.699
 5065TIP3    H215137   6.883   2.389   1.794
 5066TIP3   OH215138   1.226   2.178   5.556
 5066TIP3    H115139   1.319   2.195   5.540
 5066TIP3    H215140   1.223   2.088   5.587
 5067TIP3   OH215141   3.024   7.210   1.094
 5067TIP3    H115142   2.946   7.240   1.140
 5067TIP3    H215143   3.095   7.222   1.157
 5068TIP3   OH215144   7.386   3.057   1.698
 5068TIP3    H115145   7.338   3.119   1.643
 5068TIP3    H215146   7.335   2.976   1.694
 5069TIP3   OH215147   3.077   1.633   1.196
 5069TIP3    H115148   3.090   1.562   1.259
 5069TIP3    H215149   3.152   1.691   1.210
 5070TIP3   OH215150   5.443   5.331   2.054
 5070TIP3    H115151   5.488   5.416   2.050
 5070TIP3    H215152   5.432   5.315   2.148
 5071TIP3   OH215153   2.953   7.811   2.288
 5071TIP3    H115154   2.966   7.830   2.195
 5071TIP3    H215155   2.979   7.892   2.332
 5072TIP3   OH215156   3.559   0.368   0.769
 5072TIP3    H115157   3.582   0.391   0.679
 5072TIP3    H215158   3.553   0.272   0.769
 5073TIP3   OH215159   5.913   1.793   2.266
 5073TIP3    H115160   5.854   1.849   2.316
 5073TIP3    H215161   6.001   1.817   2.297
 5074TIP3   OH215162   4.140   5.437   6.278
 5074TIP3    H115163   4.096   5.495   6.340
 5074TIP3    H215164   4.153   5.356   6.327
 5075TIP3   OH215165   2.512   2.313   2.135
 5075TIP3    H115166   2.584   2.336   2.195
 5075TIP3    H215167   2.453   2.388   2.139
 5076TIP3   OH215168   2.282   1.488   2.033
 5076TIP3    H115169   2.208   1.542   2.005
 5076TIP3    H215170   2.327   1.466   1.951
 5077TIP3   OH215171   2.254   3.526   0.035
 5077TIP3    H115172   2.261   3.430   0.042
 5077TIP3    H215173   2.218   3.553   0.120
 5078TIP3   OH215174   0.504   2.039   5.126
 5078TIP3    H115175   0.568   2.110   5.124
 5078TIP3    H215176   0.422   2.079   5.100
 5079TIP3   OH215177   6.123   3.808   1.324
 5079TIP3    H115178   6.070   3.820   1.402
 5079TIP3    H215179   6.201   3.762   1.353
 5080TIP3   OH215180   7.351   4.664   6.101
 5080TIP3    H115181   7.337   4.575   6.131
 5080TIP3    H215182   7.279   4.681   6.041
 5081TIP3   OH215183   4.664   3.906   4.495
 5081TIP3    H115184   4.587   3.945   4.536
 5081TIP3    H215185   4.657   3.813   4.513
 5082TIP3   OH215186   5.009   5.562   6.322
 5082TIP3    H115187   5.084   5.556   6.263
 5082TIP3    H215188   4.933   5.564   6.264
 5083TIP3   OH215189   2.091   6.680   2.500
 5083TIP3    H115190   2.035   6.753   2.528
 5083TIP3    H215191   2.082   6.679   2.404
 5084TIP3   OH215192   4.469   5.900   6.493
 5084TIP3    H115193   4.450   5.992   6.476
 5084TIP3    H215194   4.386   5.855   6.475
 5085TIP3   OH215195   2.579   1.572   3.686
 5085TIP3    H115196   2.605   1.509   3.619
 5085TIP3    H215197   2.619   1.654   3.658
 5086TIP3   OH215198   4.045   3.621   1.840
 5086TIP3    H115199   3.962   3.661   1.816
 5086TIP3    H215200   4.109   3.664   1.783
 5087TIP3   OH215201   3.887   1.416   6.536
 5087TIP3    H115202   3.973   1.459   6.535
 5087TIP3    H215203   3.895   1.349   6.604
 5088TIP3   OH215204   1.817   3.798   2.252
 5088TIP3    H115205   1.845   3.774   2.341
 5088TIP3    H215206   1.899   3.818   2.206
 5089TIP3   OH215207   6.232   0.524   1.073
 5089TIP3    H115208   6.199   0.525   1.163
 5089TIP3    H215209   6.172   0.581   1.024
 5090TIP3   OH215210   2.976   2.322   6.632
 5090TIP3    H115211   3.022   2.400   6.662
 5090TIP3    H215212   2.893   2.322   6.680
 5091TIP3   OH215213   4.467   2.442   6.279
 5091TIP3    H115214   4.477   2.347   6.270
 5091TIP3    H215215   4.413   2.453   6.357
 5092TIP3   OH215216   3.327   4.885   0.752
 5092TIP3    H115217   3.311   4.971   0.713
 5092TIP3    H215218   3.309   4.823   0.681
 5093TIP3   OH215219   2.572   4.938   0.637
 5093TIP3    H115220   2.657   4.899   0.655
 5093TIP3    H215221   2.518   4.866   0.606
 5094TIP3   OH215222   1.549   1.811   4.156
 5094TIP3    H115223   1.541   1.715   4.155
 5094TIP3    H215224   1.566   1.832   4.247
 5095TIP3   OH215225   3.462   0.865   5.238
 5095TIP3    H115226   3.493   0.803   5.304
 5095TIP3    H215227   3.533   0.869   5.174
 5096TIP3   OH215228   6.519   6.172   1.172
 5096TIP3    H115229   6.497   6.248   1.119
 5096TIP3    H215230   6.477   6.099   1.127
 5097TIP3   OH215231   8.145   1.849   2.762
 5097TIP3    H115232   8.227   1.862   2.810
 5097TIP3    H215233   8.164   1.777   2.701
 5098TIP3   OH215234   5.929   1.966   0.644
 5098TIP3    H115235   5.918   2.043   0.589
 5098TIP3    H215236   6.019   1.937   0.626
 5099TIP3   OH215237   6.368   2.907   5.961
 5099TIP3    H115238   6.382   2.821   5.922
 5099TIP3    H215239   6.450   2.928   6.005
 5100TIP3   OH215240   6.927   0.579   6.739
 5100TIP3    H115241   6.954   0.531   6.817
 5100TIP3    H215242   6.996   0.644   6.725
 5101TIP3   OH215243   0.829   2.819   3.831
 5101TIP3    H115244   0.893   2.830   3.901
 5101TIP3    H215245   0.844   2.731   3.798
 5102TIP3   OH215246   5.320   2.962   0.217
 5102TIP3    H115247   5.394   3.003   0.172
 5102TIP3    H215248   5.331   2.868   0.200
 5103TIP3   OH215249   5.455   5.177   6.537
 5103TIP3    H115250   5.430   5.269   6.549
 5103TIP3    H215251   5.541   5.180   6.497
 5104TIP3   OH215252   0.831   2.218   5.651
 5104TIP3    H115253   0.899   2.240   5.587
 5104TIP3    H215254   0.860   2.137   5.692
 5105TIP3   OH215255   1.416   7.406   2.365
 5105TIP3    H115256   1.399   7.476   2.301
 5105TIP3    H215257   1.497   7.364   2.334
 5106TIP3   OH215258   6.343   2.916   5.147
 5106TIP3    H115259   6.372   2.825   5.149
 5106TIP3    H215260   6.417   2.966   5.183
 5107TIP3   OH215261   6.154   1.272   2.086
 5107TIP3    H115262   6.235   1.280   2.137
 5107TIP3    H215263   6.163   1.339   2.018
 5108TIP3   OH215264   2.550   4.693   6.811
 5108TIP3    H115265   2.543   4.782   6.776
 5108TIP3    H215266   2.633   4.660   6.776
 5109TIP3   OH215267   6.205   5.215   0.424
 5109TIP3    H115268   6.259   5.211   0.502
 5109TIP3    H215269   6.203   5.307   0.400
 5110TIP3   OH215270   4.681   1.993   4.213
 5110TIP3    H115271   4.720   1.964   4.295
 5110TIP3    H215272   4.588   1.971   4.222
 5111TIP3   OH215273   1.675   7.343   2.535
 5111TIP3    H115274   1.770   7.344   2.546
 5111TIP3    H215275   1.662   7.371   2.444
 5112TIP3   OH215276   5.021   1.995   2.563
 5112TIP3    H115277   4.964   1.936   2.515
 5112TIP3    H215278   5.107   1.952   2.562
 5113TIP3   OH215279   5.121   7.026   6.183
 5113TIP3    H115280   5.082   7.063   6.262
 5113TIP3    H215281   5.122   6.932   6.198
 5114TIP3   OH215282   1.139   5.451   0.701
 5114TIP3    H115283   1.149   5.507   0.624
 5114TIP3    H215284   1.045   5.436   0.708
 5115TIP3   OH215285   1.451   3.205   1.724
 5115TIP3    H115286   1.432   3.111   1.723
 5115TIP3    H215287   1.416   3.237   1.641
 5116TIP3   OH215288   7.386   2.100   1.882
 5116TIP3    H115289   7.438   2.055   1.815
 5116TIP3    H215290   7.296   2.074   1.864
 5117TIP3   OH215291   0.892   3.349   6.643
 5117TIP3    H115292   0.987   3.339   6.646
 5117TIP3    H215293   0.871   3.406   6.717
 5118TIP3   OH215294   1.290   4.006   0.072
 5118TIP3    H115295   1.204   3.989   0.112
 5118TIP3    H215296   1.352   3.993   0.143
 5119TIP3   OH215297   2.592   6.861   1.468
 5119TIP3    H115298   2.624   6.794   1.528
 5119TIP3    H215299   2.598   6.942   1.518
 5120TIP3   OH215300   1.430   3.521   0.265
 5120TIP3    H115301   1.500   3.470   0.225
 5120TIP3    H215302   1.392   3.463   0.331
 5121TIP3   OH215303   7.458   7.077   4.493
 5121TIP3    H115304   7.375   7.089   4.447
 5121TIP3    H215305   7.499   7.003   4.448
 5122TIP3   OH215306   2.647   1.035   6.768
 5122TIP3    H115307   2.703   1.088   6.710
 5122TIP3    H215308   2.666   1.068   6.856
 5123TIP3   OH215309   0.813   1.776   6.272
 5123TIP3    H115310   0.762   1.700   6.248
 5123TIP3    H215311   0.892   1.740   6.313
 5124TIP3   OH215312   1.407   0.386   6.365
 5124TIP3    H115313   1.329   0.332   6.351
 5124TIP3    H215314   1.481   0.326   6.351
 5125TIP3   OH215315   4.152   3.828   1.011
 5125TIP3    H115316   4.181   3.901   0.956
 5125TIP3    H215317   4.144   3.865   1.098
 5126TIP3   OH215318   6.542   4.678   3.300
 5126TIP3    H115319   6.559   4.616   3.370
 5126TIP3    H215320   6.516   4.758   3.345
 5127TIP3   OH215321   0.243   2.091   1.320
 5127TIP3    H115322   0.298   2.022   1.284
 5127TIP3    H215323   0.164   2.045   1.349
 5128TIP3   OH215324   6.572   4.868   2.512
 5128TIP3    H115325   6.590   4.909   2.596
 5128TIP3    H215326   6.590   4.775   2.526
 5129TIP3   OH215327   4.302   5.856   3.902
 5129TIP3    H115328   4.220   5.842   3.854
 5129TIP3    H215329   4.311   5.778   3.958
 5130TIP3   OH215330   3.667   3.588   3.661
 5130TIP3    H115331   3.612   3.580   3.583
 5130TIP3    H215332   3.704   3.676   3.656
 5131TIP3   OH215333   1.762   5.142   6.551
 5131TIP3    H115334   1.827   5.210   6.568
 5131TIP3    H215335   1.691   5.160   6.613
 5132TIP3   OH215336   5.185   5.977   6.677
 5132TIP3    H115337   5.106   5.954   6.725
 5132TIP3    H215338   5.254   5.926   6.719
 5133TIP3   OH215339   2.380   6.618   6.336
 5133TIP3    H115340   2.341   6.552   6.278
 5133TIP3    H215341   2.472   6.620   6.311
 5134TIP3   OH215342   2.679   3.047   6.771
 5134TIP3    H115343   2.681   3.107   6.846
 5134TIP3    H215344   2.678   2.960   6.810
 5135TIP3   OH215345   1.079   2.116   6.741
 5135TIP3    H115346   1.171   2.141   6.743
 5135TIP3    H215347   1.055   2.123   6.649
 5136TIP3   OH215348   7.528   0.151   2.216
 5136TIP3    H115349   7.602   0.149   2.278
 5136TIP3    H215350   7.463   0.207   2.259
 5137TIP3   OH215351   5.678   2.480   1.106
 5137TIP3    H115352   5.648   2.551   1.049
 5137TIP3    H215353   5.743   2.520   1.163
 5138TIP3   OH215354   2.525   6.085   0.951
 5138TIP3    H115355   2.432   6.065   0.953
 5138TIP3    H215356   2.530   6.169   0.904
 5139TIP3   OH215357   7.184   1.345   5.493
 5139TIP3    H115358   7.274   1.338   5.460
 5139TIP3    H215359   7.164   1.258   5.527
 5140TIP3   OH215360   3.773   6.500   6.261
 5140TIP3    H115361   3.814   6.473   6.344
 5140TIP3    H215362   3.679   6.493   6.278
 5141TIP3   OH215363   0.699   0.437   2.646
 5141TIP3    H115364   0.770   0.384   2.683
 5141TIP3    H215365   0.661   0.382   2.577
 5142TIP3   OH215366   8.347   3.214   6.593
 5142TIP3    H115367   8.293   3.284   6.557
 5142TIP3    H215368   8.299   3.134   6.573
 5143TIP3   OH215369   0.064   1.901   1.423
 5143TIP3    H115370   0.076   1.830   1.486
 5143TIP3    H215371  -0.029   1.925   1.430
 5144TIP3   OH215372   2.450   6.798   0.092
 5144TIP3    H115373   2.359   6.803   0.062
 5144TIP3    H215374   2.499   6.771   0.014
 5145TIP3   OH215375   0.165   4.407   6.334
 5145TIP3    H115376   0.189   4.410   6.242
 5145TIP3    H215377   0.203   4.325   6.366
 5146TIP3   OH215378  -0.017   6.975   2.647
 5146TIP3    H115379  -0.037   6.884   2.667
 5146TIP3    H215380   0.062   6.970   2.593
 5147TIP3   OH215381   6.749   2.611   4.285
 5147TIP3    H115382   6.660   2.642   4.270
 5147TIP3    H215383   6.743   2.515   4.277
 5148TIP3   OH215384   5.646   6.230   2.732
 5148TIP3    H115385   5.664   6.203   2.822
 5148TIP3    H215386   5.577   6.296   2.740
 5149TIP3   OH215387   1.125   2.721   2.389
 5149TIP3    H115388   1.213   2.758   2.389
 5149TIP3    H215389   1.106   2.705   2.482
 5150TIP3   OH215390   3.789   0.328   6.777
 5150TIP3    H115391   3.778   0.416   6.743
 5150TIP3    H215392   3.706   0.284   6.758
 5151TIP3   OH215393   3.192   6.822   5.916
 5151TIP3    H115394   3.169   6.797   5.827
 5151TIP3    H215395   3.250   6.897   5.906
 5152TIP3   OH215396   1.769   7.027   4.936
 5152TIP3    H115397   1.718   7.069   4.866
 5152TIP3    H215398   1.788   6.940   4.902
 5153TIP3   OH215399   4.537   4.750   2.773
 5153TIP3    H115400   4.550   4.656   2.760
 5153TIP3    H215401   4.600   4.791   2.713
 5154TIP3   OH215402   1.649   6.164   4.558
 5154TIP3    H115403   1.636   6.107   4.483
 5154TIP3    H215404   1.682   6.246   4.521
 5155TIP3   OH215405   2.140   1.919   4.631
 5155TIP3    H115406   2.233   1.939   4.629
 5155TIP3    H215407   2.127   1.856   4.561
 5156TIP3   OH215408   6.503   0.780   1.453
 5156TIP3    H115409   6.411   0.768   1.476
 5156TIP3    H215410   6.507   0.864   1.408
 5157TIP3   OH215411   3.715   4.359   6.854
 5157TIP3    H115412   3.721   4.285   6.794
 5157TIP3    H215413   3.805   4.391   6.860
 5158TIP3   OH215414   0.953   4.931   2.230
 5158TIP3    H115415   0.895   4.907   2.158
 5158TIP3    H215416   0.913   4.894   2.308
 5159TIP3   OH215417   2.746   0.830   5.661
 5159TIP3    H115418   2.654   0.825   5.634
 5159TIP3    H215419   2.749   0.903   5.722
 5160TIP3   OH215420   4.036   2.156   2.028
 5160TIP3    H115421   3.980   2.082   2.002
 5160TIP3    H215422   4.018   2.222   1.961
 5161TIP3   OH215423   8.049   0.947   2.153
 5161TIP3    H115424   8.032   1.023   2.098
 5161TIP3    H215425   8.036   0.872   2.095
 5162TIP3   OH215426   1.422   7.777   4.921
 5162TIP3    H115427   1.435   7.712   4.852
 5162TIP3    H215428   1.337   7.816   4.902
 5163TIP3   OH215429   2.227   4.863   3.439
 5163TIP3    H115430   2.219   4.920   3.363
 5163TIP3    H215431   2.309   4.889   3.481
 5164TIP3   OH215432   8.196   3.901   4.010
 5164TIP3    H115433   8.117   3.953   3.996
 5164TIP3    H215434   8.212   3.858   3.926
 5165TIP3   OH215435   7.900   0.155   3.898
 5165TIP3    H115436   7.824   0.193   3.853
 5165TIP3    H215437   7.954   0.231   3.921
 5166TIP3   OH215438   7.282   7.746   1.948
 5166TIP3    H115439   7.189   7.730   1.964
 5166TIP3    H215440   7.301   7.825   1.999
 5167TIP3   OH215441   2.001   4.091   0.759
 5167TIP3    H115442   2.014   4.068   0.851
 5167TIP3    H215443   2.076   4.051   0.714
 5168TIP3   OH215444   5.271   3.324   5.020
 5168TIP3    H115445   5.348   3.267   5.017
 5168TIP3    H215446   5.281   3.382   4.944
 5169TIP3   OH215447   1.700   7.337   0.852
 5169TIP3    H115448   1.607   7.337   0.829
 5169TIP3    H215449   1.714   7.250   0.891
 5170TIP3   OH215450   7.331   3.567   5.510
 5170TIP3    H115451   7.270   3.606   5.573
 5170TIP3    H215452   7.418   3.585   5.545
 5171TIP3   OH215453   6.142   1.903   2.323
 5171TIP3    H115454   6.173   1.955   2.397
 5171TIP3    H215455   6.218   1.899   2.264
 5172TIP3   OH215456   6.857   5.519   5.948
 5172TIP3    H115457   6.945   5.515   5.910
 5172TIP3    H215458   6.801   5.549   5.877
 5173TIP3   OH215459   0.753   6.885   1.633
 5173TIP3    H115460   0.753   6.832   1.712
 5173TIP3    H215461   0.761   6.822   1.561
 5174TIP3   OH215462   3.498   4.549   3.883
 5174TIP3    H115463   3.462   4.611   3.946
 5174TIP3    H215464   3.538   4.480   3.937
 5175TIP3   OH215465   0.623   0.739   6.011
 5175TIP3    H115466   0.599   0.656   5.971
 5175TIP3    H215467   0.700   0.718   6.064
 5176TIP3   OH215468   7.964   3.884   5.006
 5176TIP3    H115469   8.033   3.878   4.940
 5176TIP3    H215470   7.892   3.930   4.962
 5177TIP3   OH215471   2.555   6.338   0.842
 5177TIP3    H115472   2.501   6.417   0.838
 5177TIP3    H215473   2.645   6.370   0.842
 5178TIP3   OH215474   1.731   1.096   2.218
 5178TIP3    H115475   1.765   1.132   2.136
 5178TIP3    H215476   1.687   1.171   2.259
 5179TIP3   OH215477   6.040   2.048   0.154
 5179TIP3    H115478   6.035   2.101   0.075
 5179TIP3    H215479   5.964   2.075   0.206
 5180TIP3   OH215480   8.134   4.390   4.801
 5180TIP3    H115481   8.213   4.392   4.854
 5180TIP3    H215482   8.164   4.366   4.713
 5181TIP3   OH215483   6.878   7.802   6.046
 5181TIP3    H115484   6.871   7.729   6.107
 5181TIP3    H215485   6.958   7.784   5.997
 5182TIP3   OH215486   1.913   1.946   0.970
 5182TIP3    H115487   1.868   2.009   1.026
 5182TIP3    H215488   1.853   1.872   0.963
 5183TIP3   OH215489   1.677   3.259   5.337
 5183TIP3    H115490   1.600   3.229   5.289
 5183TIP3    H215491   1.672   3.355   5.331
 5184TIP3   OH215492   4.977   0.823   3.035
 5184TIP3    H115493   4.969   0.856   2.945
 5184TIP3    H215494   4.908   0.758   3.042
 5185TIP3   OH215495   6.137   4.963   2.354
 5185TIP3    H115496   6.149   4.896   2.421
 5185TIP3    H215497   6.080   5.028   2.394
 5186TIP3   OH215498   0.929   7.042   2.075
 5186TIP3    H115499   0.902   7.034   2.166
 5186TIP3    H215500   0.847   7.046   2.026
 5187TIP3   OH215501   4.639   6.186   2.479
 5187TIP3    H115502   4.599   6.159   2.562
 5187TIP3    H215503   4.599   6.270   2.459
 5188TIP3   OH215504   4.699   0.692   5.723
 5188TIP3    H115505   4.631   0.655   5.780
 5188TIP3    H215506   4.707   0.630   5.651
 5189TIP3   OH215507   4.606   5.067   1.795
 5189TIP3    H115508   4.540   5.010   1.833
 5189TIP3    H215509   4.685   5.012   1.789
 5190TIP3   OH215510   6.662   2.586   0.184
 5190TIP3    H115511   6.721   2.610   0.256
 5190TIP3    H215512   6.704   2.511   0.142
 5191TIP3   OH215513   1.424   0.985   5.650
 5191TIP3    H115514   1.514   1.013   5.632
 5191TIP3    H215515   1.423   0.966   5.744
 5192TIP3   OH215516   4.827   4.916   5.863
 5192TIP3    H115517   4.904   4.858   5.871
 5192TIP3    H215518   4.799   4.905   5.772
 5193TIP3   OH215519   8.010   6.942   5.274
 5193TIP3    H115520   8.018   6.896   5.191
 5193TIP3    H215521   8.045   6.882   5.339
 5194TIP3   OH215522   6.233   7.707   0.807
 5194TIP3    H115523   6.271   7.788   0.773
 5194TIP3    H215524   6.152   7.696   0.757
 5195TIP3   OH215525   5.814   1.440   6.778
 5195TIP3    H115526   5.735   1.490   6.756
 5195TIP3    H215527   5.809   1.362   6.723
 5196TIP3   OH215528   1.582   1.293   2.356
 5196TIP3    H115529   1.559   1.373   2.403
 5196TIP3    H215530   1.509   1.233   2.374
 5197TIP3   OH215531   5.195   6.707   6.565
 5197TIP3    H115532   5.117   6.678   6.517
 5197TIP3    H215533   5.210   6.638   6.629
 5198TIP3   OH215534   4.463   5.127   2.091
 5198TIP3    H115535   4.371   5.106   2.077
 5198TIP3    H215536   4.462   5.213   2.131
 5199TIP3   OH215537   7.827   7.509   0.323
 5199TIP3    H115538   7.790   7.423   0.345
 5199TIP3    H215539   7.796   7.567   0.393
 5200TIP3   OH215540   3.431   4.555   2.530
 5200TIP3    H115541   3.411   4.596   2.615
 5200TIP3    H215542   3.379   4.605   2.467
 5201TIP3   OH215543   6.802   3.291   6.124
 5201TIP3    H115544   6.848   3.217   6.084
 5201TIP3    H215545   6.757   3.253   6.200
 5202TIP3   OH215546   5.736   1.859   5.591
 5202TIP3    H115547   5.770   1.865   5.680
 5202TIP3    H215548   5.658   1.803   5.598
 5203TIP3   OH215549   3.942   6.540   5.693
 5203TIP3    H115550   3.882   6.468   5.673
 5203TIP3    H215551   3.886   6.617   5.702
 5204TIP3   OH215552   0.842   3.210   1.940
 5204TIP3    H115553   0.784   3.283   1.961
 5204TIP3    H215554   0.918   3.223   1.996
 5205TIP3   OH215555   0.556   6.925   6.775
 5205TIP3    H115556   0.599   7.006   6.800
 5205TIP3    H215557   0.532   6.884   6.858
 5206TIP3   OH215558   0.769   4.663   6.476
 5206TIP3    H115559   0.824   4.708   6.540
 5206TIP3    H215560   0.817   4.584   6.454
 5207TIP3   OH215561   3.509   4.449   5.362
 5207TIP3    H115562   3.494   4.446   5.456
 5207TIP3    H215563   3.433   4.406   5.324
 5208TIP3   OH215564   7.460   4.474   3.511
 5208TIP3    H115565   7.543   4.445   3.548
 5208TIP3    H215566   7.478   4.488   3.418
 5209TIP3   OH215567   0.266   5.727   6.364
 5209TIP3    H115568   0.188   5.678   6.335
 5209TIP3    H215569   0.231   5.809   6.398
 5210TIP3   OH215570   1.919   1.413   2.995
 5210TIP3    H115571   1.972   1.470   2.939
 5210TIP3    H215572   1.840   1.464   3.012
 5211TIP3   OH215573   7.754   5.363   5.822
 5211TIP3    H115574   7.826   5.300   5.826
 5211TIP3    H215575   7.701   5.334   5.748
 5212TIP3   OH215576   2.432   7.827   4.321
 5212TIP3    H115577   2.463   7.828   4.412
 5212TIP3    H215578   2.371   7.754   4.317
 5213TIP3   OH215579   4.764   7.413   5.355
 5213TIP3    H115580   4.845   7.392   5.403
 5213TIP3    H215581   4.708   7.455   5.420
 5214TIP3   OH215582   5.241   7.437   4.583
 5214TIP3    H115583   5.292   7.358   4.564
 5214TIP3    H215584   5.161   7.405   4.624
 5215TIP3   OH215585   7.579   3.874   6.587
 5215TIP3    H115586   7.642   3.841   6.523
 5215TIP3    H215587   7.601   3.966   6.598
 5216TIP3   OH215588   5.816   1.105   2.981
 5216TIP3    H115589   5.741   1.142   2.934
 5216TIP3    H215590   5.790   1.107   3.073
 5217TIP3   OH215591   5.915   6.108   5.923
 5217TIP3    H115592   5.897   6.049   5.996
 5217TIP3    H215593   5.828   6.130   5.889
 5218TIP3   OH215594   5.131   4.837   2.817
 5218TIP3    H115595   5.123   4.932   2.804
 5218TIP3    H215596   5.048   4.802   2.786
 5219TIP3   OH215597   3.578   3.173   3.795
 5219TIP3    H115598   3.670   3.176   3.819
 5219TIP3    H215599   3.578   3.147   3.702
 5220TIP3   OH215600   5.365   6.976   5.103
 5220TIP3    H115601   5.418   6.915   5.050
 5220TIP3    H215602   5.275   6.949   5.087
 5221TIP3   OH215603   4.189   0.744   5.905
 5221TIP3    H115604   4.101   0.763   5.938
 5221TIP3    H215605   4.179   0.662   5.856
 5222TIP3   OH215606   3.552   7.455   0.918
 5222TIP3    H115607   3.558   7.456   1.014
 5222TIP3    H215608   3.546   7.363   0.895
 5223TIP3   OH215609   7.342   1.812   3.366
 5223TIP3    H115610   7.352   1.825   3.272
 5223TIP3    H215611   7.384   1.888   3.406
 5224TIP3   OH215612   0.339   1.640   6.718
 5224TIP3    H115613   0.361   1.730   6.696
 5224TIP3    H215614   0.357   1.633   6.812
 5225TIP3   OH215615   6.803   6.166   4.127
 5225TIP3    H115616   6.804   6.254   4.090
 5225TIP3    H215617   6.720   6.129   4.098
 5226TIP3   OH215618   5.491   1.764   0.746
 5226TIP3    H115619   5.435   1.814   0.686
 5226TIP3    H215620   5.430   1.716   0.801
 5227TIP3   OH215621   4.356   6.849   2.457
 5227TIP3    H115622   4.336   6.898   2.536
 5227TIP3    H215623   4.448   6.823   2.468
 5228TIP3   OH215624   4.308   5.022   6.714
 5228TIP3    H115625   4.259   5.074   6.777
 5228TIP3    H215626   4.349   4.953   6.766
 5229TIP3   OH215627   5.434   3.457   4.306
 5229TIP3    H115628   5.422   3.540   4.260
 5229TIP3    H215629   5.413   3.478   4.397
 5230TIP3   OH215630   6.817   1.821   3.405
 5230TIP3    H115631   6.747   1.885   3.423
 5230TIP3    H215632   6.898   1.868   3.423
 5231TIP3   OH215633   7.281   7.007   0.478
 5231TIP3    H115634   7.243   7.023   0.392
 5231TIP3    H215635   7.369   6.975   0.460
 5232TIP3   OH215636   3.843   5.689   0.762
 5232TIP3    H115637   3.929   5.660   0.792
 5232TIP3    H215638   3.818   5.759   0.822
 5233TIP3   OH215639   5.581   2.232   4.246
 5233TIP3    H115640   5.579   2.253   4.153
 5233TIP3    H215641   5.604   2.314   4.289
 5234TIP3   OH215642   3.281   3.979   2.335
 5234TIP3    H115643   3.223   4.054   2.321
 5234TIP3    H215644   3.228   3.916   2.384
 5235TIP3   OH215645   3.337   1.623   6.733
 5235TIP3    H115646   3.325   1.531   6.710
 5235TIP3    H215647   3.295   1.632   6.819
 5236TIP3   OH215648   5.796   0.433   1.818
 5236TIP3    H115649   5.854   0.443   1.743
 5236TIP3    H215650   5.780   0.339   1.824
 5237TIP3   OH215651   5.831   0.868   1.254
 5237TIP3    H115652   5.741   0.855   1.226
 5237TIP3    H215653   5.824   0.912   1.339
 5238TIP3   OH215654   1.516   1.644   0.685
 5238TIP3    H115655   1.453   1.579   0.717
 5238TIP3    H215656   1.471   1.728   0.697
 5239TIP3   OH215657   7.973   3.352   1.958
 5239TIP3    H115658   8.019   3.383   1.880
 5239TIP3    H215659   7.910   3.287   1.924
 5240TIP3   OH215660   2.593   4.799   4.886
 5240TIP3    H115661   2.631   4.870   4.938
 5240TIP3    H215662   2.529   4.758   4.944
 5241TIP3   OH215663   4.800   0.227   2.976
 5241TIP3    H115664   4.840   0.289   3.037
 5241TIP3    H215665   4.826   0.258   2.890
 5242TIP3   OH215666   3.404   1.952   3.829
 5242TIP3    H115667   3.466   2.010   3.784
 5242TIP3    H215668   3.440   1.864   3.816
 5243TIP3   OH215669   3.773   3.510   1.698
 5243TIP3    H115670   3.786   3.603   1.718
 5243TIP3    H215671   3.769   3.507   1.602
 5244TIP3   OH215672   8.377   7.903   4.089
 5244TIP3    H115673   8.377   7.822   4.038
 5244TIP3    H215674   8.423   7.881   4.170
 5245TIP3   OH215675   5.954   1.512   6.254
 5245TIP3    H115676   5.927   1.566   6.329
 5245TIP3    H215677   6.032   1.466   6.285
 5246TIP3   OH215678   4.397   2.061   4.183
 5246TIP3    H115679   4.345   2.100   4.253
 5246TIP3    H215680   4.336   2.046   4.111
 5247TIP3   OH215681   3.104   6.979   2.688
 5247TIP3    H115682   3.066   7.044   2.629
 5247TIP3    H215683   3.080   7.010   2.776
 5248TIP3   OH215684   2.442   6.463   4.514
 5248TIP3    H115685   2.348   6.473   4.501
 5248TIP3    H215686   2.457   6.369   4.505
 5249TIP3   OH215687   6.798   2.482   1.000
 5249TIP3    H115688   6.792   2.571   1.035
 5249TIP3    H215689   6.716   2.441   1.027
 5250TIP3   OH215690   5.775   0.255   2.954
 5250TIP3    H115691   5.774   0.200   2.876
 5250TIP3    H215692   5.712   0.214   3.014
 5251TIP3   OH215693   7.150   1.667   3.166
 5251TIP3    H115694   7.211   1.599   3.138
 5251TIP3    H215695   7.141   1.654   3.261
 5252TIP3   OH215696   7.537   0.662   1.133
 5252TIP3    H115697   7.550   0.742   1.185
 5252TIP3    H215698   7.606   0.603   1.162
 5253TIP3   OH215699   2.743   2.306   5.997
 5253TIP3    H115700   2.837   2.293   6.012
 5253TIP3    H215701   2.733   2.302   5.902
 5254TIP3   OH215702   5.803   2.776   6.122
 5254TIP3    H115703   5.772   2.831   6.194
 5254TIP3    H215704   5.828   2.838   6.053
 5255TIP3   OH215705   7.245   4.921   5.773
 5255TIP3    H115706   7.154   4.947   5.760
 5255TIP3    H215707   7.287   4.934   5.688
 5256TIP3   OH215708   7.378   7.753   4.808
 5256TIP3    H115709   7.312   7.798   4.860
 5256TIP3    H215710   7.331   7.680   4.768
 5257TIP3   OH215711   0.434   1.060   1.889
 5257TIP3    H115712   0.353   1.060   1.941
 5257TIP3    H215713   0.480   0.981   1.915
 5258TIP3   OH215714   3.975   7.462   5.096
 5258TIP3    H115715   3.968   7.379   5.049
 5258TIP3    H215716   4.027   7.442   5.173
 5259TIP3   OH215717   0.359   7.184   6.764
 5259TIP3    H115718   0.443   7.227   6.746
 5259TIP3    H215719   0.377   7.127   6.838
 5260TIP3   OH215720   2.948   5.779   5.804
 5260TIP3    H115721   2.859   5.751   5.785
 5260TIP3    H215722   3.003   5.722   5.749
 5261TIP3   OH215723   1.527   5.628   6.717
 5261TIP3    H115724   1.585   5.590   6.651
 5261TIP3    H215725   1.440   5.628   6.676
 5262TIP3   OH215726   5.264   4.397   5.602
 5262TIP3    H115727   5.347   4.443   5.592
 5262TIP3    H215728   5.222   4.404   5.516
 5263TIP3   OH215729   4.309   2.421   0.384
 5263TIP3    H115730   4.374   2.492   0.380
 5263TIP3    H215731   4.273   2.417   0.296
 5264TIP3   OH215732   5.636   7.379   2.841
 5264TIP3    H115733   5.668   7.415   2.758
 5264TIP3    H215734   5.605   7.292   2.818
 5265TIP3   OH215735   6.228   7.186   4.106
 5265TIP3    H115736   6.154   7.137   4.141
 5265TIP3    H215737   6.305   7.136   4.135
 5266TIP3   OH215738   5.052   2.120   1.333
 5266TIP3    H115739   4.985   2.181   1.363
 5266TIP3    H215740   5.035   2.108   1.240
 5267TIP3   OH215741   7.907   1.252   6.158
 5267TIP3    H115742   7.847   1.233   6.230
 5267TIP3    H215743   7.854   1.244   6.079
 5268TIP3   OH215744   8.277   2.197   1.264
 5268TIP3    H115745   8.260   2.113   1.222
 5268TIP3    H215746   8.320   2.250   1.195
 5269TIP3   OH215747   0.153   0.286   5.443
 5269TIP3    H115748   0.195   0.262   5.361
 5269TIP3    H215749   0.166   0.381   5.450
 5270TIP3   OH215750   7.183   5.624   5.607
 5270TIP3    H115751   7.267   5.585   5.583
 5270TIP3    H215752   7.198   5.719   5.602
 5271TIP3   OH215753   1.440   6.329   1.736
 5271TIP3    H115754   1.435   6.358   1.828
 5271TIP3    H215755   1.370   6.264   1.728
 5272TIP3   OH215756   7.466   6.164   1.080
 5272TIP3    H115757   7.430   6.223   1.013
 5272TIP3    H215758   7.544   6.209   1.112
 5273TIP3   OH215759   7.860   3.358   4.580
 5273TIP3    H115760   7.802   3.433   4.573
 5273TIP3    H215761   7.921   3.368   4.507
 5274TIP3   OH215762   2.083   5.046   1.823
 5274TIP3    H115763   2.147   5.076   1.888
 5274TIP3    H215764   2.014   5.004   1.875
 5275TIP3   OH215765   7.988   7.721   0.962
 5275TIP3    H115766   7.943   7.803   0.985
 5275TIP3    H215767   8.079   7.737   0.986
 5276TIP3   OH215768   0.980   4.276   4.753
 5276TIP3    H115769   0.986   4.186   4.722
 5276TIP3    H215770   1.059   4.289   4.805
 5277TIP3   OH215771   5.013   1.720   5.112
 5277TIP3    H115772   4.943   1.782   5.131
 5277TIP3    H215773   5.093   1.767   5.134
 5278TIP3   OH215774   6.527   3.406   3.717
 5278TIP3    H115775   6.545   3.361   3.800
 5278TIP3    H215776   6.612   3.441   3.689
 5279TIP3   OH215777   0.012   6.697   6.619
 5279TIP3    H115778   0.054   6.673   6.537
 5279TIP3    H215779   0.048   6.783   6.640
 5280TIP3   OH215780   4.580   0.443   6.276
 5280TIP3    H115781   4.587   0.482   6.364
 5280TIP3    H215782   4.616   0.510   6.218
 5281TIP3   OH215783   7.575   6.873   5.569
 5281TIP3    H115784   7.593   6.783   5.594
 5281TIP3    H215785   7.612   6.881   5.481
 5282TIP3   OH215786   4.073   5.585   4.157
 5282TIP3    H115787   4.132   5.576   4.232
 5282TIP3    H215788   4.104   5.521   4.094
 5283TIP3   OH215789   5.373   3.396   0.256
 5283TIP3    H115790   5.339   3.373   0.343
 5283TIP3    H215791   5.467   3.379   0.262
 5284TIP3   OH215792   1.734   7.338   1.868
 5284TIP3    H115793   1.744   7.387   1.787
 5284TIP3    H215794   1.652   7.371   1.905
 5285TIP3   OH215795   5.752   0.678   3.216
 5285TIP3    H115796   5.694   0.723   3.154
 5285TIP3    H215797   5.784   0.748   3.274
 5286TIP3   OH215798   1.036   2.107   4.092
 5286TIP3    H115799   1.117   2.152   4.068
 5286TIP3    H215800   1.064   2.028   4.137
 5287TIP3   OH215801   5.664   3.761   4.334
 5287TIP3    H115802   5.719   3.696   4.379
 5287TIP3    H215803   5.629   3.815   4.405
 5288TIP3   OH215804   5.778   2.829   0.902
 5288TIP3    H115805   5.763   2.753   0.846
 5288TIP3    H215806   5.768   2.904   0.844
 5289TIP3   OH215807   5.664   2.792   5.822
 5289TIP3    H115808   5.578   2.825   5.795
 5289TIP3    H215809   5.668   2.810   5.916
 5290TIP3   OH215810   3.828   1.171   5.417
 5290TIP3    H115811   3.783   1.092   5.386
 5290TIP3    H215812   3.757   1.234   5.433
 5291TIP3   OH215813   8.048   3.507   4.819
 5291TIP3    H115814   7.990   3.576   4.787
 5291TIP3    H215815   8.090   3.471   4.740
 5292TIP3   OH215816   7.749   6.725   1.513
 5292TIP3    H115817   7.841   6.736   1.487
 5292TIP3    H215818   7.741   6.774   1.595
 5293TIP3   OH215819   6.163   3.310   1.145
 5293TIP3    H115820   6.203   3.395   1.162
 5293TIP3    H215821   6.234   3.257   1.108
 5294TIP3   OH215822   7.661   7.893   3.072
 5294TIP3    H115823   7.586   7.905   3.131
 5294TIP3    H215824   7.732   7.942   3.113
 5295TIP3   OH215825   6.825   7.817   6.473
 5295TIP3    H115826   6.745   7.764   6.479
 5295TIP3    H215827   6.889   7.759   6.431
 5296TIP3   OH215828   1.368   3.265   1.436
 5296TIP3    H115829   1.354   3.294   1.346
 5296TIP3    H215830   1.446   3.209   1.431
 5297TIP3   OH215831   5.535   0.359   5.517
 5297TIP3    H115832   5.453   0.394   5.484
 5297TIP3    H215833   5.512   0.315   5.598
 5298TIP3   OH215834   4.300   1.164   3.696
 5298TIP3    H115835   4.313   1.208   3.612
 5298TIP3    H215836   4.292   1.071   3.673
 5299TIP3   OH215837   2.938   3.786   5.118
 5299TIP3    H115838   2.911   3.695   5.116
 5299TIP3    H215839   2.952   3.805   5.211
 5300TIP3   OH215840   4.099   6.876   1.727
 5300TIP3    H115841   4.091   6.898   1.634
 5300TIP3    H215842   4.141   6.790   1.728
 5301TIP3   OH215843   2.161   6.018   4.882
 5301TIP3    H115844   2.232   6.024   4.818
 5301TIP3    H215845   2.090   5.973   4.835
 5302TIP3   OH215846   5.161   2.524   2.692
 5302TIP3    H115847   5.195   2.435   2.693
 5302TIP3    H215848   5.137   2.539   2.600
 5303TIP3   OH215849   0.147   5.199   4.167
 5303TIP3    H115850   0.116   5.287   4.149
 5303TIP3    H215851   0.077   5.158   4.218
 5304TIP3   OH215852   2.612   6.323   6.342
 5304TIP3    H115853   2.533   6.342   6.292
 5304TIP3    H215854   2.612   6.389   6.412
 5305TIP3   OH215855   6.416   6.113   5.112
 5305TIP3    H115856   6.349   6.177   5.137
 5305TIP3    H215857   6.367   6.033   5.093
 5306TIP3   OH215858   2.912   5.198   4.630
 5306TIP3    H115859   2.838   5.210   4.571
 5306TIP3    H215860   2.882   5.234   4.714
 5307TIP3   OH215861   6.031   1.385   1.405
 5307TIP3    H115862   6.020   1.304   1.357
 5307TIP3    H215863   5.951   1.435   1.386
 5308TIP3   OH215864   5.014   7.291   1.144
 5308TIP3    H115865   5.017   7.299   1.048
 5308TIP3    H215866   5.067   7.214   1.163
 5309TIP3   OH215867   4.017   1.012   1.348
 5309TIP3    H115868   3.946   1.075   1.335
 5309TIP3    H215869   4.034   0.977   1.261
 5310TIP3   OH215870   7.832   1.469   6.429
 5310TIP3    H115871   7.921   1.455   6.462
 5310TIP3    H215872   7.804   1.383   6.397
 5311TIP3   OH215873   0.518   5.875   5.016
 5311TIP3    H115874   0.576   5.807   4.985
 5311TIP3    H215875   0.572   5.954   5.022
 5312TIP3   OH215876   5.783   5.278   2.182
 5312TIP3    H115877   5.692   5.304   2.167
 5312TIP3    H215878   5.813   5.334   2.253
 5313TIP3   OH215879   0.905   3.986   5.870
 5313TIP3    H115880   0.986   4.036   5.878
 5313TIP3    H215881   0.933   3.899   5.842
 5314TIP3   OH215882   3.202   4.563   5.709
 5314TIP3    H115883   3.288   4.535   5.741
 5314TIP3    H215884   3.160   4.481   5.681
 5315TIP3   OH215885   1.914   5.608   6.840
 5315TIP3    H115886   1.867   5.592   6.758
 5315TIP3    H215887   1.857   5.573   6.908
 5316TIP3   OH215888   2.380   1.896   3.991
 5316TIP3    H115889   2.286   1.904   4.006
 5316TIP3    H215890   2.387   1.866   3.900
 5317TIP3   OH215891   5.499   4.953   2.023
 5317TIP3    H115892   5.511   5.018   2.091
 5317TIP3    H215893   5.570   4.970   1.961
 5318TIP3   OH215894   7.081   7.610   5.726
 5318TIP3    H115895   7.108   7.673   5.792
 5318TIP3    H215896   7.104   7.650   5.643
 5319TIP3   OH215897   0.699   6.788   0.728
 5319TIP3    H115898   0.728   6.879   0.717
 5319TIP3    H215899   0.647   6.790   0.809
 5320TIP3   OH215900   4.678   1.537   0.394
 5320TIP3    H115901   4.616   1.475   0.432
 5320TIP3    H215902   4.630   1.577   0.321
 5321TIP3   OH215903   5.914   0.695   5.675
 5321TIP3    H115904   5.914   0.601   5.655
 5321TIP3    H215905   5.923   0.737   5.589
 5322TIP3   OH215906   7.307   2.348   3.223
 5322TIP3    H115907   7.270   2.285   3.162
 5322TIP3    H215908   7.246   2.421   3.223
 5323TIP3   OH215909   8.156   5.440   0.828
 5323TIP3    H115910   8.131   5.470   0.915
 5323TIP3    H215911   8.096   5.485   0.769
 5324TIP3   OH215912   5.800   5.624   6.436
 5324TIP3    H115913   5.808   5.626   6.531
 5324TIP3    H215914   5.793   5.715   6.410
 5325TIP3   OH215915   3.184   0.442   3.604
 5325TIP3    H115916   3.135   0.511   3.649
 5325TIP3    H215917   3.253   0.417   3.666
 5326TIP3   OH215918   6.382   4.104   0.845
 5326TIP3    H115919   6.296   4.064   0.855
 5326TIP3    H215920   6.381   4.142   0.757
 5327TIP3   OH215921   3.088   4.365   6.595
 5327TIP3    H115922   3.139   4.446   6.598
 5327TIP3    H215923   3.146   4.298   6.632
 5328TIP3   OH215924   1.139   1.875   4.784
 5328TIP3    H115925   1.075   1.813   4.817
 5328TIP3    H215926   1.175   1.916   4.863
 5329TIP3   OH215927   1.885   2.148   0.788
 5329TIP3    H115928   1.898   2.063   0.828
 5329TIP3    H215929   1.841   2.201   0.855
 5330TIP3   OH215930   7.824   3.045   0.160
 5330TIP3    H115931   7.835   3.038   0.254
 5330TIP3    H215932   7.843   3.137   0.140
 5331TIP3   OH215933   7.869   3.979   0.653
 5331TIP3    H115934   7.942   3.922   0.677
 5331TIP3    H215935   7.829   4.002   0.737
 5332TIP3   OH215936   1.118   5.666   4.909
 5332TIP3    H115937   1.207   5.696   4.928
 5332TIP3    H215938   1.090   5.718   4.835
 5333TIP3   OH215939   7.708   7.734   6.534
 5333TIP3    H115940   7.775   7.772   6.591
 5333TIP3    H215941   7.747   7.652   6.504
 5334TIP3   OH215942   7.979   2.232   0.773
 5334TIP3    H115943   8.022   2.213   0.856
 5334TIP3    H215944   7.930   2.312   0.788
 5335TIP3   OH215945   0.824   1.222   2.082
 5335TIP3    H115946   0.764   1.206   2.009
 5335TIP3    H215947   0.791   1.168   2.154
 5336TIP3   OH215948   3.991   7.943   4.510
 5336TIP3    H115949   4.006   7.850   4.492
 5336TIP3    H215950   3.896   7.951   4.518
 5337TIP3   OH215951   6.301   5.023   3.765
 5337TIP3    H115952   6.251   5.102   3.784
 5337TIP3    H215953   6.373   5.053   3.710
 5338TIP3   OH215954   1.697   2.265   3.155
 5338TIP3    H115955   1.677   2.313   3.075
 5338TIP3    H215956   1.650   2.182   3.146
 5339TIP3   OH215957   1.576   0.857   4.010
 5339TIP3    H115958   1.562   0.765   4.033
 5339TIP3    H215959   1.506   0.904   4.055
 5340TIP3   OH215960   5.360   3.638   3.067
 5340TIP3    H115961   5.313   3.557   3.046
 5340TIP3    H215962   5.379   3.677   2.982
 5341TIP3   OH215963   1.620   6.584   0.571
 5341TIP3    H115964   1.602   6.661   0.518
 5341TIP3    H215965   1.714   6.568   0.559
 5342TIP3   OH215966   6.498   5.196   2.849
 5342TIP3    H115967   6.511   5.280   2.892
 5342TIP3    H215968   6.456   5.217   2.765
 5343TIP3   OH215969   4.920   0.260   2.469
 5343TIP3    H115970   4.933   0.223   2.382
 5343TIP3    H215971   4.900   0.353   2.453
 5344TIP3   OH215972   7.895   7.226   2.756
 5344TIP3    H115973   7.990   7.224   2.764
 5344TIP3    H215974   7.868   7.134   2.765
 5345TIP3   OH215975   0.344   0.032   3.398
 5345TIP3    H115976   0.413   0.090   3.431
 5345TIP3    H215977   0.300   0.083   3.330
 5346TIP3   OH215978   5.984   7.105   1.537
 5346TIP3    H115979   5.893   7.094   1.565
 5346TIP3    H215980   5.993   7.199   1.523
 5347TIP3   OH215981   7.217   3.897   4.972
 5347TIP3    H115982   7.300   3.933   4.938
 5347TIP3    H215983   7.237   3.806   4.992
 5348TIP3   OH215984   3.693   4.605   2.147
 5348TIP3    H115985   3.644   4.554   2.212
 5348TIP3    H215986   3.754   4.658   2.199
 5349TIP3   OH215987   6.116   4.253   0.983
 5349TIP3    H115988   6.021   4.246   0.975
 5349TIP3    H215989   6.144   4.168   1.017
 5350TIP3   OH215990   3.310   2.942   5.525
 5350TIP3    H115991   3.376   2.949   5.457
 5350TIP3    H215992   3.298   2.847   5.537
 5351TIP3   OH215993   5.175   3.478   5.238
 5351TIP3    H115994   5.083   3.462   5.258
 5351TIP3    H215995   5.199   3.409   5.177
 5352TIP3   OH215996   7.992   5.869   2.643
 5352TIP3    H115997   8.055   5.938   2.665
 5352TIP3    H215998   7.980   5.821   2.726
 5353TIP3   OH215999   1.318   2.174   4.309
 5353TIP3    H116000   1.242   2.162   4.366
 5353TIP3    H216001   1.290   2.139   4.224
 5354TIP3   OH216002   8.264   3.801   3.763
 5354TIP3    H116003   8.180   3.786   3.721
 5354TIP3    H216004   8.299   3.713   3.779
 5355TIP3   OH216005   2.811   2.740   4.947
 5355TIP3    H116006   2.792   2.651   4.977
 5355TIP3    H216007   2.753   2.754   4.872
 5356TIP3   OH216008   4.097   4.563   1.461
 5356TIP3    H116009   4.111   4.473   1.432
 5356TIP3    H216010   4.167   4.581   1.523
 5357TIP3   OH216011   6.020   7.746   5.395
 5357TIP3    H116012   5.967   7.764   5.473
 5357TIP3    H216013   6.107   7.778   5.417
 5358TIP3   OH216014   4.755   3.649   2.161
 5358TIP3    H116015   4.734   3.579   2.100
 5358TIP3    H216016   4.669   3.682   2.189
 5359TIP3   OH216017   0.720   4.534   0.156
 5359TIP3    H116018   0.783   4.551   0.086
 5359TIP3    H216019   0.773   4.524   0.235
 5360TIP3   OH216020   4.965   3.626   1.057
 5360TIP3    H116021   4.998   3.707   1.096
 5360TIP3    H216022   4.938   3.650   0.969
 5361TIP3   OH216023   2.930   2.015   2.838
 5361TIP3    H116024   3.024   2.033   2.830
 5361TIP3    H216025   2.894   2.092   2.881
 5362TIP3   OH216026   3.848   4.184   3.502
 5362TIP3    H116027   3.834   4.237   3.424
 5362TIP3    H216028   3.876   4.099   3.468
 5363TIP3   OH216029   7.985   6.919   4.455
 5363TIP3    H116030   8.060   6.972   4.427
 5363TIP3    H216031   7.909   6.973   4.437
 5364TIP3   OH216032   1.773   0.535   4.243
 5364TIP3    H116033   1.789   0.448   4.208
 5364TIP3    H216034   1.708   0.573   4.184
 5365TIP3   OH216035   4.218   4.692   6.183
 5365TIP3    H116036   4.215   4.787   6.169
 5365TIP3    H216037   4.310   4.673   6.198
 5366TIP3   OH216038   4.364   4.811   0.060
 5366TIP3    H116039   4.280   4.780   0.094
 5366TIP3    H216040   4.379   4.759  -0.019
 5367TIP3   OH216041   5.866   6.435   3.365
 5367TIP3    H116042   5.886   6.345   3.392
 5367TIP3    H216043   5.778   6.430   3.328
 5368TIP3   OH216044   6.662   4.250   4.565
 5368TIP3    H116045   6.595   4.315   4.543
 5368TIP3    H216046   6.732   4.265   4.501
 5369TIP3   OH216047   1.632   6.550   5.061
 5369TIP3    H116048   1.646   6.637   5.099
 5369TIP3    H216049   1.714   6.503   5.077
 5370TIP3   OH216050   2.830   7.516   2.769
 5370TIP3    H116051   2.881   7.544   2.694
 5370TIP3    H216052   2.742   7.498   2.735
 5371TIP3   OH216053   7.304   4.258   1.043
 5371TIP3    H116054   7.305   4.206   0.962
 5371TIP3    H216055   7.377   4.320   1.032
 5372TIP3   OH216056   6.286   3.153   2.645
 5372TIP3    H116057   6.225   3.227   2.644
 5372TIP3    H216058   6.310   3.139   2.553
 5373TIP3   OH216059   1.000   2.938   2.738
 5373TIP3    H116060   0.922   2.982   2.770
 5373TIP3    H216061   1.071   3.000   2.754
 5374TIP3   OH216062   1.174   6.760   0.881
 5374TIP3    H116063   1.225   6.684   0.851
 5374TIP3    H216064   1.087   6.725   0.897
 5375TIP3   OH216065   3.838   1.988   1.633
 5375TIP3    H116066   3.832   1.892   1.631
 5375TIP3    H216067   3.748   2.017   1.647
 5376TIP3   OH216068   5.251   5.030   0.484
 5376TIP3    H116069   5.189   4.980   0.537
 5376TIP3    H216070   5.338   5.001   0.514
 5377TIP3   OH216071   3.531   3.823   0.186
 5377TIP3    H116072   3.570   3.829   0.099
 5377TIP3    H216073   3.446   3.867   0.177
 5378TIP3   OH216074   3.967   0.841   4.976
 5378TIP3    H116075   3.937   0.753   4.950
 5378TIP3    H216076   4.057   0.846   4.945
 5379TIP3   OH216077   3.773   1.506   4.197
 5379TIP3    H116078   3.750   1.539   4.110
 5379TIP3    H216079   3.818   1.423   4.180
 5380TIP3   OH216080   6.266   1.916   6.595
 5380TIP3    H116081   6.314   1.995   6.621
 5380TIP3    H216082   6.174   1.943   6.595
 5381TIP3   OH216083   1.350   2.263   0.745
 5381TIP3    H116084   1.260   2.231   0.741
 5381TIP3    H216085   1.346   2.351   0.708
 5382TIP3   OH216086   2.654   0.702   3.865
 5382TIP3    H116087   2.692   0.650   3.794
 5382TIP3    H216088   2.569   0.730   3.831
 5383TIP3   OH216089   6.353   3.466   5.010
 5383TIP3    H116090   6.397   3.545   5.040
 5383TIP3    H216091   6.415   3.396   5.029
 5384TIP3   OH216092   6.080   4.438   0.730
 5384TIP3    H116093   6.068   4.353   0.686
 5384TIP3    H216094   6.104   4.414   0.820
 5385TIP3   OH216095   1.350   6.568   2.504
 5385TIP3    H116096   1.418   6.501   2.506
 5385TIP3    H216097   1.393   6.647   2.535
 5386TIP3   OH216098   5.970   1.590   1.800
 5386TIP3    H116099   5.967   1.682   1.775
 5386TIP3    H216100   5.946   1.542   1.721
 5387TIP3   OH216101   0.880   5.474   0.438
 5387TIP3    H116102   0.818   5.544   0.461
 5387TIP3    H216103   0.965   5.517   0.438
 5388TIP3   OH216104   4.385   7.456   5.416
 5388TIP3    H116105   4.348   7.542   5.434
 5388TIP3    H216106   4.472   7.459   5.456
 5389TIP3   OH216107   0.743   2.444   5.896
 5389TIP3    H116108   0.661   2.485   5.868
 5389TIP3    H216109   0.757   2.373   5.833
 5390TIP3   OH216110   7.829   5.510   6.207
 5390TIP3    H116111   7.910   5.504   6.158
 5390TIP3    H216112   7.761   5.523   6.140
 5391TIP3   OH216113   1.752   6.792   5.916
 5391TIP3    H116114   1.769   6.751   5.831
 5391TIP3    H216115   1.827   6.769   5.970
 5392TIP3   OH216116   6.138   5.886   4.605
 5392TIP3    H116117   6.098   5.827   4.541
 5392TIP3    H216118   6.226   5.850   4.619
 5393TIP3   OH216119   3.449   1.451   5.635
 5393TIP3    H116120   3.474   1.521   5.695
 5393TIP3    H216121   3.361   1.425   5.663
 5394TIP3   OH216122   4.710   2.390   3.414
 5394TIP3    H116123   4.678   2.398   3.324
 5394TIP3    H216124   4.756   2.472   3.431
 5395TIP3   OH216125   1.255   4.314   2.067
 5395TIP3    H116126   1.281   4.222   2.075
 5395TIP3    H216127   1.172   4.311   2.020
 5396TIP3   OH216128   2.981   3.930   0.158
 5396TIP3    H116129   2.971   4.026   0.158
 5396TIP3    H216130   2.998   3.908   0.067
 5397TIP3   OH216131   5.177   5.512   6.026
 5397TIP3    H116132   5.192   5.418   6.021
 5397TIP3    H216133   5.225   5.540   6.105
 5398TIP3   OH216134   4.569   0.447   5.927
 5398TIP3    H116135   4.504   0.484   5.867
 5398TIP3    H216136   4.582   0.515   5.994
 5399TIP3   OH216137   5.264   6.131   3.805
 5399TIP3    H116138   5.350   6.092   3.825
 5399TIP3    H216139   5.227   6.074   3.738
 5400TIP3   OH216140   3.666   4.323   1.794
 5400TIP3    H116141   3.739   4.276   1.834
 5400TIP3    H216142   3.690   4.330   1.702
 5401TIP3   OH216143   7.445   5.505   5.553
 5401TIP3    H116144   7.481   5.493   5.465
 5401TIP3    H216145   7.463   5.423   5.599
 5402TIP3   OH216146   1.126   5.396   1.179
 5402TIP3    H116147   1.034   5.422   1.192
 5402TIP3    H216148   1.166   5.471   1.135
 5403TIP3   OH216149   3.350   3.781   3.052
 5403TIP3    H116150   3.266   3.824   3.067
 5403TIP3    H216151   3.409   3.851   3.026
 5404TIP3   OH216152   5.310   2.706   2.997
 5404TIP3    H116153   5.400   2.701   3.030
 5404TIP3    H216154   5.320   2.732   2.906
 5405TIP3   OH216155   4.484   4.531   0.744
 5405TIP3    H116156   4.412   4.593   0.734
 5405TIP3    H216157   4.558   4.574   0.701
 5406TIP3   OH216158   5.427   7.008   4.079
 5406TIP3    H116159   5.359   7.073   4.098
 5406TIP3    H216160   5.438   6.960   4.161
 5407TIP3   OH216161   4.601   0.830   2.772
 5407TIP3    H116162   4.582   0.921   2.749
 5407TIP3    H216163   4.657   0.836   2.849
 5408TIP3   OH216164   0.807   7.672   1.672
 5408TIP3    H116165   0.725   7.719   1.656
 5408TIP3    H216166   0.784   7.603   1.734
 5409TIP3   OH216167   0.698   5.033   6.702
 5409TIP3    H116168   0.604   5.050   6.715
 5409TIP3    H216169   0.731   5.114   6.664
 5410TIP3   OH216170   3.616   5.227   2.850
 5410TIP3    H116171   3.579   5.174   2.921
 5410TIP3    H216172   3.644   5.163   2.785
 5411TIP3   OH216173   3.069   2.493   4.946
 5411TIP3    H116174   2.999   2.468   4.886
 5411TIP3    H216175   3.093   2.411   4.990
 5412TIP3   OH216176   1.287   2.560   0.177
 5412TIP3    H116177   1.193   2.557   0.158
 5412TIP3    H216178   1.328   2.570   0.091
 5413TIP3   OH216179   4.202   2.591   0.142
 5413TIP3    H116180   4.286   2.627   0.169
 5413TIP3    H216181   4.210   2.578   0.047
 5414TIP3   OH216182   5.088   2.897   5.579
 5414TIP3    H116183   5.094   2.977   5.633
 5414TIP3    H216184   5.106   2.927   5.490
 5415TIP3   OH216185   1.150   3.066   3.853
 5415TIP3    H116186   1.092   3.120   3.906
 5415TIP3    H216187   1.225   3.123   3.833
 5416TIP3   OH216188   0.825   4.894   5.814
 5416TIP3    H116189   0.746   4.936   5.848
 5416TIP3    H216190   0.794   4.833   5.748
 5417TIP3   OH216191   8.168   7.816   4.817
 5417TIP3    H116192   8.101   7.769   4.767
 5417TIP3    H216193   8.170   7.772   4.902
 5418TIP3   OH216194   3.292   7.438   4.357
 5418TIP3    H116195   3.352   7.372   4.391
 5418TIP3    H216196   3.205   7.403   4.373
 5419TIP3   OH216197   0.502   0.549   2.830
 5419TIP3    H116198   0.498   0.506   2.915
 5419TIP3    H216199   0.595   0.550   2.807
 5420TIP3   OH216200   6.030   2.526   4.296
 5420TIP3    H116201   6.002   2.561   4.211
 5420TIP3    H216202   6.112   2.481   4.276
 5421TIP3   OH216203   0.984   5.793   6.142
 5421TIP3    H116204   0.987   5.869   6.200
 5421TIP3    H216205   1.062   5.801   6.088
 5422TIP3   OH216206   4.300   5.577   6.803
 5422TIP3    H116207   4.368   5.641   6.827
 5422TIP3    H216208   4.339   5.492   6.824
 5423TIP3   OH216209   3.127   4.737   6.468
 5423TIP3    H116210   3.208   4.775   6.501
 5423TIP3    H216211   3.112   4.782   6.384
 5424TIP3   OH216212   1.435   0.780   3.755
 5424TIP3    H116213   1.402   0.853   3.703
 5424TIP3    H216214   1.467   0.819   3.835
 5425TIP3   OH216215   2.176   5.763   3.018
 5425TIP3    H116216   2.171   5.680   2.970
 5425TIP3    H216217   2.188   5.736   3.110
 5426TIP3   OH216218   0.860   4.201   6.543
 5426TIP3    H116219   0.888   4.163   6.459
 5426TIP3    H216220   0.829   4.289   6.521
 5427TIP3   OH216221   7.741   7.491   5.700
 5427TIP3    H116222   7.803   7.509   5.771
 5427TIP3    H216223   7.773   7.544   5.627
 5428TIP3   OH216224   1.160   5.210   3.217
 5428TIP3    H116225   1.125   5.282   3.165
 5428TIP3    H216226   1.251   5.201   3.188
 5429TIP3   OH216227   5.071   7.392   2.916
 5429TIP3    H116228   5.165   7.389   2.935
 5429TIP3    H216229   5.053   7.484   2.896
 5430TIP3   OH216230   7.237   3.682   3.232
 5430TIP3    H116231   7.254   3.652   3.321
 5430TIP3    H216232   7.306   3.641   3.179
 5431TIP3   OH216233   8.190   6.158   6.599
 5431TIP3    H116234   8.169   6.175   6.508
 5431TIP3    H216235   8.138   6.221   6.649
 5432TIP3   OH216236   4.147   4.143   2.487
 5432TIP3    H116237   4.231   4.116   2.525
 5432TIP3    H216238   4.091   4.159   2.563
 5433TIP3   OH216239   7.267   0.348   0.817
 5433TIP3    H116240   7.228   0.366   0.732
 5433TIP3    H216241   7.329   0.420   0.831
 5434TIP3   OH216242   1.342   7.230   0.253
 5434TIP3    H116243   1.408   7.218   0.185
 5434TIP3    H216244   1.287   7.152   0.247
 5435TIP3   OH216245   4.009   5.614   6.433
 5435TIP3    H116246   3.956   5.669   6.490
 5435TIP3    H216247   4.100   5.638   6.455
 5436TIP3   OH216248   0.744   2.452   5.442
 5436TIP3    H116249   0.786   2.370   5.466
 5436TIP3    H216250   0.665   2.425   5.394
 5437TIP3   OH216251   0.212   6.187   5.843
 5437TIP3    H116252   0.285   6.228   5.795
 5437TIP3    H216253   0.197   6.104   5.797
 5438TIP3   OH216254   0.086   6.515   4.102
 5438TIP3    H116255   0.100   6.608   4.119
 5438TIP3    H216256   0.172   6.475   4.110
 5439TIP3   OH216257   6.137   4.938   5.861
 5439TIP3    H116258   6.218   4.979   5.828
 5439TIP3    H216259   6.069   4.965   5.800
 5440TIP3   OH216260   8.125   1.344   6.473
 5440TIP3    H116261   8.212   1.331   6.435
 5440TIP3    H216262   8.087   1.256   6.477
 5441TIP3   OH216263   5.741   0.285   6.112
 5441TIP3    H116264   5.646   0.301   6.114
 5441TIP3    H216265   5.769   0.291   6.203
 5442TIP3   OH216266   1.567   2.889   4.832
 5442TIP3    H116267   1.521   2.918   4.753
 5442TIP3    H216268   1.497   2.873   4.895
 5443TIP3   OH216269   6.429   5.350   1.685
 5443TIP3    H116270   6.420   5.259   1.659
 5443TIP3    H216271   6.499   5.349   1.751
 5444TIP3   OH216272   0.936   0.385   0.936
 5444TIP3    H116273   0.963   0.420   0.851
 5444TIP3    H216274   1.018   0.360   0.978
 5445TIP3   OH216275   7.045   0.761   4.166
 5445TIP3    H116276   7.093   0.770   4.084
 5445TIP3    H216277   7.060   0.670   4.193
 5446TIP3   OH216278   5.123   1.394   3.887
 5446TIP3    H116279   5.188   1.357   3.947
 5446TIP3    H216280   5.139   1.488   3.889
 5447TIP3   OH216281   0.275   4.267   4.239
 5447TIP3    H116282   0.330   4.339   4.268
 5447TIP3    H216283   0.200   4.308   4.197
 5448TIP3   OH216284   7.244   0.651   0.273
 5448TIP3    H116285   7.152   0.664   0.296
 5448TIP3    H216286   7.249   0.560   0.243
 5449TIP3   OH216287   6.735   1.471   1.892
 5449TIP3    H116288   6.649   1.502   1.920
 5449TIP3    H216289   6.798   1.529   1.936
 5450TIP3   OH216290   2.429   7.499   1.448
 5450TIP3    H116291   2.419   7.552   1.369
 5450TIP3    H216292   2.512   7.529   1.486
 5451TIP3   OH216293   0.637   5.864   6.186
 5451TIP3    H116294   0.694   5.822   6.122
 5451TIP3    H216295   0.572   5.797   6.208
 5452TIP3   OH216296   2.639   6.714   0.916
 5452TIP3    H116297   2.567   6.774   0.934
 5452TIP3    H216298   2.628   6.643   0.978
 5453TIP3   OH216299   4.676   3.823   1.923
 5453TIP3    H116300   4.770   3.814   1.912
 5453TIP3    H216301   4.666   3.883   1.997
 5454TIP3   OH216302   5.869   4.956   0.925
 5454TIP3    H116303   5.895   4.872   0.887
 5454TIP3    H216304   5.802   4.934   0.989
 5455TIP3   OH216305   2.569   1.973   3.016
 5455TIP3    H116306   2.585   2.068   3.021
 5455TIP3    H216307   2.586   1.952   2.924
 5456TIP3   OH216308   4.284   3.537   6.468
 5456TIP3    H116309   4.336   3.599   6.519
 5456TIP3    H216310   4.207   3.587   6.440
 5457TIP3   OH216311   3.202   1.059   6.509
 5457TIP3    H116312   3.183   1.147   6.477
 5457TIP3    H216313   3.118   1.014   6.506
 5458TIP3   OH216314   2.823   6.240   1.074
 5458TIP3    H116315   2.742   6.206   1.036
 5458TIP3    H216316   2.869   6.281   1.000
 5459TIP3   OH216317   4.149   6.349   1.608
 5459TIP3    H116318   4.070   6.380   1.564
 5459TIP3    H216319   4.133   6.365   1.701
 5460TIP3   OH216320   4.310   2.075   3.948
 5460TIP3    H116321   4.323   2.164   3.915
 5460TIP3    H216322   4.216   2.059   3.937
 5461TIP3   OH216323   5.924   6.498   5.556
 5461TIP3    H116324   5.914   6.443   5.479
 5461TIP3    H216325   5.836   6.501   5.594
 5462TIP3   OH216326   3.701   0.555   3.149
 5462TIP3    H116327   3.663   0.616   3.085
 5462TIP3    H216328   3.779   0.521   3.105
 5463TIP3   OH216329   1.750   5.723   2.409
 5463TIP3    H116330   1.778   5.789   2.346
 5463TIP3    H216331   1.830   5.693   2.451
 5464TIP3   OH216332   1.174   6.646   4.664
 5464TIP3    H116333   1.124   6.700   4.603
 5464TIP3    H216334   1.191   6.703   4.739
 5465TIP3   OH216335   2.706   3.713   4.671
 5465TIP3    H116336   2.746   3.627   4.681
 5465TIP3    H216337   2.766   3.761   4.614
 5466TIP3   OH216338   6.912   6.742   4.484
 5466TIP3    H116339   6.820   6.720   4.466
 5466TIP3    H216340   6.923   6.724   4.577
 5467TIP3   OH216341   2.976   1.101   0.974
 5467TIP3    H116342   2.942   1.142   1.053
 5467TIP3    H216343   3.054   1.151   0.951
 5468TIP3   OH216344   6.533   3.990   3.319
 5468TIP3    H116345   6.523   3.937   3.398
 5468TIP3    H216346   6.585   3.935   3.260
 5469TIP3   OH216347   3.465   0.234   1.916
 5469TIP3    H116348   3.494   0.143   1.904
 5469TIP3    H216349   3.376   0.235   1.881
 5470TIP3   OH216350   6.459   0.524   2.705
 5470TIP3    H116351   6.384   0.477   2.670
 5470TIP3    H216352   6.444   0.615   2.680
 5471TIP3   OH216353   3.889   7.010   5.556
 5471TIP3    H116354   3.816   6.951   5.538
 5471TIP3    H216355   3.936   7.016   5.472
 5472TIP3   OH216356   1.753   1.657   5.000
 5472TIP3    H116357   1.825   1.593   5.001
 5472TIP3    H216358   1.795   1.740   5.023
 5473TIP3   OH216359   6.429   0.773   2.627
 5473TIP3    H116360   6.508   0.827   2.622
 5473TIP3    H216361   6.375   0.801   2.553
 5474TIP3   OH216362   5.545   1.580   1.529
 5474TIP3    H116363   5.578   1.496   1.498
 5474TIP3    H216364   5.488   1.611   1.459
 5475TIP3   OH216365   3.316   6.057   3.767
 5475TIP3    H116366   3.334   6.138   3.815
 5475TIP3    H216367   3.362   5.989   3.817
 5476TIP3   OH216368   6.535   2.847   3.609
 5476TIP3    H116369   6.540   2.883   3.520
 5476TIP3    H216370   6.478   2.909   3.656
 5477TIP3   OH216371   0.946   1.436   6.626
 5477TIP3    H116372   0.943   1.530   6.609
 5477TIP3    H216373   0.862   1.416   6.668
 5478TIP3   OH216374   3.335   5.487   1.856
 5478TIP3    H116375   3.288   5.566   1.831
 5478TIP3    H216376   3.390   5.514   1.930
 5479TIP3   OH216377   2.578   6.236   2.051
 5479TIP3    H116378   2.667   6.204   2.040
 5479TIP3    H216379   2.528   6.194   1.980
 5480TIP3   OH216380   3.075   1.342   3.184
 5480TIP3    H116381   3.042   1.432   3.178
 5480TIP3    H216382   3.005   1.288   3.148
 5481TIP3   OH216383   8.155   2.029   5.671
 5481TIP3    H116384   8.133   1.947   5.716
 5481TIP3    H216385   8.083   2.089   5.694
 5482TIP3   OH216386   1.565   4.277   5.228
 5482TIP3    H116387   1.624   4.227   5.171
 5482TIP3    H216388   1.592   4.368   5.216
 5483TIP3   OH216389   7.947   3.956   1.460
 5483TIP3    H116390   7.887   4.029   1.441
 5483TIP3    H216391   8.005   3.990   1.528
 5484TIP3   OH216392   1.825   6.213   0.609
 5484TIP3    H116393   1.791   6.288   0.658
 5484TIP3    H216394   1.901   6.247   0.562
 5485TIP3   OH216395   5.320   4.887   3.303
 5485TIP3    H116396   5.413   4.873   3.283
 5485TIP3    H216397   5.315   4.979   3.329
 5486TIP3   OH216398   3.968   1.475   0.738
 5486TIP3    H116399   4.026   1.501   0.810
 5486TIP3    H216400   3.881   1.473   0.776
 5487TIP3   OH216401   2.266   0.204   3.590
 5487TIP3    H116402   2.332   0.225   3.657
 5487TIP3    H216403   2.246   0.112   3.606
 5488TIP3   OH216404   7.676   3.339   0.607
 5488TIP3    H116405   7.604   3.303   0.660
 5488TIP3    H216406   7.632   3.383   0.534
 5489TIP3   OH216407   2.128   7.651   1.283
 5489TIP3    H116408   2.148   7.736   1.244
 5489TIP3    H216409   2.177   7.588   1.230
 5490TIP3   OH216410   7.134   4.531   0.428
 5490TIP3    H116411   7.055   4.522   0.482
 5490TIP3    H216412   7.165   4.620   0.445
 5491TIP3   OH216413   0.239   0.896   3.384
 5491TIP3    H116414   0.195   0.885   3.300
 5491TIP3    H216415   0.191   0.838   3.444
 5492TIP3   OH216416   3.432   2.548   0.996
 5492TIP3    H116417   3.442   2.641   0.977
 5492TIP3    H216418   3.450   2.540   1.089
 5493TIP3   OH216419   5.278   1.979   1.452
 5493TIP3    H116420   5.205   2.031   1.419
 5493TIP3    H216421   5.332   2.041   1.501
 5494TIP3   OH216422   7.216   5.535   6.550
 5494TIP3    H116423   7.202   5.619   6.507
 5494TIP3    H216424   7.303   5.542   6.590
 5495TIP3   OH216425   6.849   0.291   6.453
 5495TIP3    H116426   6.813   0.370   6.493
 5495TIP3    H216427   6.922   0.266   6.510
 5496TIP3   OH216428   6.318   6.372   4.959
 5496TIP3    H116429   6.306   6.449   4.903
 5496TIP3    H216430   6.412   6.360   4.964
 5497TIP3   OH216431   4.636   3.601   6.518
 5497TIP3    H116432   4.551   3.625   6.556
 5497TIP3    H216433   4.654   3.669   6.453
 5498TIP3   OH216434   4.092   1.874   5.818
 5498TIP3    H116435   4.042   1.938   5.869
 5498TIP3    H216436   4.073   1.897   5.726
 5499TIP3   OH216437   4.297   0.672   6.709
 5499TIP3    H116438   4.347   0.740   6.754
 5499TIP3    H216439   4.212   0.713   6.692
 5500TIP3   OH216440   0.173   7.365   5.991
 5500TIP3    H116441   0.266   7.360   6.010
 5500TIP3    H216442   0.168   7.417   5.911
 5501TIP3   OH216443   4.050   1.229   3.784
 5501TIP3    H116444   4.145   1.230   3.770
 5501TIP3    H216445   4.033   1.308   3.835
 5502TIP3   OH216446   5.743   7.048   1.638
 5502TIP3    H116447   5.654   7.026   1.612
 5502TIP3    H216448   5.748   7.024   1.731
 5503TIP3   OH216449   7.325   7.375   2.234
 5503TIP3    H116450   7.353   7.366   2.325
 5503TIP3    H216451   7.397   7.337   2.183
 5504TIP3   OH216452   4.851   6.952   0.706
 5504TIP3    H116453   4.769   6.995   0.680
 5504TIP3    H216454   4.919   7.005   0.665
 5505TIP3   OH216455   5.268   3.110   3.526
 5505TIP3    H116456   5.194   3.050   3.529
 5505TIP3    H216457   5.274   3.145   3.615
 5506TIP3   OH216458   5.799   3.708   1.081
 5506TIP3    H116459   5.713   3.751   1.090
 5506TIP3    H216460   5.836   3.710   1.169
 5507TIP3   OH216461   1.509   0.816   0.203
 5507TIP3    H116462   1.503   0.759   0.126
 5507TIP3    H216463   1.565   0.769   0.264
 5508TIP3   OH216464   6.567   3.302   5.636
 5508TIP3    H116465   6.479   3.292   5.599
 5508TIP3    H216466   6.576   3.226   5.695
 5509TIP3   OH216467   0.521   5.495   2.400
 5509TIP3    H116468   0.528   5.501   2.305
 5509TIP3    H216469   0.455   5.560   2.424
 5510TIP3   OH216470   4.098   5.395   0.969
 5510TIP3    H116471   4.155   5.339   1.023
 5510TIP3    H216472   4.019   5.407   1.022
 5511TIP3   OH216473   6.293   4.643   2.670
 5511TIP3    H116474   6.261   4.623   2.582
 5511TIP3    H216475   6.383   4.610   2.671
 5512TIP3   OH216476   2.993   0.238   2.112
 5512TIP3    H116477   2.983   0.144   2.095
 5512TIP3    H216478   3.017   0.243   2.205
 5513TIP3   OH216479   5.149   4.929   5.033
 5513TIP3    H116480   5.080   4.870   5.003
 5513TIP3    H216481   5.230   4.883   5.014
 5514TIP3   OH216482   4.629   6.930   2.761
 5514TIP3    H116483   4.544   6.911   2.801
 5514TIP3    H216484   4.617   7.017   2.721
 5515TIP3   OH216485   5.888   6.405   1.024
 5515TIP3    H116486   5.803   6.434   0.991
 5515TIP3    H216487   5.907   6.464   1.097
 5516TIP3   OH216488   3.555   6.533   5.790
 5516TIP3    H116489   3.604   6.456   5.819
 5516TIP3    H216490   3.494   6.499   5.724
 5517TIP3   OH216491   1.496   0.341   0.121
 5517TIP3    H116492   1.572   0.398   0.139
 5517TIP3    H216493   1.510   0.311   0.031
 5518TIP3   OH216494   8.054   5.944   1.735
 5518TIP3    H116495   8.063   6.024   1.684
 5518TIP3    H216496   8.060   5.873   1.671
 5519TIP3   OH216497   8.117   5.210   5.269
 5519TIP3    H116498   8.143   5.176   5.354
 5519TIP3    H216499   8.024   5.232   5.279
 5520TIP3   OH216500   6.444   5.468   2.952
 5520TIP3    H116501   6.478   5.529   3.018
 5520TIP3    H216502   6.457   5.513   2.869
 5521TIP3   OH216503   3.038   3.989   4.978
 5521TIP3    H116504   3.026   3.964   4.886
 5521TIP3    H216505   2.985   3.927   5.027
 5522TIP3   OH216506   3.282   0.227   3.434
 5522TIP3    H116507   3.273   0.133   3.418
 5522TIP3    H216508   3.360   0.252   3.385
 5523TIP3   OH216509   7.448   7.786   4.537
 5523TIP3    H116510   7.447   7.764   4.630
 5523TIP3    H216511   7.355   7.800   4.515
 5524TIP3   OH216512   1.903   0.457   2.998
 5524TIP3    H116513   1.873   0.524   3.059
 5524TIP3    H216514   1.832   0.392   2.996
 5525TIP3   OH216515   5.766   2.026   0.882
 5525TIP3    H116516   5.770   2.106   0.935
 5525TIP3    H216517   5.810   2.049   0.800
 5526TIP3   OH216518   3.292   1.739   4.673
 5526TIP3    H116519   3.321   1.813   4.726
 5526TIP3    H216520   3.286   1.666   4.734
 5527TIP3   OH216521   4.365   0.571   5.124
 5527TIP3    H116522   4.334   0.629   5.193
 5527TIP3    H216523   4.382   0.629   5.050
 5528TIP3   OH216524   1.653   3.121   4.954
 5528TIP3    H116525   1.635   3.033   4.921
 5528TIP3    H216526   1.739   3.113   4.996
 5529TIP3   OH216527   6.817   6.598   6.695
 5529TIP3    H116528   6.884   6.536   6.664
 5529TIP3    H216529   6.812   6.664   6.627
 5530TIP3   OH216530   6.043   7.581   3.138
 5530TIP3    H116531   5.975   7.548   3.081
 5530TIP3    H216532   6.041   7.676   3.126
 5531TIP3   OH216533   0.767   2.146   4.591
 5531TIP3    H116534   0.785   2.228   4.546
 5531TIP3    H216535   0.692   2.165   4.648
 5532TIP3   OH216536   2.951   0.344   6.335
 5532TIP3    H116537   3.004   0.404   6.282
 5532TIP3    H216538   2.968   0.258   6.298
 5533TIP3   OH216539   0.818   3.631   0.069
 5533TIP3    H116540   0.747   3.567   0.079
 5533TIP3    H216541   0.836   3.660   0.159
 5534TIP3   OH216542   2.568   3.105   3.144
 5534TIP3    H116543   2.573   3.183   3.199
 5534TIP3    H216544   2.568   3.032   3.206
 5535TIP3   OH216545   6.363   5.788   2.921
 5535TIP3    H116546   6.296   5.731   2.883
 5535TIP3    H216547   6.392   5.843   2.848
 5536TIP3   OH216548   7.961   7.202   1.842
 5536TIP3    H116549   7.939   7.210   1.749
 5536TIP3    H216550   7.921   7.279   1.883
 5537TIP3   OH216551   3.404   1.100   1.301
 5537TIP3    H116552   3.452   1.018   1.294
 5537TIP3    H216553   3.440   1.155   1.232
 5538TIP3   OH216554   5.240   7.466   5.779
 5538TIP3    H116555   5.247   7.424   5.694
 5538TIP3    H216556   5.317   7.522   5.785
 5539TIP3   OH216557   6.127   0.798   3.536
 5539TIP3    H116558   6.135   0.870   3.599
 5539TIP3    H216559   6.075   0.732   3.581
 5540TIP3   OH216560   8.261   7.388   1.194
 5540TIP3    H116561   8.178   7.417   1.232
 5540TIP3    H216562   8.239   7.366   1.104
 5541TIP3   OH216563   4.905   5.478   5.293
 5541TIP3    H116564   4.870   5.553   5.341
 5541TIP3    H216565   4.894   5.502   5.201
 5542TIP3   OH216566   2.909   7.675   5.638
 5542TIP3    H116567   2.866   7.648   5.557
 5542TIP3    H216568   2.995   7.707   5.611
 5543TIP3   OH216569   4.173   1.937   0.523
 5543TIP3    H116570   4.147   1.934   0.431
 5543TIP3    H216571   4.179   2.031   0.543
 5544TIP3   OH216572   6.565   0.998   4.171
 5544TIP3    H116573   6.572   1.067   4.104
 5544TIP3    H216574   6.626   0.930   4.142
 5545TIP3   OH216575   0.575   2.709   5.091
 5545TIP3    H116576   0.592   2.802   5.074
 5545TIP3    H216577   0.484   2.706   5.119
 5546TIP3   OH216578   6.652   3.701   0.802
 5546TIP3    H116579   6.649   3.722   0.896
 5546TIP3    H216580   6.736   3.736   0.772
 5547TIP3   OH216581   3.504   7.272   4.031
 5547TIP3    H116582   3.524   7.231   3.947
 5547TIP3    H216583   3.416   7.241   4.052
 5548TIP3   OH216584   2.600   5.882   1.122
 5548TIP3    H116585   2.566   5.812   1.066
 5548TIP3    H216586   2.587   5.962   1.071
 5549TIP3   OH216587   6.436   4.769   0.095
 5549TIP3    H116588   6.379   4.714   0.149
 5549TIP3    H216589   6.516   4.718   0.083
 5550TIP3   OH216590   5.855   4.423   5.681
 5550TIP3    H116591   5.817   4.442   5.766
 5550TIP3    H216592   5.828   4.333   5.662
 5551TIP3   OH216593   1.914   5.820   1.151
 5551TIP3    H116594   1.934   5.901   1.197
 5551TIP3    H216595   1.935   5.838   1.059
 5552TIP3   OH216596   5.578   4.580   5.806
 5552TIP3    H116597   5.658   4.629   5.788
 5552TIP3    H216598   5.518   4.645   5.842
 5553TIP3   OH216599   1.889   3.682   0.187
 5553TIP3    H116600   1.866   3.589   0.182
 5553TIP3    H216601   1.831   3.717   0.255
 5554TIP3   OH216602   1.782   6.978   6.264
 5554TIP3    H116603   1.793   7.041   6.336
 5554TIP3    H216604   1.869   6.941   6.251
 5555TIP3   OH216605   2.672   2.804   4.701
 5555TIP3    H116606   2.642   2.742   4.634
 5555TIP3    H216607   2.593   2.851   4.727
 5556TIP3   OH216608   4.218   2.809   2.874
 5556TIP3    H116609   4.183   2.828   2.961
 5556TIP3    H216610   4.170   2.867   2.815
 5557TIP3   OH216611   7.944   1.748   3.902
 5557TIP3    H116612   7.956   1.841   3.919
 5557TIP3    H216613   7.946   1.708   3.989
 5558TIP3   OH216614   7.344   2.176   5.967
 5558TIP3    H116615   7.337   2.223   5.884
 5558TIP3    H216616   7.438   2.161   5.978
 5559TIP3   OH216617   4.880   0.846   4.307
 5559TIP3    H116618   4.833   0.926   4.332
 5559TIP3    H216619   4.815   0.777   4.318
 5560TIP3   OH216620   2.477   2.530   0.802
 5560TIP3    H116621   2.472   2.472   0.878
 5560TIP3    H216622   2.484   2.470   0.727
 5561TIP3   OH216623   6.800   5.647   3.403
 5561TIP3    H116624   6.876   5.601   3.441
 5561TIP3    H216625   6.837   5.702   3.334
 5562TIP3   OH216626   4.265   1.767   3.330
 5562TIP3    H116627   4.228   1.789   3.244
 5562TIP3    H216628   4.252   1.846   3.383
 5563TIP3   OH216629   8.086   7.639   0.301
 5563TIP3    H116630   7.992   7.637   0.287
 5563TIP3    H216631   8.110   7.547   0.317
 5564TIP3   OH216632   4.790   1.083   2.619
 5564TIP3    H116633   4.696   1.093   2.603
 5564TIP3    H216634   4.824   1.173   2.615
 5565TIP3   OH216635   6.731   2.911   5.021
 5565TIP3    H116636   6.727   2.821   4.990
 5565TIP3    H216637   6.700   2.907   5.111
 5566TIP3   OH216638   2.888   1.199   0.557
 5566TIP3    H116639   2.833   1.142   0.502
 5566TIP3    H216640   2.852   1.189   0.645
 5567TIP3   OH216641   2.945   3.052   0.868
 5567TIP3    H116642   3.028   3.099   0.872
 5567TIP3    H216643   2.925   3.048   0.774
 5568TIP3   OH216644   8.046   2.845   5.003
 5568TIP3    H116645   8.041   2.803   4.917
 5568TIP3    H216646   7.989   2.792   5.058
 5569TIP3   OH216647   2.158   1.019   0.796
 5569TIP3    H116648   2.239   1.064   0.770
 5569TIP3    H216649   2.180   0.926   0.791
 5570TIP3   OH216650   1.936   3.430   1.214
 5570TIP3    H116651   1.959   3.342   1.242
 5570TIP3    H216652   1.872   3.460   1.279
 5571TIP3   OH216653   0.703   4.428   2.843
 5571TIP3    H116654   0.722   4.377   2.765
 5571TIP3    H216655   0.684   4.516   2.811
 5572TIP3   OH216656   4.398   4.969   2.727
 5572TIP3    H116657   4.446   4.894   2.763
 5572TIP3    H216658   4.412   5.039   2.791
 5573TIP3   OH216659   4.119   5.771   5.828
 5573TIP3    H116660   4.120   5.740   5.919
 5573TIP3    H216661   4.026   5.776   5.806
 5574TIP3   OH216662   0.836   0.163   5.119
 5574TIP3    H116663   0.815   0.167   5.212
 5574TIP3    H216664   0.860   0.072   5.104
 5575TIP3   OH216665   4.600   6.213   3.559
 5575TIP3    H116666   4.639   6.156   3.493
 5575TIP3    H216667   4.612   6.166   3.642
 5576TIP3   OH216668   2.913   7.811   0.880
 5576TIP3    H116669   2.833   7.796   0.829
 5576TIP3    H216670   2.962   7.875   0.828
 5577TIP3   OH216671   7.234   3.153   6.481
 5577TIP3    H116672   7.227   3.083   6.416
 5577TIP3    H216673   7.310   3.205   6.453
 5578TIP3   OH216674   1.119   1.342   6.835
 5578TIP3    H116675   1.112   1.391   6.753
 5578TIP3    H216676   1.037   1.295   6.842
 5579TIP3   OH216677   6.553   7.017   4.104
 5579TIP3    H116678   6.537   7.022   4.009
 5579TIP3    H216679   6.558   7.108   4.132
 5580TIP3   OH216680   3.474   0.279   5.397
 5580TIP3    H116681   3.380   0.265   5.404
 5580TIP3    H216682   3.484   0.352   5.337
 5581TIP3   OH216683   0.042   5.461   6.358
 5581TIP3    H116684   0.033   5.554   6.337
 5581TIP3    H216685   0.013   5.454   6.449
 5582TIP3   OH216686   6.251   0.986   0.738
 5582TIP3    H116687   6.233   1.060   0.796
 5582TIP3    H216688   6.346   0.973   0.745
 5583TIP3   OH216689   6.732   1.806   1.127
 5583TIP3    H116690   6.777   1.735   1.172
 5583TIP3    H216691   6.639   1.787   1.139
 5584TIP3   OH216692   3.404   0.083   0.935
 5584TIP3    H116693   3.453   0.163   0.917
 5584TIP3    H216694   3.336   0.109   0.998
 5585TIP3   OH216695   3.002   3.964   4.705
 5585TIP3    H116696   2.944   3.893   4.676
 5585TIP3    H216697   3.079   3.957   4.647
 5586TIP3   OH216698   3.242   2.881   6.380
 5586TIP3    H116699   3.156   2.840   6.368
 5586TIP3    H216700   3.246   2.899   6.474
 5587TIP3   OH216701   1.925   6.898   0.032
 5587TIP3    H116702   1.860   6.847  -0.017
 5587TIP3    H216703   1.915   6.987  -0.001
 5588TIP3   OH216704   2.802   4.558   2.038
 5588TIP3    H116705   2.781   4.543   1.946
 5588TIP3    H216706   2.741   4.501   2.086
 5589TIP3   OH216707   3.416   4.931   3.287
 5589TIP3    H116708   3.391   4.843   3.314
 5589TIP3    H216709   3.417   4.982   3.368
 5590TIP3   OH216710   0.421   2.970   3.973
 5590TIP3    H116711   0.372   3.037   4.020
 5590TIP3    H216712   0.388   2.974   3.884
 5591TIP3   OH216713   2.068   6.603   5.775
 5591TIP3    H116714   2.074   6.692   5.808
 5591TIP3    H216715   2.136   6.598   5.707
 5592TIP3   OH216716   8.105   3.094  -0.029
 5592TIP3    H116717   8.054   3.158   0.022
 5592TIP3    H216718   8.180   3.073   0.027
 5593TIP3   OH216719   2.788   6.340   5.780
 5593TIP3    H116720   2.793   6.260   5.728
 5593TIP3    H216721   2.779   6.411   5.715
 5594TIP3   OH216722   6.512   0.938   0.795
 5594TIP3    H116723   6.551   0.898   0.717
 5594TIP3    H216724   6.565   1.017   0.810
 5595TIP3   OH216725   5.153   3.729   2.842
 5595TIP3    H116726   5.112   3.692   2.920
 5595TIP3    H216727   5.081   3.734   2.778
 5596TIP3   OH216728   3.354   0.531   4.884
 5596TIP3    H116729   3.385   0.453   4.839
 5596TIP3    H216730   3.401   0.603   4.842
 5597TIP3   OH216731   5.336   0.191   3.119
 5597TIP3    H116732   5.409   0.141   3.082
 5597TIP3    H216733   5.277   0.205   3.045
 5598TIP3   OH216734   2.824   4.463   5.495
 5598TIP3    H116735   2.739   4.461   5.540
 5598TIP3    H216736   2.812   4.526   5.424
 5599TIP3   OH216737   6.810   4.443   4.957
 5599TIP3    H116738   6.807   4.521   4.901
 5599TIP3    H216739   6.754   4.380   4.913
 5600TIP3   OH216740   6.455   6.331   1.813
 5600TIP3    H116741   6.411   6.251   1.842
 5600TIP3    H216742   6.417   6.400   1.868
 5601TIP3   OH216743   7.483   4.793   1.968
 5601TIP3    H116744   7.415   4.751   2.022
 5601TIP3    H216745   7.447   4.792   1.880
 5602TIP3   OH216746   1.576   3.557   5.374
 5602TIP3    H116747   1.530   3.641   5.376
 5602TIP3    H216748   1.562   3.525   5.285
 5603TIP3   OH216749   4.291   0.614   3.870
 5603TIP3    H116750   4.305   0.705   3.844
 5603TIP3    H216751   4.289   0.566   3.788
 5604TIP3   OH216752   7.840   1.188   1.093
 5604TIP3    H116753   7.874   1.130   1.025
 5604TIP3    H216754   7.824   1.131   1.168
 5605TIP3   OH216755   2.042   5.839   4.663
 5605TIP3    H116756   2.121   5.806   4.706
 5605TIP3    H216757   2.073   5.912   4.609
 5606TIP3   OH216758   1.602   7.605   1.304
 5606TIP3    H116759   1.694   7.630   1.297
 5606TIP3    H216760   1.556   7.686   1.325
 5607TIP3   OH216761   5.211   4.378   1.183
 5607TIP3    H116762   5.144   4.310   1.189
 5607TIP3    H216763   5.260   4.370   1.264
 5608TIP3   OH216764   3.765   7.358   1.428
 5608TIP3    H116765   3.836   7.351   1.491
 5608TIP3    H216766   3.685   7.349   1.480
 5609TIP3   OH216767   1.314   2.362   2.539
 5609TIP3    H116768   1.286   2.307   2.466
 5609TIP3    H216769   1.247   2.347   2.607
 5610TIP3   OH216770   4.812   3.140   0.276
 5610TIP3    H116771   4.880   3.202   0.249
 5610TIP3    H216772   4.861   3.063   0.306
 5611TIP3   OH216773   6.490   4.847   1.623
 5611TIP3    H116774   6.436   4.841   1.545
 5611TIP3    H216775   6.449   4.915   1.676
 5612TIP3   OH216776   3.680   3.087   1.236
 5612TIP3    H116777   3.719   3.169   1.268
 5612TIP3    H216778   3.745   3.020   1.255
 5613TIP3   OH216779   1.672   1.949   3.391
 5613TIP3    H116780   1.653   1.859   3.365
 5613TIP3    H216781   1.638   2.003   3.320
 5614TIP3   OH216782   1.006   0.587   5.656
 5614TIP3    H116783   1.090   0.579   5.701
 5614TIP3    H216784   1.020   0.657   5.592
 5615TIP3   OH216785   5.136   3.494   3.788
 5615TIP3    H116786   5.162   3.475   3.879
 5615TIP3    H216787   5.217   3.483   3.738
 5616TIP3   OH216788   0.079   4.693   5.934
 5616TIP3    H116789   0.137   4.751   5.983
 5616TIP3    H216790   0.136   4.647   5.873
 5617TIP3   OH216791   5.961   3.792   4.827
 5617TIP3    H116792   5.891   3.729   4.841
 5617TIP3    H216793   6.041   3.739   4.829
 5618TIP3   OH216794   3.758   1.197   3.761
 5618TIP3    H116795   3.851   1.215   3.770
 5618TIP3    H216796   3.716   1.284   3.763
 5619TIP3   OH216797   1.773   0.745   1.328
 5619TIP3    H116798   1.843   0.807   1.344
 5619TIP3    H216799   1.699   0.778   1.378
 5620TIP3   OH216800   5.510   5.145   5.806
 5620TIP3    H116801   5.598   5.111   5.825
 5620TIP3    H216802   5.518   5.240   5.818
 5621TIP3   OH216803   5.300   5.637   0.043
 5621TIP3    H116804   5.379   5.691   0.034
 5621TIP3    H216805   5.270   5.652   0.132
 5622TIP3   OH216806   7.709   1.991   3.390
 5622TIP3    H116807   7.660   2.033   3.319
 5622TIP3    H216808   7.800   2.001   3.366
 5623TIP3   OH216809   0.906   6.069   1.686
 5623TIP3    H116810   0.918   6.050   1.779
 5623TIP3    H216811   0.859   6.153   1.684
 5624TIP3   OH216812   2.055   4.761   1.346
 5624TIP3    H116813   2.025   4.785   1.434
 5624TIP3    H216814   2.097   4.675   1.358
 5625TIP3   OH216815   0.916   1.888   5.087
 5625TIP3    H116816   0.960   1.818   5.039
 5625TIP3    H216817   0.827   1.856   5.101
 5626TIP3   OH216818   5.175   4.305   1.689
 5626TIP3    H116819   5.151   4.398   1.683
 5626TIP3    H216820   5.241   4.302   1.759
 5627TIP3   OH216821   1.122   4.090   5.600
 5627TIP3    H116822   1.127   4.124   5.690
 5627TIP3    H216823   1.140   4.166   5.545
 5628TIP3   OH216824   0.401   1.270   4.323
 5628TIP3    H116825   0.377   1.363   4.330
 5628TIP3    H216826   0.384   1.248   4.232
 5629TIP3   OH216827   4.086   0.659   6.237
 5629TIP3    H116828   4.132   0.628   6.160
 5629TIP3    H216829   4.032   0.585   6.264
 5630TIP3   OH216830   2.627   3.339   4.211
 5630TIP3    H116831   2.713   3.304   4.233
 5630TIP3    H216832   2.585   3.270   4.159
 5631TIP3   OH216833   0.069   3.605   2.841
 5631TIP3    H116834   0.060   3.641   2.929
 5631TIP3    H216835   0.036   3.516   2.847
 5632TIP3   OH216836   0.340   7.847   4.762
 5632TIP3    H116837   0.257   7.817   4.799
 5632TIP3    H216838   0.380   7.898   4.833
 5633TIP3   OH216839   5.835   7.090   4.012
 5633TIP3    H116840   5.877   7.095   4.098
 5633TIP3    H216841   5.787   7.007   4.013
 5634TIP3   OH216842   7.319   0.545   1.912
 5634TIP3    H116843   7.410   0.518   1.906
 5634TIP3    H216844   7.281   0.523   1.827
 5635TIP3   OH216845   6.962   2.749   5.981
 5635TIP3    H116846   7.020   2.674   5.969
 5635TIP3    H216847   6.942   2.748   6.075
 5636TIP3   OH216848   4.087   2.947   6.364
 5636TIP3    H116849   4.023   2.982   6.426
 5636TIP3    H216850   4.087   2.852   6.381
 5637TIP3   OH216851   0.065   7.221   4.131
 5637TIP3    H116852   0.075   7.222   4.036
 5637TIP3    H216853  -0.023   7.186   4.146
 5638TIP3   OH216854   6.100   3.513   3.717
 5638TIP3    H116855   6.169   3.546   3.659
 5638TIP3    H216856   6.147   3.469   3.787
 5639TIP3   OH216857   0.814   0.444   5.543
 5639TIP3    H116858   0.884   0.483   5.595
 5639TIP3    H216859   0.827   0.349   5.552
 5640TIP3   OH216860   5.340   4.220   2.355
 5640TIP3    H116861   5.383   4.278   2.418
 5640TIP3    H216862   5.410   4.195   2.294
 5641TIP3   OH216863   3.290   4.314   6.295
 5641TIP3    H116864   3.305   4.359   6.378
 5641TIP3    H216865   3.231   4.242   6.317
 5642TIP3   OH216866   1.355   4.378   2.679
 5642TIP3    H116867   1.351   4.456   2.734
 5642TIP3    H216868   1.447   4.371   2.653
 5643TIP3   OH216869   2.473   4.338   4.859
 5643TIP3    H116870   2.565   4.357   4.874
 5643TIP3    H216871   2.430   4.424   4.860
 5644TIP3   OH216872   3.820   4.999   1.221
 5644TIP3    H116873   3.851   4.909   1.212
 5644TIP3    H216874   3.854   5.044   1.144
 5645TIP3   OH216875   3.838   3.324   0.968
 5645TIP3    H116876   3.861   3.415   0.951
 5645TIP3    H216877   3.750   3.314   0.930
 5646TIP3   OH216878   6.035   2.461   1.618
 5646TIP3    H116879   6.023   2.390   1.682
 5646TIP3    H216880   6.018   2.541   1.669
 5647TIP3   OH216881   8.333   2.768   1.384
 5647TIP3    H116882   8.330   2.858   1.351
 5647TIP3    H216883   8.302   2.775   1.474
 5648TIP3   OH216884   5.430   1.108   2.294
 5648TIP3    H116885   5.466   1.019   2.289
 5648TIP3    H216886   5.336   1.096   2.284
 5649TIP3   OH216887   0.061   1.703   2.424
 5649TIP3    H116888   0.063   1.765   2.497
 5649TIP3    H216889  -0.030   1.701   2.397
 5650TIP3   OH216890   0.488   0.557   5.281
 5650TIP3    H116891   0.398   0.552   5.314
 5650TIP3    H216892   0.482   0.525   5.191
 5651TIP3   OH216893   1.548   4.822   0.358
 5651TIP3    H116894   1.571   4.737   0.396
 5651TIP3    H216895   1.464   4.807   0.315
 5652TIP3   OH216896   1.769   4.163   1.490
 5652TIP3    H116897   1.827   4.207   1.427
 5652TIP3    H216898   1.823   4.093   1.527
 5653TIP3   OH216899   3.780   6.746   1.704
 5653TIP3    H116900   3.797   6.840   1.713
 5653TIP3    H216901   3.727   6.739   1.625
 5654TIP3   OH216902   3.501   0.876   0.695
 5654TIP3    H116903   3.483   0.866   0.788
 5654TIP3    H216904   3.561   0.951   0.690
 5655TIP3   OH216905   0.722   6.059   2.566
 5655TIP3    H116906   0.692   6.009   2.642
 5655TIP3    H216907   0.665   6.032   2.494
 5656TIP3   OH216908   0.083   7.680   0.170
 5656TIP3    H116909   0.055   7.725   0.091
 5656TIP3    H216910   0.136   7.607   0.139
 5657TIP3   OH216911   1.924   7.467   1.322
 5657TIP3    H116912   1.870   7.487   1.399
 5657TIP3    H216913   1.976   7.546   1.308
 5658TIP3   OH216914   4.213   2.305   0.819
 5658TIP3    H116915   4.259   2.295   0.736
 5658TIP3    H216916   4.262   2.374   0.865
 5659TIP3   OH216917   0.633   3.068   2.251
 5659TIP3    H116918   0.704   3.086   2.313
 5659TIP3    H216919   0.673   3.012   2.185
 5660TIP3   OH216920   6.148   4.745   6.046
 5660TIP3    H116921   6.132   4.812   5.980
 5660TIP3    H216922   6.138   4.791   6.130
 5661TIP3   OH216923   1.763   3.152   3.589
 5661TIP3    H116924   1.806   3.104   3.518
 5661TIP3    H216925   1.721   3.084   3.641
 5662TIP3   OH216926   4.455   0.868   1.091
 5662TIP3    H116927   4.536   0.916   1.076
 5662TIP3    H216928   4.462   0.835   1.181
 5663TIP3   OH216929   2.807   0.368   2.480
 5663TIP3    H116930   2.775   0.289   2.523
 5663TIP3    H216931   2.831   0.340   2.392
 5664TIP3   OH216932   3.650   5.924   4.829
 5664TIP3    H116933   3.716   5.956   4.890
 5664TIP3    H216934   3.575   5.902   4.883
 5665TIP3   OH216935   1.083   7.298   6.347
 5665TIP3    H116936   0.987   7.291   6.352
 5665TIP3    H216937   1.106   7.360   6.416
 5666TIP3   OH216938   3.715   2.642   0.108
 5666TIP3    H116939   3.806   2.625   0.133
 5666TIP3    H216940   3.704   2.595   0.026
 5667TIP3   OH216941   2.160   0.861   5.112
 5667TIP3    H116942   2.239   0.806   5.119
 5667TIP3    H216943   2.163   0.916   5.190
 5668TIP3   OH216944   1.810   4.100   0.534
 5668TIP3    H116945   1.802   4.187   0.495
 5668TIP3    H216946   1.869   4.114   0.609
 5669TIP3   OH216947   2.804   5.871   2.724
 5669TIP3    H116948   2.823   5.948   2.777
 5669TIP3    H216949   2.786   5.802   2.788
 5670TIP3   OH216950   2.942   0.014   1.225
 5670TIP3    H116951   2.919   0.106   1.237
 5670TIP3    H216952   2.877  -0.034   1.276
 5671TIP3   OH216953   5.931   0.992   4.536
 5671TIP3    H116954   5.858   1.017   4.480
 5671TIP3    H216955   5.983   0.933   4.483
 5672TIP3   OH216956   4.076   0.961   1.098
 5672TIP3    H116957   4.078   1.055   1.081
 5672TIP3    H216958   4.154   0.927   1.056
 5673TIP3   OH216959   2.338   4.798   5.818
 5673TIP3    H116960   2.429   4.824   5.833
 5673TIP3    H216961   2.303   4.867   5.761
 5674TIP3   OH216962   6.976   0.134   3.388
 5674TIP3    H116963   7.028   0.138   3.308
 5674TIP3    H216964   6.893   0.177   3.364
 5675TIP3   OH216965   3.018   1.676   0.917
 5675TIP3    H116966   3.041   1.594   0.873
 5675TIP3    H216967   3.029   1.657   1.010
 5676TIP3   OH216968   3.628   0.933   5.488
 5676TIP3    H116969   3.604   0.974   5.405
 5676TIP3    H216970   3.546   0.931   5.537
 5677TIP3   OH216971   4.810   5.581   6.588
 5677TIP3    H116972   4.837   5.625   6.668
 5677TIP3    H216973   4.839   5.491   6.599
 5678TIP3   OH216974   5.383   7.660   5.225
 5678TIP3    H116975   5.343   7.646   5.140
 5678TIP3    H216976   5.466   7.704   5.206
 5679TIP3   OH216977   5.097   7.707   2.267
 5679TIP3    H116978   5.122   7.783   2.320
 5679TIP3    H216979   5.154   7.711   2.190
 5680TIP3   OH216980   5.976   2.950   1.057
 5680TIP3    H116981   5.970   3.045   1.055
 5680TIP3    H216982   5.896   2.920   1.014
 5681TIP3   OH216983   5.687   4.094   1.507
 5681TIP3    H116984   5.702   4.141   1.426
 5681TIP3    H216985   5.668   4.004   1.480
 5682TIP3   OH216986   4.606   1.810   5.336
 5682TIP3    H116987   4.633   1.737   5.279
 5682TIP3    H216988   4.682   1.826   5.391
 5683TIP3   OH216989   5.314   0.617   6.264
 5683TIP3    H116990   5.258   0.548   6.228
 5683TIP3    H216991   5.308   0.605   6.359
 5684TIP3   OH216992   5.585   7.423   5.603
 5684TIP3    H116993   5.678   7.439   5.619
 5684TIP3    H216994   5.573   7.329   5.619
 5685TIP3   OH216995   3.703   6.815   6.414
 5685TIP3    H116996   3.610   6.799   6.396
 5685TIP3    H216997   3.747   6.792   6.332
 5686TIP3   OH216998   4.479   7.593   2.716
 5686TIP3    H116999   4.402   7.642   2.745
 5686TIP3    H217000   4.545   7.609   2.784
 5687TIP3   OH217001   7.449   3.912   6.198
 5687TIP3    H117002   7.539   3.945   6.187
 5687TIP3    H217003   7.394   3.988   6.180
 5688TIP3   OH217004   3.994   7.891   2.783
 5688TIP3    H117005   4.022   7.864   2.695
 5688TIP3    H217006   3.990   7.810   2.833
 5689TIP3   OH217007   8.083   5.200   3.417
 5689TIP3    H117008   8.080   5.286   3.376
 5689TIP3    H217009   8.025   5.207   3.493
 5690TIP3   OH217010   3.300   7.326   1.474
 5690TIP3    H117011   3.249   7.280   1.407
 5690TIP3    H217012   3.244   7.326   1.552
 5691TIP3   OH217013   3.911   7.486   2.556
 5691TIP3    H117014   3.835   7.543   2.566
 5691TIP3    H217015   3.907   7.457   2.464
 5692TIP3   OH217016   6.245   6.321   0.942
 5692TIP3    H117017   6.269   6.228   0.931
 5692TIP3    H217018   6.215   6.326   1.033
 5693TIP3   OH217019   4.851   4.216   0.275
 5693TIP3    H117020   4.884   4.268   0.202
 5693TIP3    H217021   4.781   4.164   0.238
 5694TIP3   OH217022   6.046   4.099   5.389
 5694TIP3    H117023   6.047   4.195   5.391
 5694TIP3    H217024   5.962   4.075   5.428
 5695TIP3   OH217025   7.153   2.406   2.667
 5695TIP3    H117026   7.122   2.333   2.721
 5695TIP3    H217027   7.186   2.364   2.587
 5696TIP3   OH217028   8.141   5.181   1.502
 5696TIP3    H117029   8.089   5.102   1.518
 5696TIP3    H217030   8.119   5.206   1.412
 5697TIP3   OH217031   4.857   3.448   4.447
 5697TIP3    H117032   4.785   3.413   4.395
 5697TIP3    H217033   4.869   3.537   4.414
 5698TIP3   OH217034   1.639   4.231   0.736
 5698TIP3    H117035   1.693   4.229   0.657
 5698TIP3    H217036   1.595   4.147   0.737
 5699TIP3   OH217037   4.462   7.698   2.030
 5699TIP3    H117038   4.533   7.728   1.974
 5699TIP3    H217039   4.506   7.658   2.105
 5700TIP3   OH217040   4.944   1.085   4.537
 5700TIP3    H117041   4.884   1.107   4.465
 5700TIP3    H217042   4.887   1.073   4.613
 5701TIP3   OH217043   3.201   6.998   5.556
 5701TIP3    H117044   3.203   7.054   5.478
 5701TIP3    H217045   3.157   7.051   5.622
 5702TIP3   OH217046   4.207   4.737   1.245
 5702TIP3    H117047   4.145   4.796   1.201
 5702TIP3    H217048   4.157   4.656   1.257
 5703TIP3   OH217049   2.863   7.904   1.119
 5703TIP3    H117050   2.899   7.845   1.186
 5703TIP3    H217051   2.873   7.856   1.037
 5704TIP3   OH217052   1.929   0.356   2.642
 5704TIP3    H117053   1.845   0.394   2.666
 5704TIP3    H217054   1.931   0.271   2.686
 5705TIP3   OH217055   1.894   6.095   5.740
 5705TIP3    H117056   1.898   6.040   5.818
 5705TIP3    H217057   1.817   6.151   5.754
 5706TIP3   OH217058   0.246   1.225   5.103
 5706TIP3    H117059   0.263   1.142   5.058
 5706TIP3    H217060   0.165   1.258   5.063
 5707TIP3   OH217061   7.226   0.287   4.497
 5707TIP3    H117062   7.289   0.259   4.563
 5707TIP3    H217063   7.141   0.279   4.541
 5708TIP3   OH217064   0.047   3.795   1.494
 5708TIP3    H117065   0.127   3.744   1.477
 5708TIP3    H217066   0.032   3.843   1.413
 5709TIP3   OH217067   1.534   0.226   0.461
 5709TIP3    H117068   1.617   0.246   0.417
 5709TIP3    H217069   1.544   0.263   0.548
 5710TIP3   OH217070   0.551   7.058   3.273
 5710TIP3    H117071   0.597   7.132   3.313
 5710TIP3    H217072   0.546   7.081   3.180
 5711TIP3   OH217073   8.209   3.201   5.976
 5711TIP3    H117074   8.268   3.129   5.953
 5711TIP3    H217075   8.157   3.166   6.048
 5712TIP3   OH217076   1.044   6.732   4.922
 5712TIP3    H117077   1.025   6.666   4.989
 5712TIP3    H217078   0.991   6.706   4.847
 5713TIP3   OH217079   2.901   3.666   2.689
 5713TIP3    H117080   2.947   3.740   2.730
 5713TIP3    H217081   2.966   3.596   2.688
 5714TIP3   OH217082   5.342   3.015   5.423
 5714TIP3    H117083   5.260   3.025   5.375
 5714TIP3    H217084   5.410   3.041   5.361
 5715TIP3   OH217085   5.264   2.846   5.963
 5715TIP3    H117086   5.332   2.914   5.959
 5715TIP3    H217087   5.182   2.894   5.954
 5716TIP3   OH217088   4.391   1.378   6.339
 5716TIP3    H117089   4.314   1.335   6.376
 5716TIP3    H217090   4.422   1.436   6.409
 5717TIP3   OH217091   3.398   3.928   0.569
 5717TIP3    H117092   3.418   3.867   0.498
 5717TIP3    H217093   3.426   3.882   0.648
 5718TIP3   OH217094   3.242   1.895   5.802
 5718TIP3    H117095   3.218   1.838   5.875
 5718TIP3    H217096   3.338   1.894   5.801
 5719TIP3   OH217097   8.216   7.040   6.615
 5719TIP3    H117098   8.308   7.043   6.640
 5719TIP3    H217099   8.172   7.098   6.676
 5720TIP3   OH217100   8.195   3.676   1.988
 5720TIP3    H117101   8.279   3.720   1.999
 5720TIP3    H217102   8.137   3.743   1.952
 5721TIP3   OH217103   1.672   7.397   6.469
 5721TIP3    H117104   1.720   7.368   6.547
 5721TIP3    H217105   1.581   7.374   6.487
 5722TIP3   OH217106   0.294   0.126   3.102
 5722TIP3    H117107   0.212   0.123   3.152
 5722TIP3    H217108   0.274   0.181   3.027
 5723TIP3   OH217109   1.955   3.467   5.610
 5723TIP3    H117110   2.043   3.447   5.579
 5723TIP3    H217111   1.940   3.406   5.682
 5724TIP3   OH217112   4.111   3.451   4.602
 5724TIP3    H117113   4.139   3.367   4.637
 5724TIP3    H217114   4.170   3.515   4.644
 5725TIP3   OH217115   1.872   4.671   0.403
 5725TIP3    H117116   1.843   4.751   0.445
 5725TIP3    H217117   1.943   4.699   0.345
 5726TIP3   OH217118   4.123   1.545   6.551
 5726TIP3    H117119   4.161   1.584   6.472
 5726TIP3    H217120   4.104   1.620   6.608
 5727TIP3   OH217121   1.526   5.751   4.491
 5727TIP3    H117122   1.594   5.700   4.534
 5727TIP3    H217123   1.444   5.711   4.519
 5728TIP3   OH217124   6.467   6.549   2.519
 5728TIP3    H117125   6.443   6.635   2.485
 5728TIP3    H217126   6.467   6.560   2.614
 5729TIP3   OH217127   2.887   7.806   6.066
 5729TIP3    H117128   2.909   7.835   6.154
 5729TIP3    H217129   2.900   7.884   6.011
 5730TIP3   OH217130   8.220   3.437   5.811
 5730TIP3    H117131   8.214   3.366   5.875
 5730TIP3    H217132   8.261   3.509   5.858
 5731TIP3   OH217133   4.405   1.337   6.081
 5731TIP3    H117134   4.392   1.372   6.169
 5731TIP3    H217135   4.347   1.261   6.077
 5732TIP3   OH217136   0.298   0.909   0.846
 5732TIP3    H117137   0.263   0.947   0.766
 5732TIP3    H217138   0.224   0.912   0.908
 5733TIP3   OH217139   1.405   6.531   1.539
 5733TIP3    H117140   1.456   6.476   1.599
 5733TIP3    H217141   1.377   6.605   1.593
 5734TIP3   OH217142   2.982   6.794   3.928
 5734TIP3    H117143   2.964   6.788   4.022
 5734TIP3    H217144   3.043   6.867   3.920
 5735TIP3   OH217145   3.958   7.796   4.958
 5735TIP3    H117146   3.972   7.805   5.053
 5735TIP3    H217147   3.876   7.844   4.942
 5736TIP3   OH217148   2.303   0.760   2.101
 5736TIP3    H117149   2.240   0.815   2.147
 5736TIP3    H217150   2.330   0.695   2.166
 5737TIP3   OH217151   4.694   4.819   1.543
 5737TIP3    H117152   4.649   4.888   1.494
 5737TIP3    H217153   4.632   4.746   1.542
 5738TIP3   OH217154   3.563   2.159   3.447
 5738TIP3    H117155   3.501   2.231   3.446
 5738TIP3    H217156   3.593   2.154   3.538
 5739TIP3   OH217157   3.929   5.907   3.469
 5739TIP3    H117158   3.967   5.994   3.478
 5739TIP3    H217159   3.861   5.904   3.536
 5740TIP3   OH217160   7.652   3.171   3.528
 5740TIP3    H117161   7.572   3.160   3.581
 5740TIP3    H217162   7.625   3.143   3.440
 5741TIP3   OH217163   8.324   1.103   4.924
 5741TIP3    H117164   8.264   1.158   4.973
 5741TIP3    H217165   8.407   1.151   4.924
 5742TIP3   OH217166   1.273   0.849   0.615
 5742TIP3    H117167   1.253   0.894   0.697
 5742TIP3    H217168   1.363   0.874   0.596
 5743TIP3   OH217169   7.583   3.169   5.598
 5743TIP3    H117170   7.580   3.199   5.507
 5743TIP3    H217171   7.542   3.083   5.597
 5744TIP3   OH217172   2.659   1.436   3.982
 5744TIP3    H117173   2.659   1.525   4.018
 5744TIP3    H217174   2.743   1.399   4.011
 5745TIP3   OH217175   2.745   5.046   6.708
 5745TIP3    H117176   2.768   4.990   6.782
 5745TIP3    H217177   2.678   5.105   6.743
 5746TIP3   OH217178   3.933   2.494   0.238
 5746TIP3    H117179   3.948   2.589   0.237
 5746TIP3    H217180   4.000   2.458   0.180
 5747TIP3   OH217181   8.277   3.677   3.389
 5747TIP3    H117182   8.190   3.685   3.428
 5747TIP3    H217183   8.260   3.671   3.295
 5748TIP3   OH217184   6.873   0.585   0.404
 5748TIP3    H117185   6.876   0.507   0.460
 5748TIP3    H217186   6.814   0.645   0.451
 5749TIP3   OH217187   7.434   4.801   1.685
 5749TIP3    H117188   7.369   4.779   1.618
 5749TIP3    H217189   7.493   4.863   1.642
 5750TIP3   OH217190   8.037   5.057   4.538
 5750TIP3    H117191   7.955   5.086   4.498
 5750TIP3    H217192   8.011   4.990   4.601
 5751TIP3   OH217193   0.759   6.358   4.620
 5751TIP3    H117194   0.800   6.272   4.609
 5751TIP3    H217195   0.750   6.368   4.715
 5752TIP3   OH217196   7.371   0.384   4.005
 5752TIP3    H117197   7.285   0.381   3.963
 5752TIP3    H217198   7.367   0.314   4.071
 5753TIP3   OH217199   5.790   3.305   1.899
 5753TIP3    H117200   5.831   3.388   1.874
 5753TIP3    H217201   5.814   3.293   1.991
 5754TIP3   OH217202   4.338   1.280   3.391
 5754TIP3    H117203   4.393   1.209   3.423
 5754TIP3    H217204   4.392   1.327   3.329
 5755TIP3   OH217205   5.511   1.504   1.024
 5755TIP3    H117206   5.423   1.509   1.061
 5755TIP3    H217207   5.547   1.591   1.037
 5756TIP3   OH217208   0.589   1.679   1.919
 5756TIP3    H117209   0.503   1.723   1.924
 5756TIP3    H217210   0.594   1.630   2.001
 5757TIP3   OH217211   0.633   0.236   0.431
 5757TIP3    H117212   0.634   0.309   0.493
 5757TIP3    H217213   0.588   0.270   0.354
 5758TIP3   OH217214   7.979   1.862   6.781
 5758TIP3    H117215   7.995   1.858   6.687
 5758TIP3    H217216   8.064   1.841   6.821
 5759TIP3   OH217217   0.928   7.809   2.390
 5759TIP3    H117218   0.927   7.903   2.407
 5759TIP3    H217219   0.908   7.768   2.474
 5760TIP3   OH217220   4.410   4.510   5.434
 5760TIP3    H117221   4.317   4.498   5.448
 5760TIP3    H217222   4.417   4.552   5.348
 5761TIP3   OH217223   6.763   1.099   4.364
 5761TIP3    H117224   6.754   1.019   4.415
 5761TIP3    H217225   6.674   1.135   4.358
 5762TIP3   OH217226   4.983   6.504   3.450
 5762TIP3    H117227   4.893   6.474   3.446
 5762TIP3    H217228   5.034   6.434   3.409
 5763TIP3   OH217229   8.256   7.163   0.900
 5763TIP3    H117230   8.285   7.184   0.812
 5763TIP3    H217231   8.195   7.234   0.923
 5764TIP3   OH217232   7.907   2.333   6.077
 5764TIP3    H117233   7.866   2.373   5.999
 5764TIP3    H217234   7.993   2.305   6.047
 5765TIP3   OH217235   8.375   3.255   3.374
 5765TIP3    H117236   8.312   3.196   3.416
 5765TIP3    H217237   8.441   3.272   3.442
 5766TIP3   OH217238   5.535   2.753   4.642
 5766TIP3    H117239   5.476   2.732   4.569
 5766TIP3    H217240   5.495   2.711   4.718
 5767TIP3   OH217241   4.803   0.179   4.956
 5767TIP3    H117242   4.834   0.101   5.002
 5767TIP3    H217243   4.855   0.250   4.992
 5768TIP3   OH217244   1.057   5.832   2.297
 5768TIP3    H117245   1.057   5.885   2.377
 5768TIP3    H217246   1.002   5.757   2.319
 5769TIP3   OH217247   7.177   3.380   2.910
 5769TIP3    H117248   7.155   3.315   2.977
 5769TIP3    H217249   7.246   3.338   2.858
 5770TIP3   OH217250   1.276   5.098   0.312
 5770TIP3    H117251   1.215   5.145   0.255
 5770TIP3    H217252   1.345   5.161   0.332
 5771TIP3   OH217253   7.370   6.944   1.820
 5771TIP3    H117254   7.409   7.031   1.827
 5771TIP3    H217255   7.444   6.886   1.800
 5772TIP3   OH217256   0.585   6.343   6.499
 5772TIP3    H117257   0.603   6.290   6.577
 5772TIP3    H217258   0.543   6.422   6.534
 5773TIP3   OH217259   3.549   3.509   2.542
 5773TIP3    H117260   3.485   3.506   2.614
 5773TIP3    H217261   3.496   3.518   2.463
 5774TIP3   OH217262   5.573   4.874   4.314
 5774TIP3    H117263   5.658   4.902   4.349
 5774TIP3    H217264   5.574   4.902   4.223
 5775TIP3   OH217265   2.420   2.628   1.865
 5775TIP3    H117266   2.439   2.667   1.950
 5775TIP3    H217267   2.362   2.555   1.884
 5776TIP3   OH217268   4.365   2.449   3.177
 5776TIP3    H117269   4.312   2.527   3.198
 5776TIP3    H217270   4.300   2.380   3.162
 5777TIP3   OH217271   4.685   6.850   0.963
 5777TIP3    H117272   4.625   6.866   0.891
 5777TIP3    H217273   4.673   6.924   1.022
 5778TIP3   OH217274   2.875   0.842   3.496
 5778TIP3    H117275   2.806   0.778   3.476
 5778TIP3    H217276   2.831   0.908   3.551
 5779TIP3   OH217277   7.720   0.618   3.182
 5779TIP3    H117278   7.645   0.563   3.204
 5779TIP3    H217279   7.705   0.643   3.091
 5780TIP3   OH217280   3.514   6.502   2.042
 5780TIP3    H117281   3.437   6.521   1.987
 5780TIP3    H217282   3.562   6.435   1.994
 5781TIP3   OH217283   1.154   2.501   2.963
 5781TIP3    H117284   1.190   2.525   3.049
 5781TIP3    H217285   1.068   2.464   2.983
 5782TIP3   OH217286   4.337   4.617   4.664
 5782TIP3    H117287   4.279   4.541   4.659
 5782TIP3    H217288   4.308   4.675   4.594
 5783TIP3   OH217289   4.596   5.721   5.916
 5783TIP3    H117290   4.514   5.753   5.880
 5783TIP3    H217291   4.625   5.790   5.975
 5784TIP3   OH217292   6.171   7.280   0.646
 5784TIP3    H117293   6.111   7.353   0.660
 5784TIP3    H217294   6.175   7.236   0.731
 5785TIP3   OH217295   0.528   5.498   0.044
 5785TIP3    H117296   0.458   5.539   0.093
 5785TIP3    H217297   0.594   5.476   0.110
 5786TIP3   OH217298   0.902   5.327   6.391
 5786TIP3    H117299   0.872   5.292   6.307
 5786TIP3    H217300   0.935   5.414   6.371
 5787TIP3   OH217301   6.809   2.418   2.213
 5787TIP3    H117302   6.728   2.367   2.223
 5787TIP3    H217303   6.785   2.507   2.239
 5788TIP3   OH217304   0.083   3.505   1.691
 5788TIP3    H117305   0.124   3.541   1.769
 5788TIP3    H217306  -0.002   3.473   1.721
 5789TIP3   OH217307   4.848   3.647   1.354
 5789TIP3    H117308   4.791   3.672   1.427
 5789TIP3    H217309   4.790   3.642   1.278
 5790TIP3   OH217310   2.028   4.703   3.683
 5790TIP3    H117311   2.053   4.611   3.681
 5790TIP3    H217312   1.946   4.705   3.733
 5791TIP3   OH217313   5.065   2.169   4.540
 5791TIP3    H117314   5.085   2.118   4.461
 5791TIP3    H217315   5.150   2.199   4.571
 5792TIP3   OH217316   7.001   1.584   3.537
 5792TIP3    H117317   6.907   1.595   3.529
 5792TIP3    H217318   7.014   1.550   3.626
 5793TIP3   OH217319   6.955   4.329   4.702
 5793TIP3    H117320   6.918   4.410   4.667
 5793TIP3    H217321   7.007   4.294   4.630
 5794TIP3   OH217322   0.729   7.682   3.252
 5794TIP3    H117323   0.745   7.702   3.160
 5794TIP3    H217324   0.705   7.767   3.291
 5795TIP3   OH217325   7.585   2.978   0.065
 5795TIP3    H117326   7.667   3.000   0.108
 5795TIP3    H217327   7.562   2.892   0.099
 5796TIP3   OH217328   5.777   3.313   5.709
 5796TIP3    H117329   5.719   3.247   5.671
 5796TIP3    H217330   5.757   3.312   5.802
 5797TIP3   OH217331   6.928   0.359   0.940
 5797TIP3    H117332   6.866   0.427   0.968
 5797TIP3    H217333   7.004   0.372   0.996
 5798TIP3   OH217334   1.161   1.519   3.633
 5798TIP3    H117335   1.165   1.516   3.729
 5798TIP3    H217336   1.107   1.595   3.613
 5799TIP3   OH217337   6.349   5.317   3.839
 5799TIP3    H117338   6.383   5.384   3.779
 5799TIP3    H217339   6.426   5.267   3.865
 5800TIP3   OH217340   5.432   4.140   5.081
 5800TIP3    H117341   5.513   4.115   5.035
 5800TIP3    H217342   5.423   4.076   5.151
 5801TIP3   OH217343   3.304   6.032   6.769
 5801TIP3    H117344   3.339   6.035   6.857
 5801TIP3    H217345   3.380   6.018   6.713
 5802TIP3   OH217346   1.463   2.491   1.482
 5802TIP3    H117347   1.420   2.406   1.477
 5802TIP3    H217348   1.403   2.545   1.535
 5803TIP3   OH217349   6.617   4.353   3.991
 5803TIP3    H117350   6.640   4.261   3.974
 5803TIP3    H217351   6.539   4.349   4.047
 5804TIP3   OH217352   3.529   4.552   6.768
 5804TIP3    H117353   3.604   4.560   6.708
 5804TIP3    H217354   3.558   4.488   6.833
 5805TIP3   OH217355   3.170   1.308   6.398
 5805TIP3    H117356   3.254   1.349   6.374
 5805TIP3    H217357   3.112   1.329   6.325
 5806TIP3   OH217358   4.537   7.787   5.679
 5806TIP3    H117359   4.529   7.817   5.769
 5806TIP3    H217360   4.524   7.866   5.626
 5807TIP3   OH217361   2.992   7.188   0.200
 5807TIP3    H117362   2.914   7.161   0.249
 5807TIP3    H217363   3.064   7.142   0.242
 5808TIP3   OH217364   0.039   7.770   5.899
 5808TIP3    H117365  -0.005   7.757   5.983
 5808TIP3    H217366   0.054   7.681   5.866
 5809TIP3   OH217367   7.468   3.822   2.638
 5809TIP3    H117368   7.443   3.742   2.685
 5809TIP3    H217369   7.543   3.794   2.584
 5810TIP3   OH217370   6.132   4.144   2.297
 5810TIP3    H117371   6.165   4.232   2.278
 5810TIP3    H217372   6.179   4.087   2.236
 5811TIP3   OH217373   2.962   5.121   2.441
 5811TIP3    H117374   3.034   5.183   2.451
 5811TIP3    H217375   2.883   5.175   2.444
 5812TIP3   OH217376   2.325   0.911   2.671
 5812TIP3    H117377   2.347   0.818   2.664
 5812TIP3    H217378   2.282   0.931   2.588
 5813TIP3   OH217379   7.897   6.499   4.873
 5813TIP3    H117380   7.990   6.494   4.896
 5813TIP3    H217381   7.889   6.447   4.793
 5814TIP3   OH217382   2.189   0.591   2.920
 5814TIP3    H117383   2.111   0.644   2.903
 5814TIP3    H217384   2.160   0.501   2.907
 5815TIP3   OH217385   0.308   7.352   1.274
 5815TIP3    H117386   0.333   7.264   1.246
 5815TIP3    H217387   0.344   7.410   1.207
 5816TIP3   OH217388   3.721   3.083   6.330
 5816TIP3    H117389   3.764   3.065   6.414
 5816TIP3    H217390   3.652   3.017   6.324
 5817TIP3   OH217391   3.631   6.332   4.139
 5817TIP3    H117392   3.646   6.413   4.089
 5817TIP3    H217393   3.549   6.297   4.105
 5818TIP3   OH217394   6.135   4.779   3.572
 5818TIP3    H117395   6.214   4.802   3.620
 5818TIP3    H217396   6.117   4.856   3.518
 5819TIP3   OH217397   6.754   2.336   4.289
 5819TIP3    H117398   6.836   2.297   4.320
 5819TIP3    H217399   6.719   2.273   4.226
 5820TIP3   OH217400   2.878   5.395   1.340
 5820TIP3    H117401   2.795   5.350   1.355
 5820TIP3    H217402   2.944   5.339   1.382
 5821TIP3   OH217403   1.645   2.647   3.660
 5821TIP3    H117404   1.618   2.737   3.678
 5821TIP3    H217405   1.670   2.612   3.746
 5822TIP3   OH217406   1.663   1.547   2.974
 5822TIP3    H117407   1.647   1.509   2.888
 5822TIP3    H217408   1.591   1.609   2.987
 5823TIP3   OH217409   4.970   5.342   3.071
 5823TIP3    H117410   4.941   5.360   2.981
 5823TIP3    H217411   4.950   5.249   3.084
 5824TIP3   OH217412   1.935   3.535   0.462
 5824TIP3    H117413   1.890   3.515   0.380
 5824TIP3    H217414   2.019   3.491   0.455
 5825TIP3   OH217415   5.641   1.526   4.944
 5825TIP3    H117416   5.551   1.523   4.976
 5825TIP3    H217417   5.635   1.556   4.854
 5826TIP3   OH217418   7.330   1.731   6.265
 5826TIP3    H117419   7.402   1.781   6.227
 5826TIP3    H217420   7.263   1.796   6.286
 5827TIP3   OH217421   6.942   4.687   6.696
 5827TIP3    H117422   7.003   4.691   6.622
 5827TIP3    H217423   6.859   4.719   6.660
 5828TIP3   OH217424   7.836   2.107   1.762
 5828TIP3    H117425   7.783   2.146   1.693
 5828TIP3    H217426   7.884   2.181   1.800
 5829TIP3   OH217427   2.006   6.140   3.107
 5829TIP3    H117428   2.021   6.134   3.013
 5829TIP3    H217429   2.018   6.233   3.127
 5830TIP3   OH217430   4.481   2.693   2.476
 5830TIP3    H117431   4.517   2.640   2.405
 5830TIP3    H217432   4.405   2.643   2.507
 5831TIP3   OH217433   7.627   3.599   0.010
 5831TIP3    H117434   7.545   3.617   0.056
 5831TIP3    H217435   7.689   3.662   0.047
 5832TIP3   OH217436   2.714   1.485   1.625
 5832TIP3    H117437   2.722   1.391   1.642
 5832TIP3    H217438   2.715   1.492   1.529
 5833TIP3   OH217439   1.972   7.316   1.649
 5833TIP3    H117440   2.038   7.338   1.583
 5833TIP3    H217441   1.952   7.224   1.631
 5834TIP3   OH217442   3.627   0.525   4.189
 5834TIP3    H117443   3.635   0.610   4.146
 5834TIP3    H217444   3.564   0.477   4.136
 5835TIP3   OH217445   5.190   5.222   6.388
 5835TIP3    H117446   5.211   5.307   6.427
 5835TIP3    H217447   5.273   5.192   6.349
 5836TIP3   OH217448   6.213   1.103   2.386
 5836TIP3    H117449   6.259   1.066   2.310
 5836TIP3    H217450   6.273   1.090   2.459
 5837TIP3   OH217451   0.460   5.469   3.921
 5837TIP3    H117452   0.395   5.536   3.940
 5837TIP3    H217453   0.425   5.390   3.962
 5838TIP3   OH217454   5.709   4.484   1.006
 5838TIP3    H117455   5.713   4.426   0.930
 5838TIP3    H217456   5.616   4.507   1.014
 5839TIP3   OH217457   5.819   0.239   4.537
 5839TIP3    H117458   5.819   0.285   4.621
 5839TIP3    H217459   5.772   0.298   4.478
 5840TIP3   OH217460   7.488   1.395   0.260
 5840TIP3    H117461   7.548   1.368   0.330
 5840TIP3    H217462   7.492   1.490   0.259
 5841TIP3   OH217463   6.451   4.034   1.100
 5841TIP3    H117464   6.431   4.033   1.007
 5841TIP3    H217465   6.367   4.053   1.142
 5842TIP3   OH217466   7.261   4.781   0.026
 5842TIP3    H117467   7.268   4.854  -0.037
 5842TIP3    H217468   7.173   4.790   0.063
 5843TIP3   OH217469   7.630   4.962   2.278
 5843TIP3    H117470   7.699   5.010   2.233
 5843TIP3    H217471   7.553   5.018   2.271
 5844TIP3   OH217472   0.439   4.703   2.196
 5844TIP3    H117473   0.387   4.772   2.237
 5844TIP3    H217474   0.379   4.628   2.189
 5845TIP3   OH217475   7.499   6.357   3.214
 5845TIP3    H117476   7.489   6.376   3.307
 5845TIP3    H217477   7.499   6.262   3.209
 5846TIP3   OH217478   4.212   4.214   5.971
 5846TIP3    H117479   4.172   4.287   6.019
 5846TIP3    H217480   4.255   4.162   6.039
 5847TIP3   OH217481   4.869   7.237   5.012
 5847TIP3    H117482   4.815   7.158   5.012
 5847TIP3    H217483   4.924   7.228   5.090
 5848TIP3   OH217484   3.247   5.947   4.771
 5848TIP3    H117485   3.192   6.025   4.760
 5848TIP3    H217486   3.312   5.974   4.836
 5849TIP3   OH217487   0.593   5.485   2.137
 5849TIP3    H117488   0.557   5.552   2.080
 5849TIP3    H217489   0.685   5.478   2.112
 5850TIP3   OH217490   5.544   2.895   4.307
 5850TIP3    H117491   5.516   2.985   4.321
 5850TIP3    H217492   5.486   2.862   4.238
 5851TIP3   OH217493   1.270   2.239   5.861
 5851TIP3    H117494   1.194   2.225   5.804
 5851TIP3    H217495   1.336   2.178   5.828
 5852TIP3   OH217496   8.286   0.182   5.814
 5852TIP3    H117497   8.289   0.096   5.854
 5852TIP3    H217498   8.219   0.230   5.864
 5853TIP3   OH217499   4.510   0.354   3.491
 5853TIP3    H117500   4.506   0.436   3.540
 5853TIP3    H217501   4.525   0.382   3.400
 5854TIP3   OH217502   6.644   4.045   0.619
 5854TIP3    H117503   6.705   3.990   0.570
 5854TIP3    H217504   6.686   4.056   0.705
 5855TIP3   OH217505   5.467   6.622   5.493
 5855TIP3    H117506   5.409   6.589   5.424
 5855TIP3    H217507   5.471   6.716   5.479
 5856TIP3   OH217508   7.380   3.573   6.178
 5856TIP3    H117509   7.446   3.524   6.129
 5856TIP3    H217510   7.318   3.506   6.208
 5857TIP3   OH217511   7.369   4.421   5.819
 5857TIP3    H117512   7.462   4.418   5.837
 5857TIP3    H217513   7.345   4.513   5.832
 5858TIP3   OH217514   5.161   6.723   2.853
 5858TIP3    H117515   5.203   6.701   2.936
 5858TIP3    H217516   5.080   6.671   2.851
 5859TIP3   OH217517   0.582   4.535   6.201
 5859TIP3    H117518   0.639   4.607   6.174
 5859TIP3    H217519   0.552   4.560   6.289
 5860TIP3   OH217520   7.700   7.329   3.326
 5860TIP3    H117521   7.684   7.251   3.273
 5860TIP3    H217522   7.637   7.323   3.398
 5861TIP3   OH217523   4.207   5.015   4.783
 5861TIP3    H117524   4.197   5.035   4.690
 5861TIP3    H217525   4.302   5.002   4.794
 5862TIP3   OH217526   5.266   1.811   1.049
 5862TIP3    H117527   5.221   1.781   1.128
 5862TIP3    H217528   5.260   1.737   0.989
 5863TIP3   OH217529   7.803   0.663   4.959
 5863TIP3    H117530   7.857   0.736   4.989
 5863TIP3    H217531   7.747   0.642   5.034
 5864TIP3   OH217532   3.137   0.032   0.520
 5864TIP3    H117533   3.107   0.122   0.526
 5864TIP3    H217534   3.096  -0.002   0.440
 5865TIP3   OH217535   4.101   2.819   1.100
 5865TIP3    H117536   4.053   2.881   1.044
 5865TIP3    H217537   4.072   2.733   1.071
 5866TIP3   OH217538   0.223   3.299   4.588
 5866TIP3    H117539   0.244   3.286   4.495
 5866TIP3    H217540   0.143   3.248   4.601
 5867TIP3   OH217541   1.158   7.472   4.007
 5867TIP3    H117542   1.138   7.471   3.913
 5867TIP3    H217543   1.252   7.457   4.011
 5868TIP3   OH217544   0.640   6.082   5.542
 5868TIP3    H117545   0.622   6.039   5.626
 5868TIP3    H217546   0.613   6.018   5.476
 5869TIP3   OH217547   5.975   1.067   1.616
 5869TIP3    H117548   5.892   1.050   1.571
 5869TIP3    H217549   5.971   1.014   1.696
 5870TIP3   OH217550   4.532   0.085   4.021
 5870TIP3    H117551   4.560   0.141   3.948
 5870TIP3    H217552   4.580   0.003   4.009
 5871TIP3   OH217553   2.182   1.680   3.614
 5871TIP3    H117554   2.244   1.713   3.679
 5871TIP3    H217555   2.172   1.752   3.552
 5872TIP3   OH217556   7.562   4.700   0.465
 5872TIP3    H117557   7.483   4.712   0.517
 5872TIP3    H217558   7.542   4.740   0.381
 5873TIP3   OH217559   4.929   0.123   0.325
 5873TIP3    H117560   4.842   0.083   0.314
 5873TIP3    H217561   4.969   0.118   0.238
 5874TIP3   OH217562   4.319   7.677   0.671
 5874TIP3    H117563   4.296   7.585   0.658
 5874TIP3    H217564   4.251   7.709   0.731
 5875TIP3   OH217565   7.830   6.205   6.133
 5875TIP3    H117566   7.920   6.224   6.107
 5875TIP3    H217567   7.781   6.204   6.051
 5876TIP3   OH217568   7.477   6.385   6.744
 5876TIP3    H117569   7.400   6.348   6.700
 5876TIP3    H217570   7.547   6.323   6.726
 5877TIP3   OH217571   1.456   3.802   1.384
 5877TIP3    H117572   1.478   3.889   1.417
 5877TIP3    H217573   1.506   3.742   1.438
 5878TIP3   OH217574   0.021   7.337   0.240
 5878TIP3    H117575   0.087   7.386   0.191
 5878TIP3    H217576   0.070   7.267   0.283
 5879TIP3   OH217577   8.337   5.709   1.543
 5879TIP3    H117578   8.416   5.718   1.489
 5879TIP3    H217579   8.359   5.640   1.606
 5880TIP3   OH217580   5.479   4.361   1.577
 5880TIP3    H117581   5.497   4.443   1.532
 5880TIP3    H217582   5.427   4.310   1.515
 5881TIP3   OH217583   1.888   7.746   1.794
 5881TIP3    H117584   1.952   7.676   1.806
 5881TIP3    H217585   1.914   7.789   1.712
 5882TIP3   OH217586   7.363   0.708   6.514
 5882TIP3    H117587   7.446   0.671   6.544
 5882TIP3    H217588   7.378   0.803   6.513
 5883TIP3   OH217589   7.762   2.576   5.366
 5883TIP3    H117590   7.727   2.606   5.450
 5883TIP3    H217591   7.845   2.534   5.388
 5884TIP3   OH217592   3.542   5.779   4.323
 5884TIP3    H117593   3.562   5.721   4.396
 5884TIP3    H217594   3.450   5.762   4.303
 5885TIP3   OH217595   2.887   0.093   5.085
 5885TIP3    H117596   2.966   0.040   5.088
 5885TIP3    H217597   2.909   0.168   5.029
 5886TIP3   OH217598   0.621   7.187   1.092
 5886TIP3    H117599   0.544   7.144   1.129
 5886TIP3    H217600   0.673   7.214   1.168
 5887TIP3   OH217601   7.386   3.985   0.865
 5887TIP3    H117602   7.401   3.900   0.823
 5887TIP3    H217603   7.292   4.000   0.858
 5888TIP3   OH217604   8.312   7.747   2.003
 5888TIP3    H117605   8.276   7.658   2.000
 5888TIP3    H217606   8.243   7.800   2.044
 5889TIP3   OH217607   7.185   7.058   4.893
 5889TIP3    H117608   7.231   7.081   4.974
 5889TIP3    H217609   7.255   7.030   4.833
 5890TIP3   OH217610   4.076   2.706   2.430
 5890TIP3    H117611   4.134   2.782   2.441
 5890TIP3    H217612   4.029   2.699   2.513
 5891TIP3   OH217613   8.059   7.871   2.066
 5891TIP3    H117614   8.059   7.942   2.130
 5891TIP3    H217615   8.039   7.914   1.982
 5892TIP3   OH217616   3.630   4.973   1.415
 5892TIP3    H117617   3.696   4.942   1.477
 5892TIP3    H217618   3.680   5.010   1.343
 5893TIP3   OH217619   1.617   5.090   3.268
 5893TIP3    H117620   1.643   5.002   3.295
 5893TIP3    H217621   1.700   5.133   3.244
 5894TIP3   OH217622   3.652   6.516   4.972
 5894TIP3    H117623   3.631   6.596   4.924
 5894TIP3    H217624   3.582   6.455   4.950
 5895TIP3   OH217625   8.076   0.575   4.301
 5895TIP3    H117626   8.012   0.543   4.237
 5895TIP3    H217627   8.147   0.611   4.248
 5896TIP3   OH217628   4.899   4.106   2.489
 5896TIP3    H117629   4.915   4.047   2.416
 5896TIP3    H217630   4.987   4.130   2.520
 5897TIP3   OH217631   0.848   5.634   0.980
 5897TIP3    H117632   0.831   5.565   1.044
 5897TIP3    H217633   0.839   5.715   1.029
 5898TIP3   OH217634   2.498   3.061   3.526
 5898TIP3    H117635   2.473   2.970   3.508
 5898TIP3    H217636   2.576   3.075   3.472
 5899TIP3   OH217637   5.004   4.934   6.488
 5899TIP3    H117638   4.935   4.869   6.500
 5899TIP3    H217639   4.962   5.004   6.436
 5900TIP3   OH217640   6.513   2.091   6.525
 5900TIP3    H117641   6.541   2.118   6.612
 5900TIP3    H217642   6.593   2.095   6.472
 5901TIP3   OH217643   8.333   3.450   2.280
 5901TIP3    H117644   8.340   3.354   2.282
 5901TIP3    H217645   8.332   3.476   2.372
 5902TIP3   OH217646   0.620   7.446   3.220
 5902TIP3    H117647   0.536   7.453   3.175
 5902TIP3    H217648   0.642   7.536   3.245
 5903TIP3   OH217649   5.351   6.872   4.572
 5903TIP3    H117650   5.410   6.796   4.568
 5903TIP3    H217651   5.274   6.845   4.522
 5904TIP3   OH217652   5.565   3.377   0.527
 5904TIP3    H117653   5.608   3.327   0.596
 5904TIP3    H217654   5.495   3.320   0.496
 5905TIP3   OH217655   8.264   1.089   2.334
 5905TIP3    H117656   8.334   1.042   2.378
 5905TIP3    H217657   8.236   1.029   2.265
 5906TIP3   OH217658   5.532   3.512   4.725
 5906TIP3    H117659   5.491   3.595   4.749
 5906TIP3    H217660   5.497   3.492   4.638
 5907TIP3   OH217661   3.630   0.507   3.816
 5907TIP3    H117662   3.604   0.597   3.795
 5907TIP3    H217663   3.582   0.486   3.895
 5908TIP3   OH217664   4.149   6.886   0.969
 5908TIP3    H117665   4.179   6.857   0.883
 5908TIP3    H217666   4.055   6.865   0.970
 5909TIP3   OH217667   8.065   6.928   3.495
 5909TIP3    H117668   8.071   6.839   3.529
 5909TIP3    H217669   8.103   6.923   3.408
 5910TIP3   OH217670   7.129   2.381   0.293
 5910TIP3    H117671   7.194   2.381   0.223
 5910TIP3    H217672   7.142   2.465   0.338
 5911TIP3   OH217673   5.951   5.042   3.581
 5911TIP3    H117674   6.005   5.112   3.617
 5911TIP3    H217675   5.948   4.976   3.651
 5912TIP3   OH217676   6.047   5.264   3.707
 5912TIP3    H117677   6.098   5.279   3.786
 5912TIP3    H217678   5.974   5.326   3.714
 5913TIP3   OH217679   1.619   7.516   5.168
 5913TIP3    H117680   1.673   7.456   5.116
 5913TIP3    H217681   1.529   7.490   5.149
 5914TIP3   OH217682   8.016   7.112   6.267
 5914TIP3    H117683   8.037   7.111   6.174
 5914TIP3    H217684   8.088   7.063   6.307
 5915TIP3   OH217685   8.174   2.457   4.748
 5915TIP3    H117686   8.254   2.447   4.697
 5915TIP3    H217687   8.137   2.369   4.752
 5916TIP3   OH217688   1.423   1.842   2.149
 5916TIP3    H117689   1.361   1.904   2.110
 5916TIP3    H217690   1.505   1.891   2.156
 5917TIP3   OH217691   6.574   4.215   0.193
 5917TIP3    H117692   6.543   4.125   0.195
 5917TIP3    H217693   6.603   4.228   0.102
 5918TIP3   OH217694   8.203   0.760   3.254
 5918TIP3    H117695   8.108   0.765   3.246
 5918TIP3    H217696   8.218   0.742   3.347
 5919TIP3   OH217697   2.348   6.080   3.676
 5919TIP3    H117698   2.317   6.005   3.625
 5919TIP3    H217699   2.429   6.049   3.718
 5920TIP3   OH217700   0.680   1.322   4.407
 5920TIP3    H117701   0.680   1.416   4.427
 5920TIP3    H217702   0.593   1.306   4.370
 5921TIP3   OH217703  -0.009   2.737   5.700
 5921TIP3    H117704   0.056   2.684   5.655
 5921TIP3    H217705   0.035   2.767   5.780
 5922TIP3   OH217706   2.928   1.026   5.481
 5922TIP3    H117707   2.986   1.085   5.529
 5922TIP3    H217708   2.853   1.013   5.539
 5923TIP3   OH217709   1.251   3.024   0.686
 5923TIP3    H117710   1.326   2.977   0.722
 5923TIP3    H217711   1.182   3.014   0.753
 5924TIP3   OH217712   5.662   3.986   1.772
 5924TIP3    H117713   5.578   4.022   1.802
 5924TIP3    H217714   5.674   4.025   1.685
 5925TIP3   OH217715   1.015   1.889   2.577
 5925TIP3    H117716   0.977   1.803   2.596
 5925TIP3    H217717   1.000   1.940   2.657
 5926TIP3   OH217718   0.474   2.760   4.146
 5926TIP3    H117719   0.465   2.679   4.097
 5926TIP3    H217720   0.459   2.829   4.081
 5927TIP3   OH217721   5.459   7.651   1.545
 5927TIP3    H117722   5.502   7.631   1.462
 5927TIP3    H217723   5.382   7.593   1.546
 5928TIP3   OH217724   6.066   3.038   0.513
 5928TIP3    H117725   6.126   3.054   0.440
 5928TIP3    H217726   6.114   3.067   0.590
 5929TIP3   OH217727   2.406   2.554   4.680
 5929TIP3    H117728   2.420   2.604   4.761
 5929TIP3    H217729   2.311   2.554   4.669
 5930TIP3   OH217730   3.799   2.761   5.570
 5930TIP3    H117731   3.761   2.696   5.510
 5930TIP3    H217732   3.833   2.709   5.642
 5931TIP3   OH217733   6.973   1.908   2.831
 5931TIP3    H117734   6.924   1.917   2.913
 5931TIP3    H217735   6.910   1.870   2.770
 5932TIP3   OH217736   7.067   3.439   1.503
 5932TIP3    H117737   7.067   3.509   1.438
 5932TIP3    H217738   6.991   3.385   1.480
 5933TIP3   OH217739   6.107   7.900   0.538
 5933TIP3    H117740   6.140   7.989   0.525
 5933TIP3    H217741   6.174   7.844   0.498
 5934TIP3   OH217742   6.780   1.819   4.512
 5934TIP3    H117743   6.731   1.881   4.458
 5934TIP3    H217744   6.815   1.756   4.449
 5935TIP3   OH217745   7.909   5.559   6.689
 5935TIP3    H117746   7.872   5.480   6.649
 5935TIP3    H217747   7.895   5.547   6.783
 5936TIP3   OH217748   5.961   2.680   3.204
 5936TIP3    H117749   5.877   2.673   3.249
 5936TIP3    H217750   5.938   2.709   3.116
 5937TIP3   OH217751   3.722   6.243   3.401
 5937TIP3    H117752   3.787   6.199   3.456
 5937TIP3    H217753   3.666   6.172   3.369
 5938TIP3   OH217754   3.304   3.893   6.144
 5938TIP3    H117755   3.366   3.883   6.073
 5938TIP3    H217756   3.353   3.870   6.223
 5939TIP3   OH217757   0.377   5.355   4.174
 5939TIP3    H117758   0.323   5.275   4.173
 5939TIP3    H217759   0.465   5.325   4.151
 5940TIP3   OH217760   3.095   4.724   0.850
 5940TIP3    H117761   3.108   4.814   0.823
 5940TIP3    H217762   3.043   4.685   0.780
 5941TIP3   OH217763   5.600   0.605   2.703
 5941TIP3    H117764   5.609   0.525   2.652
 5941TIP3    H217765   5.632   0.582   2.791
 5942TIP3   OH217766   4.575   0.362   0.275
 5942TIP3    H117767   4.594   0.366   0.369
 5942TIP3    H217768   4.509   0.293   0.266
 5943TIP3   OH217769   2.731   0.985   5.076
 5943TIP3    H117770   2.797   1.047   5.106
 5943TIP3    H217771   2.648   1.019   5.110
 5944TIP3   OH217772   2.583   1.660   0.836
 5944TIP3    H117773   2.570   1.700   0.750
 5944TIP3    H217774   2.677   1.665   0.851
 5945TIP3   OH217775   6.700   5.292   6.840
 5945TIP3    H117776   6.731   5.381   6.826
 5945TIP3    H217777   6.604   5.300   6.843
 5946TIP3   OH217778   2.777   7.038   5.454
 5946TIP3    H117779   2.815   6.989   5.381
 5946TIP3    H217780   2.714   7.097   5.413
 5947TIP3   OH217781   7.475   2.397   5.244
 5947TIP3    H117782   7.399   2.340   5.254
 5947TIP3    H217783   7.547   2.348   5.283
 5948TIP3   OH217784   4.736   5.406   0.766
 5948TIP3    H117785   4.762   5.477   0.707
 5948TIP3    H217786   4.819   5.370   0.798
 5949TIP3   OH217787   5.437   3.727   4.207
 5949TIP3    H117788   5.439   3.803   4.149
 5949TIP3    H217789   5.515   3.736   4.261
 5950TIP3   OH217790   0.266   5.864   5.928
 5950TIP3    H117791   0.308   5.892   6.010
 5950TIP3    H217792   0.178   5.838   5.954
 5951TIP3   OH217793   4.007   7.213   1.096
 5951TIP3    H117794   4.077   7.265   1.135
 5951TIP3    H217795   3.983   7.150   1.164
 5952TIP3   OH217796   7.274   5.819   6.448
 5952TIP3    H117797   7.365   5.826   6.421
 5952TIP3    H217798   7.231   5.771   6.376
 5953TIP3   OH217799   3.717   3.183   1.842
 5953TIP3    H117800   3.736   3.102   1.889
 5953TIP3    H217801   3.759   3.252   1.895
 5954TIP3   OH217802   3.049   0.856   5.810
 5954TIP3    H117803   3.087   0.853   5.722
 5954TIP3    H217804   3.039   0.764   5.835
 5955TIP3   OH217805   6.627   3.369   4.037
 5955TIP3    H117806   6.589   3.444   4.082
 5955TIP3    H217807   6.580   3.293   4.072
 5956TIP3   OH217808   7.956   2.411   4.540
 5956TIP3    H117809   7.931   2.383   4.628
 5956TIP3    H217810   8.048   2.384   4.532
 5957TIP3   OH217811   1.805   1.992   0.490
 5957TIP3    H117812   1.791   2.085   0.509
 5957TIP3    H217813   1.878   1.967   0.546
 5958TIP3   OH217814   3.636   3.982   1.748
 5958TIP3    H117815   3.713   4.035   1.766
 5958TIP3    H217816   3.607   3.952   1.835
 5959TIP3   OH217817   0.794   0.436   6.050
 5959TIP3    H117818   0.860   0.506   6.046
 5959TIP3    H217819   0.790   0.413   6.143
 5960TIP3   OH217820   5.590   5.211   3.988
 5960TIP3    H117821   5.679   5.177   3.982
 5960TIP3    H217822   5.581   5.236   4.080
 5961TIP3   OH217823   7.449   7.134   2.828
 5961TIP3    H117824   7.499   7.139   2.746
 5961TIP3    H217825   7.371   7.186   2.811
 5962TIP3   OH217826   6.320   3.053   5.599
 5962TIP3    H117827   6.272   2.976   5.630
 5962TIP3    H217828   6.254   3.122   5.596
 5963TIP3   OH217829   2.853   1.201   2.461
 5963TIP3    H117830   2.792   1.193   2.534
 5963TIP3    H217831   2.872   1.295   2.456
 5964TIP3   OH217832   1.118   7.331   1.622
 5964TIP3    H117833   1.056   7.389   1.576
 5964TIP3    H217834   1.157   7.387   1.689
 5965TIP3   OH217835   1.577   1.694   5.215
 5965TIP3    H117836   1.614   1.631   5.153
 5965TIP3    H217837   1.607   1.779   5.185
 5966TIP3   OH217838   1.256   3.843   0.792
 5966TIP3    H117839   1.276   3.921   0.843
 5966TIP3    H217840   1.326   3.781   0.815
 5967TIP3   OH217841   0.375   3.903   3.261
 5967TIP3    H117842   0.412   3.945   3.183
 5967TIP3    H217843   0.280   3.906   3.248
 5968TIP3   OH217844   4.539   5.554   2.454
 5968TIP3    H117845   4.454   5.596   2.439
 5968TIP3    H217846   4.516   5.464   2.478
 5969TIP3   OH217847   4.890   5.895   5.923
 5969TIP3    H117848   4.818   5.934   5.972
 5969TIP3    H217849   4.878   5.801   5.934
 5970TIP3   OH217850   3.670   6.954   0.155
 5970TIP3    H117851   3.693   6.985   0.067
 5970TIP3    H217852   3.599   7.012   0.182
 5971TIP3   OH217853   5.895   0.609   2.089
 5971TIP3    H117854   5.965   0.575   2.035
 5971TIP3    H217855   5.837   0.534   2.105
 5972TIP3   OH217856   3.044   6.025   5.032
 5972TIP3    H117857   2.958   5.998   5.065
 5972TIP3    H217858   3.103   5.955   5.059
 5973TIP3   OH217859   3.423   5.135   3.838
 5973TIP3    H117860   3.469   5.065   3.790
 5973TIP3    H217861   3.375   5.088   3.907
 5974TIP3   OH217862   2.387   6.898   0.750
 5974TIP3    H117863   2.434   6.914   0.832
 5974TIP3    H217864   2.431   6.822   0.712
 5975TIP3   OH217865   4.969   7.473   4.340
 5975TIP3    H117866   5.007   7.507   4.259
 5975TIP3    H217867   4.885   7.518   4.347
 5976TIP3   OH217868   2.540   7.137   3.569
 5976TIP3    H117869   2.519   7.200   3.637
 5976TIP3    H217870   2.462   7.136   3.513
 5977TIP3   OH217871   2.442   0.595   1.694
 5977TIP3    H117872   2.504   0.662   1.665
 5977TIP3    H217873   2.392   0.637   1.764
 5978TIP3   OH217874   7.571   6.246   4.327
 5978TIP3    H117875   7.626   6.237   4.249
 5978TIP3    H217876   7.539   6.336   4.323
 5979TIP3   OH217877   8.290   7.112   3.101
 5979TIP3    H117878   8.340   7.122   3.020
 5979TIP3    H217879   8.338   7.165   3.165
 5980TIP3   OH217880   2.873   3.050   0.612
 5980TIP3    H117881   2.892   3.137   0.577
 5980TIP3    H217882   2.855   2.997   0.534
 5981TIP3   OH217883   1.276   6.987   6.094
 5981TIP3    H117884   1.351   6.931   6.113
 5981TIP3    H217885   1.293   7.068   6.142
 5982TIP3   OH217886   2.792   7.439   5.767
 5982TIP3    H117887   2.779   7.485   5.850
 5982TIP3    H217888   2.859   7.490   5.722
 5983TIP3   OH217889   4.153   7.506   4.100
 5983TIP3    H117890   4.179   7.429   4.048
 5983TIP3    H217891   4.070   7.481   4.140
 5984TIP3   OH217892   8.307   5.869   4.608
 5984TIP3    H117893   8.249   5.923   4.662
 5984TIP3    H217894   8.394   5.882   4.646
 5985TIP3   OH217895   7.110   4.450   6.547
 5985TIP3    H117896   7.151   4.366   6.528
 5985TIP3    H217897   7.018   4.439   6.524
 5986TIP3   OH217898   4.362   6.143   2.904
 5986TIP3    H117899   4.389   6.129   2.994
 5986TIP3    H217900   4.292   6.208   2.909
 5987TIP3   OH217901   7.476   5.112   1.837
 5987TIP3    H117902   7.386   5.128   1.810
 5987TIP3    H217903   7.472   5.032   1.888
 5988TIP3   OH217904   2.258   2.782   6.455
 5988TIP3    H117905   2.192   2.797   6.387
 5988TIP3    H217906   2.330   2.840   6.432
 5989TIP3   OH217907   1.508   2.235   5.208
 5989TIP3    H117908   1.556   2.179   5.146
 5989TIP3    H217909   1.417   2.230   5.179
 5990TIP3   OH217910   3.100   5.183   3.355
 5990TIP3    H117911   3.107   5.090   3.374
 5990TIP3    H217912   3.171   5.201   3.293
 5991TIP3   OH217913   6.424   0.484   3.592
 5991TIP3    H117914   6.336   0.475   3.555
 5991TIP3    H217915   6.421   0.431   3.672
 5992TIP3   OH217916   1.376   3.073   6.423
 5992TIP3    H117917   1.402   3.163   6.447
 5992TIP3    H217918   1.415   3.018   6.492
 5993TIP3   OH217919   5.926   6.030   1.648
 5993TIP3    H117920   5.853   6.043   1.588
 5993TIP3    H217921   5.885   6.003   1.730
 5994TIP3   OH217922   6.222   0.142   2.836
 5994TIP3    H117923   6.314   0.165   2.846
 5994TIP3    H217924   6.210   0.132   2.741
 5995TIP3   OH217925   7.338   5.060   3.175
 5995TIP3    H117926   7.337   4.972   3.139
 5995TIP3    H217927   7.431   5.080   3.188
 5996TIP3   OH217928   4.958   0.876   4.046
 5996TIP3    H117929   4.917   0.828   4.118
 5996TIP3    H217930   4.962   0.812   3.974
 5997TIP3   OH217931   6.016   4.445   2.081
 5997TIP3    H117932   5.967   4.371   2.045
 5997TIP3    H217933   6.006   4.514   2.015
 5998TIP3   OH217934   3.188   2.921   3.631
 5998TIP3    H117935   3.226   3.002   3.664
 5998TIP3    H217936   3.256   2.855   3.644
 5999TIP3   OH217937   7.247   7.713   1.112
 5999TIP3    H117938   7.341   7.701   1.121
 5999TIP3    H217939   7.229   7.691   1.021
 6000TIP3   OH217940   7.759   2.550   3.382
 6000TIP3    H117941   7.707   2.596   3.449
 6000TIP3    H217942   7.839   2.602   3.374
 6001TIP3   OH217943   2.594   4.275   2.674
 6001TIP3    H117944   2.632   4.301   2.758
 6001TIP3    H217945   2.668   4.277   2.613
 6002TIP3   OH217946   0.300   2.251   5.089
 6002TIP3    H117947   0.245   2.318   5.129
 6002TIP3    H217948   0.259   2.234   5.004
 6003TIP3   OH217949   3.377   7.181   3.123
 6003TIP3    H117950   3.340   7.191   3.212
 6003TIP3    H217951   3.341   7.098   3.092
 6004TIP3   OH217952   1.518   4.742   1.815
 6004TIP3    H117953   1.444   4.784   1.770
 6004TIP3    H217954   1.482   4.659   1.846
 6005TIP3   OH217955   0.589   2.626   3.164
 6005TIP3    H117956   0.510   2.612   3.216
 6005TIP3    H217957   0.573   2.709   3.118
 6006TIP3   OH217958   6.193   5.737   1.634
 6006TIP3    H117959   6.228   5.822   1.661
 6006TIP3    H217960   6.130   5.714   1.703
 6007TIP3   OH217961   5.571   4.902   5.532
 6007TIP3    H117962   5.533   4.889   5.619
 6007TIP3    H217963   5.557   4.995   5.513
 6008TIP3   OH217964   6.500   3.561   2.221
 6008TIP3    H117965   6.548   3.625   2.272
 6008TIP3    H217966   6.559   3.486   2.214
 6009TIP3   OH217967   3.525   5.184   1.269
 6009TIP3    H117968   3.521   5.102   1.219
 6009TIP3    H217969   3.534   5.157   1.360
 6010TIP3   OH217970   0.270   6.554   1.368
 6010TIP3    H117971   0.297   6.589   1.453
 6010TIP3    H217972   0.177   6.533   1.379
 6011TIP3   OH217973   4.034   7.211   2.266
 6011TIP3    H117974   4.002   7.207   2.356
 6011TIP3    H217975   4.025   7.122   2.233
 6012TIP3   OH217976   1.967   0.270   6.338
 6012TIP3    H117977   1.900   0.221   6.290
 6012TIP3    H217978   2.050   0.234   6.306
 6013TIP3   OH217979   3.131   0.984   0.650
 6013TIP3    H117980   3.048   0.985   0.697
 6013TIP3    H217981   3.169   1.070   0.669
 6014TIP3   OH217982   1.792   5.938   3.651
 6014TIP3    H117983   1.870   5.992   3.663
 6014TIP3    H217984   1.759   5.962   3.565
 6015TIP3   OH217985   0.476   2.510   2.151
 6015TIP3    H117986   0.448   2.459   2.228
 6015TIP3    H217987   0.400   2.507   2.092
 6016TIP3   OH217988   4.225   6.775   5.947
 6016TIP3    H117989   4.206   6.858   5.903
 6016TIP3    H217990   4.215   6.795   6.040
 6017TIP3   OH217991   6.152   0.912   3.145
 6017TIP3    H117992   6.237   0.939   3.179
 6017TIP3    H217993   6.159   0.818   3.133
 6018TIP3   OH217994   3.838   4.411   2.028
 6018TIP3    H117995   3.925   4.444   2.051
 6018TIP3    H217996   3.778   4.481   2.053
 6019TIP3   OH217997   4.728   5.412   4.286
 6019TIP3    H117998   4.761   5.378   4.203
 6019TIP3    H217999   4.783   5.370   4.353
 6020TIP3   OH218000   0.472   0.801   5.619
 6020TIP3    H118001   0.567   0.809   5.618
 6020TIP3    H218002   0.456   0.708   5.602
 6021TIP3   OH218003   1.657   7.755   5.818
 6021TIP3    H118004   1.641   7.701   5.741
 6021TIP3    H218005   1.748   7.785   5.807
 6022TIP3   OH218006   0.586   3.737   2.543
 6022TIP3    H118007   0.593   3.661   2.601
 6022TIP3    H218008   0.660   3.793   2.568
 6023TIP3   OH218009   7.538   7.158   1.746
 6023TIP3    H118010   7.592   7.231   1.776
 6023TIP3    H218011   7.580   7.130   1.665
 6024TIP3   OH218012   3.013   0.178   0.289
 6024TIP3    H118013   2.997   0.244   0.221
 6024TIP3    H218014   3.091   0.131   0.259
 6025TIP3   OH218015   1.376   5.903   3.494
 6025TIP3    H118016   1.380   5.863   3.582
 6025TIP3    H218017   1.341   5.834   3.438
 6026TIP3   OH218018   3.415   2.464   1.285
 6026TIP3    H118019   3.510   2.450   1.283
 6026TIP3    H218020   3.379   2.376   1.301
 6027TIP3   OH218021   1.878   4.606   0.803
 6027TIP3    H118022   1.954   4.608   0.744
 6027TIP3    H218023   1.912   4.636   0.887
 6028TIP3   OH218024   6.273   4.427   4.341
 6028TIP3    H118025   6.289   4.378   4.421
 6028TIP3    H218026   6.193   4.477   4.358
 6029TIP3   OH218027   7.237   1.597   4.293
 6029TIP3    H118028   7.332   1.590   4.284
 6029TIP3    H218029   7.213   1.667   4.232
 6030TIP3   OH218030   2.262   1.614   0.606
 6030TIP3    H118031   2.284   1.657   0.523
 6030TIP3    H218032   2.167   1.625   0.614
 6031TIP3   OH218033   5.150   3.650   4.582
 6031TIP3    H118034   5.243   3.673   4.585
 6031TIP3    H218035   5.135   3.620   4.492
 6032TIP3   OH218036   6.084   1.182   2.725
 6032TIP3    H118037   6.095   1.156   2.817
 6032TIP3    H218038   6.081   1.278   2.728
 6033TIP3   OH218039   6.478   0.599   3.079
 6033TIP3    H118040   6.532   0.595   3.158
 6033TIP3    H218041   6.512   0.530   3.022
 6034TIP3   OH218042   1.105   2.852   0.500
 6034TIP3    H118043   1.154   2.910   0.557
 6034TIP3    H218044   1.171   2.794   0.462
 6035TIP3   OH218045   7.690   7.049   1.380
 6035TIP3    H118046   7.736   7.080   1.303
 6035TIP3    H218047   7.625   7.116   1.399
 6036TIP3   OH218048   7.064   3.208   3.873
 6036TIP3    H118049   7.049   3.263   3.796
 6036TIP3    H218050   7.083   3.270   3.943
 6037TIP3   OH218051   1.020   4.167   3.890
 6037TIP3    H118052   1.028   4.082   3.933
 6037TIP3    H218053   0.991   4.227   3.959
 6038TIP3   OH218054   5.609   3.764   3.921
 6038TIP3    H118055   5.637   3.830   3.857
 6038TIP3    H218056   5.545   3.711   3.873
 6039TIP3   OH218057   0.753   4.310   6.163
 6039TIP3    H118058   0.702   4.390   6.173
 6039TIP3    H218059   0.813   4.329   6.092
 6040TIP3   OH218060   2.099   3.745   5.726
 6040TIP3    H118061   2.110   3.669   5.783
 6040TIP3    H218062   2.110   3.711   5.638
 6041TIP3   OH218063   2.581   1.318   3.235
 6041TIP3    H118064   2.620   1.249   3.290
 6041TIP3    H218065   2.540   1.271   3.163
 6042TIP3   OH218066   2.095   5.897   0.625
 6042TIP3    H118067   2.083   5.836   0.698
 6042TIP3    H218068   2.166   5.860   0.574
 6043TIP3   OH218069   2.579   5.698   0.331
 6043TIP3    H118070   2.604   5.610   0.303
 6043TIP3    H218071   2.535   5.736   0.255
 6044TIP3   OH218072   1.720   5.706   0.180
 6044TIP3    H118073   1.659   5.759   0.232
 6044TIP3    H218074   1.791   5.767   0.157
 6045TIP3   OH218075   0.406   7.095   1.211
 6045TIP3    H118076   0.346   7.021   1.216
 6045TIP3    H218077   0.468   7.082   1.282
 6046TIP3   OH218078   2.844   1.725   5.335
 6046TIP3    H118079   2.859   1.644   5.385
 6046TIP3    H218080   2.908   1.721   5.264
 6047TIP3   OH218081   6.365   1.888   2.126
 6047TIP3    H118082   6.450   1.930   2.135
 6047TIP3    H218083   6.335   1.913   2.039
 6048TIP3   OH218084   4.426   4.061   0.380
 6048TIP3    H118085   4.383   4.136   0.338
 6048TIP3    H218086   4.409   3.987   0.322
 6049TIP3   OH218087   7.843   7.355   4.104
 6049TIP3    H118088   7.930   7.392   4.088
 6049TIP3    H218089   7.810   7.401   4.181
 6050TIP3   OH218090   0.626   7.407   2.050
 6050TIP3    H118091   0.677   7.410   1.969
 6050TIP3    H218092   0.573   7.487   2.049
 6051TIP3   OH218093   5.760   7.702   2.878
 6051TIP3    H118094   5.720   7.715   2.792
 6051TIP3    H218095   5.764   7.607   2.889
 6052TIP3   OH218096   2.168   3.534   3.567
 6052TIP3    H118097   2.180   3.470   3.496
 6052TIP3    H218098   2.133   3.483   3.640
 6053TIP3   OH218099   0.684   3.388   5.257
 6053TIP3    H118100   0.604   3.428   5.225
 6053TIP3    H218101   0.673   3.294   5.241
 6054TIP3   OH218102   6.143   7.569   2.591
 6054TIP3    H118103   6.185   7.484   2.580
 6054TIP3    H218104   6.090   7.580   2.513
 6055TIP3   OH218105   7.017   3.674   1.309
 6055TIP3    H118106   6.928   3.646   1.286
 6055TIP3    H218107   7.008   3.717   1.394
 6056TIP3   OH218108   5.078   7.669   0.968
 6056TIP3    H118109   5.034   7.751   0.988
 6056TIP3    H218110   5.040   7.640   0.885
 6057TIP3   OH218111   0.698   2.501   6.570
 6057TIP3    H118112   0.663   2.559   6.638
 6057TIP3    H218113   0.766   2.451   6.615
 6058TIP3   OH218114   3.997   2.875   0.787
 6058TIP3    H118115   3.919   2.880   0.732
 6058TIP3    H218116   3.999   2.958   0.834
 6059TIP3   OH218117   7.214   7.827   2.835
 6059TIP3    H118118   7.284   7.851   2.773
 6059TIP3    H218119   7.148   7.896   2.823
 6060TIP3   OH218120   5.495   2.186   2.246
 6060TIP3    H118121   5.465   2.250   2.181
 6060TIP3    H218122   5.531   2.240   2.317
 6061TIP3   OH218123   8.213   3.780   2.599
 6061TIP3    H118124   8.170   3.849   2.549
 6061TIP3    H218125   8.284   3.825   2.645
 6062TIP3   OH218126   7.125   4.257   2.346
 6062TIP3    H118127   7.176   4.311   2.407
 6062TIP3    H218128   7.063   4.210   2.401
 6063TIP3   OH218129   7.494   4.308   1.543
 6063TIP3    H118130   7.524   4.398   1.528
 6063TIP3    H218131   7.540   4.256   1.477
 6064TIP3   OH218132   1.591   5.597   2.582
 6064TIP3    H118133   1.501   5.626   2.566
 6064TIP3    H218134   1.644   5.646   2.520
 6065TIP3   OH218135   6.323   7.255   3.033
 6065TIP3    H118136   6.418   7.257   3.024
 6065TIP3    H218137   6.301   7.338   3.074
 6066TIP3   OH218138   0.249   2.944   6.123
 6066TIP3    H118139   0.326   2.953   6.066
 6066TIP3    H218140   0.198   2.873   6.083
 6067TIP3   OH218141   5.170   3.671   2.236
 6067TIP3    H118142   5.144   3.608   2.303
 6067TIP3    H218143   5.225   3.734   2.282
 6068TIP3   OH218144   7.560   4.279   3.108
 6068TIP3    H118145   7.546   4.261   3.202
 6068TIP3    H218146   7.523   4.366   3.095
 6069TIP3   OH218147   2.777   2.156   4.953
 6069TIP3    H118148   2.781   2.066   4.922
 6069TIP3    H218149   2.807   2.151   5.044
 6070TIP3   OH218150   6.101   4.843   6.322
 6070TIP3    H118151   6.184   4.857   6.366
 6070TIP3    H218152   6.061   4.768   6.368
 6071TIP3   OH218153   3.942   7.247   1.605
 6071TIP3    H118154   4.033   7.264   1.630
 6071TIP3    H218155   3.949   7.197   1.523
 6072TIP3   OH218156   5.311   5.883   3.038
 6072TIP3    H118157   5.218   5.859   3.046
 6072TIP3    H218158   5.353   5.803   3.009
 6073TIP3   OH218159   1.971   2.178   3.168
 6073TIP3    H118160   1.882   2.208   3.187
 6073TIP3    H218161   2.028   2.244   3.207
 6074TIP3   OH218162   7.927   3.244   0.589
 6074TIP3    H118163   7.846   3.292   0.575
 6074TIP3    H218164   7.900   3.159   0.624
 6075TIP3   OH218165   4.548   0.948   6.200
 6075TIP3    H118166   4.567   1.025   6.253
 6075TIP3    H218167   4.569   0.873   6.257
 6076TIP3   OH218168   7.049   1.297   4.795
 6076TIP3    H118169   7.012   1.377   4.833
 6076TIP3    H218170   6.973   1.248   4.763
 6077TIP3   OH218171   2.501   4.656   0.658
 6077TIP3    H118172   2.519   4.564   0.678
 6077TIP3    H218173   2.455   4.689   0.734
 6078TIP3   OH218174   0.880   4.829   6.718
 6078TIP3    H118175   0.837   4.901   6.672
 6078TIP3    H218176   0.863   4.847   6.811
 6079TIP3   OH218177   5.464   1.025   0.462
 6079TIP3    H118178   5.548   1.029   0.416
 6079TIP3    H218179   5.488   1.023   0.555
 6080TIP3   OH218180   0.758   7.525   5.243
 6080TIP3    H118181   0.783   7.491   5.157
 6080TIP3    H218182   0.807   7.470   5.305
 6081TIP3   OH218183   7.687   7.626   3.985
 6081TIP3    H118184   7.674   7.615   3.890
 6081TIP3    H218185   7.777   7.599   4.000
 6082TIP3   OH218186   0.556   3.003   0.214
 6082TIP3    H118187   0.553   2.992   0.310
 6082TIP3    H218188   0.599   2.923   0.183
 6083TIP3   OH218189   4.190   4.668   1.752
 6083TIP3    H118190   4.176   4.582   1.793
 6083TIP3    H218191   4.107   4.687   1.708
 6084TIP3   OH218192   0.600   4.261   2.597
 6084TIP3    H118193   0.684   4.249   2.551
 6084TIP3    H218194   0.536   4.217   2.540
 6085TIP3   OH218195   2.120   1.995   1.956
 6085TIP3    H118196   2.205   2.040   1.956
 6085TIP3    H218197   2.114   1.954   1.870
 6086TIP3   OH218198   4.871   0.094   0.955
 6086TIP3    H118199   4.806   0.059   1.015
 6086TIP3    H218200   4.888   0.023   0.894
 6087TIP3   OH218201   2.594   3.166   2.341
 6087TIP3    H118202   2.534   3.209   2.279
 6087TIP3    H218203   2.546   3.089   2.370
 6088TIP3   OH218204   7.170   0.137   3.157
 6088TIP3    H118205   7.120   0.062   3.125
 6088TIP3    H218206   7.225   0.101   3.226
 6089TIP3   OH218207   1.119   3.211   0.546
 6089TIP3    H118208   1.167   3.131   0.565
 6089TIP3    H218209   1.085   3.240   0.631
 6090TIP3   OH218210   0.164   1.282   0.708
 6090TIP3    H118211   0.096   1.220   0.682
 6090TIP3    H218212   0.167   1.346   0.637
 6091TIP3   OH218213   3.710   0.278   5.081
 6091TIP3    H118214   3.669   0.363   5.095
 6091TIP3    H218215   3.657   0.237   5.013
 6092TIP3   OH218216   7.989   3.064   5.770
 6092TIP3    H118217   7.910   3.017   5.795
 6092TIP3    H218218   8.053   2.996   5.751
 6093TIP3   OH218219   5.996   5.967   6.660
 6093TIP3    H118220   6.076   6.011   6.630
 6093TIP3    H218221   5.926   6.005   6.606
 6094TIP3   OH218222   0.945   0.257   4.464
 6094TIP3    H118223   0.851   0.258   4.443
 6094TIP3    H218224   0.950   0.299   4.550
 6095TIP3   OH218225   0.663   2.252   0.857
 6095TIP3    H118226   0.605   2.306   0.803
 6095TIP3    H218227   0.707   2.194   0.795
 6096TIP3   OH218228   6.561   3.133   2.356
 6096TIP3    H118229   6.580   3.109   2.447
 6096TIP3    H218230   6.611   3.070   2.304
 6097TIP3   OH218231   2.022   0.436   3.381
 6097TIP3    H118232   2.061   0.500   3.322
 6097TIP3    H218233   1.965   0.383   3.325
 6098TIP3   OH218234   0.811   7.659   2.598
 6098TIP3    H118235   0.806   7.565   2.612
 6098TIP3    H218236   0.722   7.686   2.576
 6099TIP3   OH218237   6.711   1.194   5.193
 6099TIP3    H118238   6.731   1.279   5.233
 6099TIP3    H218239   6.649   1.153   5.253
 6100TIP3   OH218240   8.348   1.601   4.651
 6100TIP3    H118241   8.284   1.606   4.580
 6100TIP3    H218242   8.423   1.554   4.613
 6101TIP3   OH218243   4.853   6.426   4.511
 6101TIP3    H118244   4.766   6.413   4.473
 6101TIP3    H218245   4.853   6.518   4.539
 6102TIP3   OH218246   7.063   6.779   3.888
 6102TIP3    H118247   7.072   6.807   3.796
 6102TIP3    H218248   7.013   6.849   3.929
 6103TIP3   OH218249   4.654   3.679   2.741
 6103TIP3    H118250   4.618   3.590   2.739
 6103TIP3    H218251   4.578   3.735   2.754
 6104TIP3   OH218252   0.570   5.870   2.111
 6104TIP3    H118253   0.602   5.955   2.080
 6104TIP3    H218254   0.476   5.874   2.098
 6105TIP3   OH218255   4.422   4.738   4.967
 6105TIP3    H118256   4.429   4.650   5.006
 6105TIP3    H218257   4.340   4.736   4.919
 6106TIP3   OH218258   2.264   7.365   6.091
 6106TIP3    H118259   2.326   7.293   6.102
 6106TIP3    H218260   2.186   7.338   6.139
 6107TIP3   OH218261   5.674   7.525   2.608
 6107TIP3    H118262   5.682   7.612   2.569
 6107TIP3    H218263   5.632   7.472   2.540
 6108TIP3   OH218264   4.354   2.318   5.057
 6108TIP3    H118265   4.339   2.314   4.963
 6108TIP3    H218266   4.330   2.232   5.089
 6109TIP3   OH218267   4.856   5.104   0.258
 6109TIP3    H118268   4.768   5.139   0.248
 6109TIP3    H218269   4.845   5.026   0.312
 6110TIP3   OH218270   8.324   0.124   1.889
 6110TIP3    H118271   8.334   0.177   1.810
 6110TIP3    H218272   8.314   0.035   1.856
 6111TIP3   OH218273   2.398   5.290   4.531
 6111TIP3    H118274   2.489   5.259   4.538
 6111TIP3    H218275   2.345   5.216   4.560
 6112TIP3   OH218276   3.759   3.809   3.969
 6112TIP3    H118277   3.730   3.884   3.917
 6112TIP3    H218278   3.815   3.759   3.909
 6113TIP3   OH218279   1.615   7.883   4.720
 6113TIP3    H118280   1.630   7.977   4.727
 6113TIP3    H218281   1.700   7.844   4.742
 6114TIP3   OH218282   6.114   5.971   1.228
 6114TIP3    H118283   6.188   5.988   1.287
 6114TIP3    H218284   6.151   5.915   1.159
 6115TIP3   OH218285   7.582   0.878   0.077
 6115TIP3    H118286   7.654   0.858   0.016
 6115TIP3    H218287   7.503   0.868   0.025
 6116TIP3   OH218288   3.022   0.675   3.956
 6116TIP3    H118289   3.005   0.665   3.862
 6116TIP3    H218290   3.079   0.601   3.978
 6117TIP3   OH218291   2.708   1.845   0.377
 6117TIP3    H118292   2.744   1.818   0.461
 6117TIP3    H218293   2.628   1.794   0.367
 6118TIP3   OH218294   1.377   3.985   3.105
 6118TIP3    H118295   1.447   3.946   3.053
 6118TIP3    H218296   1.369   4.075   3.073
 6119TIP3   OH218297   1.702   0.066   6.746
 6119TIP3    H118298   1.742   0.150   6.724
 6119TIP3    H218299   1.774   0.012   6.778
 6120TIP3   OH218300   5.057   6.397   1.241
 6120TIP3    H118301   5.144   6.403   1.201
 6120TIP3    H218302   5.066   6.439   1.326
 6121TIP3   OH218303   3.689   3.760   6.446
 6121TIP3    H118304   3.712   3.799   6.362
 6121TIP3    H218305   3.749   3.685   6.455
 6122TIP3   OH218306   0.203   2.040   5.358
 6122TIP3    H118307   0.186   1.961   5.307
 6122TIP3    H218308   0.133   2.041   5.424
 6123TIP3   OH218309   0.866   4.612   4.065
 6123TIP3    H118310   0.790   4.641   4.014
 6123TIP3    H218311   0.920   4.563   4.003
 6124TIP3   OH218312   6.269   7.808   2.513
 6124TIP3    H118313   6.212   7.737   2.541
 6124TIP3    H218314   6.270   7.869   2.587
 6125TIP3   OH218315   6.238   3.994   5.149
 6125TIP3    H118316   6.253   4.028   5.237
 6125TIP3    H218317   6.170   3.927   5.160
 6126TIP3   OH218318   0.766   3.946   2.276
 6126TIP3    H118319   0.853   3.931   2.239
 6126TIP3    H218320   0.769   3.905   2.362
 6127TIP3   OH218321   3.548   5.661   6.629
 6127TIP3    H118322   3.586   5.587   6.581
 6127TIP3    H218323   3.474   5.690   6.575
 6128TIP3   OH218324   7.797   5.389   2.705
 6128TIP3    H118325   7.773   5.472   2.663
 6128TIP3    H218326   7.714   5.352   2.733
 6129TIP3   OH218327   2.636   7.688   1.881
 6129TIP3    H118328   2.723   7.725   1.895
 6129TIP3    H218329   2.608   7.722   1.796
 6130TIP3   OH218330   1.405   5.857   1.727
 6130TIP3    H118331   1.473   5.790   1.727
 6130TIP3    H218332   1.400   5.886   1.636
 6131TIP3   OH218333   8.172   6.527   3.169
 6131TIP3    H118334   8.161   6.479   3.087
 6131TIP3    H218335   8.113   6.602   3.161
 6132TIP3   OH218336   5.557   2.179   6.435
 6132TIP3    H118337   5.474   2.222   6.453
 6132TIP3    H218338   5.542   2.087   6.457
 6133TIP3   OH218339   0.324   6.544   2.077
 6133TIP3    H118340   0.411   6.516   2.105
 6133TIP3    H218341   0.267   6.470   2.096
 6134TIP3   OH218342   0.495   5.609   6.266
 6134TIP3    H118343   0.419   5.655   6.301
 6134TIP3    H218344   0.461   5.523   6.241
 6135TIP3   OH218345   0.363   0.239   2.849
 6135TIP3    H118346   0.321   0.318   2.818
 6135TIP3    H218347   0.453   0.266   2.870
 6136TIP3   OH218348   5.546   4.467   6.410
 6136TIP3    H118349   5.566   4.558   6.430
 6136TIP3    H218350   5.456   4.455   6.440
 6137TIP3   OH218351   3.950   6.683   0.124
 6137TIP3    H118352   3.961   6.710   0.215
 6137TIP3    H218353   4.031   6.710   0.081
 6138TIP3   OH218354   4.700   4.960   2.150
 6138TIP3    H118355   4.635   5.022   2.118
 6138TIP3    H218356   4.740   5.003   2.225
 6139TIP3   OH218357   5.450   7.637   5.692
 6139TIP3    H118358   5.499   7.555   5.683
 6139TIP3    H218359   5.495   7.699   5.635
 6140TIP3   OH218360   5.832   5.338   6.690
 6140TIP3    H118361   5.893   5.317   6.619
 6140TIP3    H218362   5.836   5.433   6.698
 6141TIP3   OH218363   5.188   0.470   3.029
 6141TIP3    H118364   5.239   0.486   2.949
 6141TIP3    H218365   5.249   0.425   3.088
 6142TIP3   OH218366   1.847   0.874   1.013
 6142TIP3    H118367   1.887   0.802   1.061
 6142TIP3    H218368   1.771   0.899   1.066
 6143TIP3   OH218369   7.588   4.559   1.529
 6143TIP3    H118370   7.573   4.611   1.607
 6143TIP3    H218371   7.608   4.622   1.460
 6144TIP3   OH218372   0.435   4.325   0.261
 6144TIP3    H118373   0.476   4.289   0.340
 6144TIP3    H218374   0.463   4.416   0.258
 6145TIP3   OH218375   6.731   7.450   2.047
 6145TIP3    H118376   6.771   7.465   1.962
 6145TIP3    H218377   6.682   7.368   2.037
 6146TIP3   OH218378   7.717   2.613   2.128
 6146TIP3    H118379   7.776   2.605   2.053
 6146TIP3    H218380   7.772   2.648   2.198
 6147TIP3   OH218381   1.240   2.701   5.989
 6147TIP3    H118382   1.256   2.644   6.065
 6147TIP3    H218383   1.231   2.788   6.026
 6148TIP3   OH218384   0.627   5.283   1.275
 6148TIP3    H118385   0.536   5.311   1.274
 6148TIP3    H218386   0.647   5.272   1.368
 6149TIP3   OH218387   7.073   3.358   2.232
 6149TIP3    H118388   7.163   3.379   2.258
 6149TIP3    H218389   7.067   3.388   2.142
 6150TIP3   OH218390   6.600   7.076   6.096
 6150TIP3    H118391   6.544   6.999   6.096
 6150TIP3    H218392   6.681   7.047   6.139
 6151TIP3   OH218393   5.852   1.748   3.099
 6151TIP3    H118394   5.872   1.840   3.082
 6151TIP3    H218395   5.771   1.750   3.149
 6152TIP3   OH218396   5.322   2.159   4.621
 6152TIP3    H118397   5.341   2.210   4.699
 6152TIP3    H218398   5.407   2.126   4.592
 6153TIP3   OH218399   4.454   7.274   3.723
 6153TIP3    H118400   4.511   7.277   3.646
 6153TIP3    H218401   4.393   7.347   3.712
 6154TIP3   OH218402   0.946   1.404   5.624
 6154TIP3    H118403   0.974   1.494   5.605
 6154TIP3    H218404   0.976   1.353   5.549
 6155TIP3   OH218405   0.176   4.498   5.398
 6155TIP3    H118406   0.227   4.439   5.343
 6155TIP3    H218407   0.212   4.585   5.380
 6156TIP3   OH218408   1.783   2.766   1.508
 6156TIP3    H118409   1.716   2.729   1.450
 6156TIP3    H218410   1.841   2.693   1.527
 6157TIP3   OH218411   0.962   3.275   6.382
 6157TIP3    H118412   0.906   3.207   6.344
 6157TIP3    H218413   0.910   3.311   6.454
 6158TIP3   OH218414   2.635   2.571   4.039
 6158TIP3    H118415   2.587   2.627   4.101
 6158TIP3    H218416   2.657   2.628   3.966
 6159TIP3   OH218417   4.139   3.937   1.846
 6159TIP3    H118418   4.153   4.018   1.796
 6159TIP3    H218419   4.216   3.883   1.826
 6160TIP3   OH218420   1.393   4.939   6.566
 6160TIP3    H118421   1.323   4.939   6.500
 6160TIP3    H218422   1.348   4.922   6.649
 6161TIP3   OH218423   2.353   7.567   5.901
 6161TIP3    H118424   2.344   7.519   5.983
 6161TIP3    H218425   2.397   7.505   5.842
 6162TIP3   OH218426   4.372   7.772   2.451
 6162TIP3    H118427   4.352   7.679   2.446
 6162TIP3    H218428   4.364   7.803   2.361
 6163TIP3   OH218429   5.805   6.178   0.711
 6163TIP3    H118430   5.773   6.154   0.799
 6163TIP3    H218431   5.896   6.150   0.710
 6164TIP3   OH218432   0.092   4.581   2.962
 6164TIP3    H118433   0.058   4.504   2.916
 6164TIP3    H218434   0.086   4.652   2.898
 6165TIP3   OH218435   4.195   1.119   1.786
 6165TIP3    H118436   4.286   1.121   1.757
 6165TIP3    H218437   4.155   1.196   1.745
 6166TIP3   OH218438   5.983   1.105   4.010
 6166TIP3    H118439   5.998   1.045   4.084
 6166TIP3    H218440   6.020   1.188   4.039
 6167TIP3   OH218441   0.190   5.008   3.068
 6167TIP3    H118442   0.261   5.003   3.132
 6167TIP3    H218443   0.174   5.102   3.057
 6168TIP3   OH218444   5.264   1.596   1.820
 6168TIP3    H118445   5.196   1.550   1.771
 6168TIP3    H218446   5.279   1.676   1.769
 6169TIP3   OH218447   3.144   3.924   4.328
 6169TIP3    H118448   3.172   3.946   4.417
 6169TIP3    H218449   3.051   3.902   4.337
 6170TIP3   OH218450   7.982   2.348   1.325
 6170TIP3    H118451   7.982   2.438   1.359
 6170TIP3    H218452   8.065   2.339   1.279
 6171TIP3   OH218453   3.823   1.534   2.218
 6171TIP3    H118454   3.884   1.608   2.214
 6171TIP3    H218455   3.786   1.539   2.307
 6172TIP3   OH218456   7.846   3.525   1.522
 6172TIP3    H118457   7.886   3.505   1.607
 6172TIP3    H218458   7.903   3.593   1.485
 6173TIP3   OH218459   5.410   0.873   4.673
 6173TIP3    H118460   5.318   0.882   4.696
 6173TIP3    H218461   5.433   0.784   4.702
 6174TIP3   OH218462   4.623   5.511   2.048
 6174TIP3    H118463   4.600   5.476   1.963
 6174TIP3    H218464   4.717   5.494   2.056
 6175TIP3   OH218465   3.946   1.029   1.895
 6175TIP3    H118466   4.031   1.048   1.856
 6175TIP3    H218467   3.965   0.968   1.966
 6176TIP3   OH218468   2.674   6.154   2.641
 6176TIP3    H118469   2.590   6.110   2.653
 6176TIP3    H218470   2.726   6.129   2.717
 6177TIP3   OH218471   3.826   7.711   5.827
 6177TIP3    H118472   3.799   7.648   5.894
 6177TIP3    H218473   3.766   7.698   5.754
 6178TIP3   OH218474   2.538   0.369   3.813
 6178TIP3    H118475   2.530   0.280   3.778
 6178TIP3    H218476   2.587   0.417   3.746
 6179TIP3   OH218477   4.380   2.756   6.616
 6179TIP3    H118478   4.455   2.729   6.561
 6179TIP3    H218479   4.388   2.851   6.622
 6180TIP3   OH218480   0.366   4.738   1.400
 6180TIP3    H118481   0.455   4.744   1.435
 6180TIP3    H218482   0.309   4.740   1.477
 6181TIP3   OH218483   1.389   1.522   5.078
 6181TIP3    H118484   1.296   1.531   5.100
 6181TIP3    H218485   1.434   1.584   5.135
 6182TIP3   OH218486   4.460   7.094   2.289
 6182TIP3    H118487   4.548   7.114   2.321
 6182TIP3    H218488   4.422   7.038   2.357
 6183TIP3   OH218489   6.568   5.573   0.219
 6183TIP3    H118490   6.528   5.594   0.135
 6183TIP3    H218491   6.609   5.654   0.247
 6184TIP3   OH218492   1.544   5.347   2.720
 6184TIP3    H118493   1.538   5.436   2.686
 6184TIP3    H218494   1.490   5.349   2.799
 6185TIP3   OH218495   2.033   6.629   0.050
 6185TIP3    H118496   2.018   6.723   0.040
 6185TIP3    H218497   2.101   6.609  -0.015
 6186TIP3   OH218498   2.764   2.970   4.053
 6186TIP3    H118499   2.772   3.059   4.017
 6186TIP3    H218500   2.839   2.923   4.016
 6187TIP3   OH218501   5.402   2.437   0.257
 6187TIP3    H118502   5.458   2.381   0.312
 6187TIP3    H218503   5.326   2.382   0.238
 6188TIP3   OH218504   1.257   4.832   6.791
 6188TIP3    H118505   1.211   4.749   6.784
 6188TIP3    H218506   1.202   4.886   6.848
 6189TIP3   OH218507   1.104   5.186   5.431
 6189TIP3    H118508   1.068   5.128   5.497
 6189TIP3    H218509   1.030   5.242   5.406
 6190TIP3   OH218510   0.209   4.097   5.200
 6190TIP3    H118511   0.139   4.102   5.265
 6190TIP3    H218512   0.210   4.005   5.174
 6191TIP3   OH218513   8.191   0.923   5.155
 6191TIP3    H118514   8.267   0.931   5.097
 6191TIP3    H218515   8.172   1.013   5.181
 6192TIP3   OH218516   7.207   6.644   1.348
 6192TIP3    H118517   7.301   6.644   1.326
 6192TIP3    H218518   7.196   6.721   1.404
 6193TIP3   OH218519   0.415   0.476   1.860
 6193TIP3    H118520   0.421   0.471   1.955
 6193TIP3    H218521   0.493   0.525   1.834
 6194TIP3   OH218522   7.899   1.484   5.290
 6194TIP3    H118523   7.880   1.471   5.197
 6194TIP3    H218524   7.990   1.514   5.292
 6195TIP3   OH218525   3.175   1.080   4.784
 6195TIP3    H118526   3.110   1.142   4.817
 6195TIP3    H218527   3.231   1.062   4.860
 6196TIP3   OH218528   1.140   1.275   5.455
 6196TIP3    H118529   1.233   1.250   5.452
 6196TIP3    H218530   1.127   1.325   5.374
 6197TIP3   OH218531   1.294   5.591   6.512
 6197TIP3    H118532   1.273   5.631   6.428
 6197TIP3    H218533   1.343   5.511   6.489
 6198TIP3   OH218534   1.425   3.563   4.833
 6198TIP3    H118535   1.484   3.500   4.792
 6198TIP3    H218536   1.483   3.623   4.880
 6199TIP3   OH218537   7.576   5.870   6.382
 6199TIP3    H118538   7.625   5.791   6.407
 6199TIP3    H218539   7.626   5.906   6.309
 6200TIP3   OH218540   0.848   2.510   3.807
 6200TIP3    H118541   0.786   2.438   3.793
 6200TIP3    H218542   0.826   2.545   3.893
 6201TIP3   OH218543   7.437   4.908   6.201
 6201TIP3    H118544   7.354   4.944   6.230
 6201TIP3    H218545   7.420   4.816   6.185
 6202TIP3   OH218546   1.953   0.122   4.589
 6202TIP3    H118547   1.881   0.153   4.645
 6202TIP3    H218548   1.948   0.027   4.594
 6203TIP3   OH218549   0.966   1.791   0.575
 6203TIP3    H118550   0.883   1.786   0.621
 6203TIP3    H218551   0.953   1.740   0.495
 6204TIP3   OH218552   5.390   5.069   2.263
 6204TIP3    H118553   5.412   5.155   2.299
 6204TIP3    H218554   5.296   5.073   2.248
 6205TIP3   OH218555   1.144   1.331   2.389
 6205TIP3    H118556   1.051   1.348   2.406
 6205TIP3    H218557   1.151   1.329   2.294
 6206TIP3   OH218558   4.340   7.744   1.642
 6206TIP3    H118559   4.432   7.718   1.649
 6206TIP3    H218560   4.337   7.800   1.565
 6207TIP3   OH218561   0.148   6.676   4.429
 6207TIP3    H118562   0.165   6.699   4.338
 6207TIP3    H218563   0.150   6.759   4.476
 6208TIP3   OH218564   1.868   1.220   4.191
 6208TIP3    H118565   1.853   1.169   4.271
 6208TIP3    H218566   1.909   1.301   4.222
 6209TIP3   OH218567   0.909   5.284   0.638
 6209TIP3    H118568   0.914   5.339   0.560
 6209TIP3    H218569   0.824   5.305   0.677
 6210TIP3   OH218570   5.900   5.374   0.386
 6210TIP3    H118571   5.888   5.408   0.475
 6210TIP3    H218572   5.968   5.430   0.348
 6211TIP3   OH218573   7.680   4.989   2.806
 6211TIP3    H118574   7.761   5.037   2.789
 6211TIP3    H218575   7.621   5.015   2.734
 6212TIP3   OH218576   6.404   1.764   2.451
 6212TIP3    H118577   6.475   1.768   2.387
 6212TIP3    H218578   6.360   1.681   2.432
 6213TIP3   OH218579   1.961   0.337   5.153
 6213TIP3    H118580   2.013   0.263   5.184
 6213TIP3    H218581   1.991   0.351   5.063
 6214TIP3   OH218582   6.414   5.343   0.167
 6214TIP3    H118583   6.471   5.419   0.175
 6214TIP3    H218584   6.353   5.350   0.240
 6215TIP3   OH218585   2.841   2.051   4.398
 6215TIP3    H118586   2.800   2.105   4.466
 6215TIP3    H218587   2.832   2.103   4.318
 6216TIP3   OH218588   0.842   1.120   6.734
 6216TIP3    H118589   0.841   1.128   6.829
 6216TIP3    H218590   0.782   1.188   6.704
 6217TIP3   OH218591   3.187   6.712   6.548
 6217TIP3    H118592   3.136   6.790   6.569
 6217TIP3    H218593   3.145   6.641   6.596
 6218TIP3   OH218594   4.807   5.063   2.375
 6218TIP3    H118595   4.784   4.971   2.392
 6218TIP3    H218596   4.731   5.113   2.403
 6219TIP3   OH218597   3.408   4.525   3.255
 6219TIP3    H118598   3.359   4.591   3.304
 6219TIP3    H218599   3.440   4.464   3.321
 6220TIP3   OH218600   2.189   5.635   3.245
 6220TIP3    H118601   2.263   5.630   3.305
 6220TIP3    H218602   2.113   5.610   3.299
 6221TIP3   OH218603   2.107   1.750   4.414
 6221TIP3    H118604   2.116   1.778   4.322
 6221TIP3    H218605   2.152   1.666   4.418
 6222TIP3   OH218606   5.453   5.827   0.120
 6222TIP3    H118607   5.447   5.906   0.065
 6222TIP3    H218608   5.544   5.826   0.150
 6223TIP3   OH218609   7.766   6.033   0.122
 6223TIP3    H118610   7.775   6.108   0.064
 6223TIP3    H218611   7.710   6.065   0.193
 6224TIP3   OH218612   2.479   6.324   3.267
 6224TIP3    H118613   2.444   6.335   3.355
 6224TIP3    H218614   2.556   6.381   3.264
 6225TIP3   OH218615   0.540   7.631   2.383
 6225TIP3    H118616   0.486   7.557   2.356
 6225TIP3    H218617   0.526   7.638   2.477
 6226TIP3   OH218618   4.403   5.202   3.704
 6226TIP3    H118619   4.494   5.172   3.704
 6226TIP3    H218620   4.407   5.289   3.665
 6227TIP3   OH218621   7.432   5.575   1.354
 6227TIP3    H118622   7.366   5.644   1.352
 6227TIP3    H218623   7.466   5.571   1.264
 6228TIP3   OH218624   0.153   3.337   2.984
 6228TIP3    H118625   0.140   3.340   2.889
 6228TIP3    H218626   0.079   3.285   3.016
 6229TIP3   OH218627   5.576   4.599   4.818
 6229TIP3    H118628   5.528   4.515   4.820
 6229TIP3    H218629   5.524   4.658   4.872
 6230TIP3   OH218630   7.338   2.235   3.646
 6230TIP3    H118631   7.405   2.173   3.676
 6230TIP3    H218632   7.255   2.196   3.672
 6231TIP3   OH218633   3.790   6.504   0.665
 6231TIP3    H118634   3.744   6.430   0.704
 6231TIP3    H218635   3.876   6.504   0.708
 6232TIP3   OH218636   5.769   5.741   1.594
 6232TIP3    H118637   5.714   5.820   1.597
 6232TIP3    H218638   5.715   5.676   1.549
 6233TIP3   OH218639   0.306   4.049   5.534
 6233TIP3    H118640   0.259   3.967   5.550
 6233TIP3    H218641   0.382   4.023   5.481
 6234TIP3   OH218642   1.815   1.273   0.611
 6234TIP3    H118643   1.759   1.329   0.664
 6234TIP3    H218644   1.757   1.203   0.580
 6235TIP3   OH218645   4.950   7.009   2.293
 6235TIP3    H118646   5.005   7.038   2.221
 6235TIP3    H218647   4.863   7.001   2.255
 6236TIP3   OH218648   6.076   4.532   2.835
 6236TIP3    H118649   6.036   4.483   2.763
 6236TIP3    H218650   6.167   4.544   2.807
 6237TIP3   OH218651   3.180   2.643   1.560
 6237TIP3    H118652   3.147   2.725   1.524
 6237TIP3    H218653   3.129   2.575   1.515
 6238TIP3   OH218654   3.510   5.398   2.336
 6238TIP3    H118655   3.488   5.459   2.406
 6238TIP3    H218656   3.431   5.394   2.282
 6239TIP3   OH218657   6.109   1.793   6.218
 6239TIP3    H118658   6.054   1.870   6.204
 6239TIP3    H218659   6.082   1.732   6.150
 6240TIP3   OH218660   0.508   3.324   0.942
 6240TIP3    H118661   0.523   3.246   0.889
 6240TIP3    H218662   0.413   3.330   0.951
 6241TIP3   OH218663   0.296   6.434   0.084
 6241TIP3    H118664   0.357   6.379   0.133
 6241TIP3    H218665   0.249   6.483   0.151
 6242TIP3   OH218666   6.296   7.705   0.458
 6242TIP3    H118667   6.318   7.612   0.461
 6242TIP3    H218668   6.366   7.748   0.507
 6243TIP3   OH218669   5.575   4.243   6.766
 6243TIP3    H118670   5.528   4.198   6.696
 6243TIP3    H218671   5.533   4.213   6.847
 6244TIP3   OH218672   7.644   3.929   4.263
 6244TIP3    H118673   7.660   3.848   4.311
 6244TIP3    H218674   7.549   3.932   4.252
 6245TIP3   OH218675   1.544   4.731   3.788
 6245TIP3    H118676   1.494   4.777   3.721
 6245TIP3    H218677   1.498   4.648   3.800
 6246TIP3   OH218678   4.739   2.822   1.694
 6246TIP3    H118679   4.823   2.796   1.656
 6246TIP3    H218680   4.754   2.910   1.729
 6247TIP3   OH218681   1.061   3.713   5.877
 6247TIP3    H118682   0.987   3.684   5.931
 6247TIP3    H218683   1.132   3.654   5.899
 6248TIP3   OH218684   4.618   6.718   1.234
 6248TIP3    H118685   4.529   6.687   1.218
 6248TIP3    H218686   4.634   6.781   1.164
 6249TIP3   OH218687   0.384   2.211   0.506
 6249TIP3    H118688   0.316   2.158   0.465
 6249TIP3    H218689   0.350   2.301   0.504
 6250TIP3   OH218690   8.291   2.428   0.528
 6250TIP3    H118691   8.304   2.439   0.623
 6250TIP3    H218692   8.231   2.355   0.520
 6251TIP3   OH218693   6.335   4.555   5.292
 6251TIP3    H118694   6.331   4.475   5.240
 6251TIP3    H218695   6.427   4.582   5.288
 6252TIP3   OH218696   7.214   7.508   1.609
 6252TIP3    H118697   7.139   7.544   1.561
 6252TIP3    H218698   7.255   7.585   1.649
 6253TIP3   OH218699   4.865   4.151   0.551
 6253TIP3    H118700   4.782   4.108   0.571
 6253TIP3    H218701   4.859   4.172   0.458
 6254TIP3   OH218702   7.769   5.384   3.884
 6254TIP3    H118703   7.862   5.395   3.866
 6254TIP3    H218704   7.731   5.470   3.868
 6255TIP3   OH218705   0.033   2.300   6.541
 6255TIP3    H118706   0.089   2.337   6.473
 6255TIP3    H218707  -0.055   2.328   6.517
 6256TIP3   OH218708   2.822   6.475   2.916
 6256TIP3    H118709   2.902   6.453   2.963
 6256TIP3    H218710   2.847   6.475   2.824
 6257TIP3   OH218711   2.852   4.942   1.775
 6257TIP3    H118712   2.903   4.895   1.710
 6257TIP3    H218713   2.857   5.034   1.748
 6258TIP3   OH218714   1.604   0.310   1.776
 6258TIP3    H118715   1.519   0.303   1.820
 6258TIP3    H218716   1.642   0.222   1.784
 6259TIP3   OH218717   6.695   3.552   3.343
 6259TIP3    H118718   6.662   3.632   3.301
 6259TIP3    H218719   6.790   3.565   3.347
 6260TIP3   OH218720   4.517   1.962   1.867
 6260TIP3    H118721   4.470   2.021   1.925
 6260TIP3    H218722   4.477   1.876   1.883
 6261TIP3   OH218723   4.697   4.893   3.193
 6261TIP3    H118724   4.685   4.874   3.286
 6261TIP3    H218725   4.693   4.808   3.150
 6262TIP3   OH218726   1.879   3.152   0.492
 6262TIP3    H118727   1.908   3.080   0.548
 6262TIP3    H218728   1.940   3.151   0.419
 6263TIP3   OH218729   2.684   3.932   5.216
 6263TIP3    H118730   2.652   4.021   5.199
 6263TIP3    H218731   2.770   3.929   5.175
 6264TIP3   OH218732   5.500   5.457   3.846
 6264TIP3    H118733   5.477   5.364   3.841
 6264TIP3    H218734   5.569   5.462   3.913
 6265TIP3   OH218735   7.728   7.231   0.295
 6265TIP3    H118736   7.777   7.149   0.295
 6265TIP3    H218737   7.662   7.219   0.363
 6266TIP3   OH218738   2.781   0.715   4.108
 6266TIP3    H118739   2.726   0.729   4.031
 6266TIP3    H218740   2.868   0.694   4.072
 6267TIP3   OH218741   2.579   4.558   6.293
 6267TIP3    H118742   2.543   4.612   6.363
 6267TIP3    H218743   2.669   4.540   6.319
 6268TIP3   OH218744   6.277   4.855   5.216
 6268TIP3    H118745   6.202   4.797   5.229
 6268TIP3    H218746   6.333   4.839   5.292
 6269TIP3   OH218747   7.059   7.426   5.946
 6269TIP3    H118748   7.056   7.338   5.910
 6269TIP3    H218749   7.072   7.482   5.869
 6270TIP3   OH218750   1.963   0.041   1.120
 6270TIP3    H118751   1.988   0.011   1.033
 6270TIP3    H218752   1.898   0.109   1.105
 6271TIP3   OH218753   6.609   6.210   2.892
 6271TIP3    H118754   6.541   6.204   2.825
 6271TIP3    H218755   6.663   6.284   2.865
 6272TIP3   OH218756   5.226   2.358   0.783
 6272TIP3    H118757   5.246   2.291   0.717
 6272TIP3    H218758   5.147   2.400   0.751
 6273TIP3   OH218759   6.586   7.217   2.973
 6273TIP3    H118760   6.651   7.170   3.025
 6273TIP3    H218761   6.634   7.245   2.895
 6274TIP3   OH218762   0.639   1.213   5.019
 6274TIP3    H118763   0.664   1.170   4.938
 6274TIP3    H218764   0.598   1.295   4.992
 6275TIP3   OH218765   4.196   6.818   0.083
 6275TIP3    H118766   4.277   6.769   0.099
 6275TIP3    H218767   4.217   6.875   0.008
 6276TIP3   OH218768   4.875   6.361   5.895
 6276TIP3    H118769   4.838   6.442   5.929
 6276TIP3    H218770   4.951   6.344   5.951
 6277TIP3   OH218771   5.383   4.100   4.682
 6277TIP3    H118772   5.466   4.139   4.655
 6277TIP3    H218773   5.326   4.174   4.700
 6278TIP3   OH218774   6.811   7.449   2.329
 6278TIP3    H118775   6.724   7.412   2.323
 6278TIP3    H218776   6.814   7.516   2.260
 6279TIP3   OH218777   7.132   1.512   4.540
 6279TIP3    H118778   7.141   1.566   4.461
 6279TIP3    H218779   7.053   1.460   4.524
 6280TIP3   OH218780   3.172   4.200   3.530
 6280TIP3    H118781   3.108   4.206   3.601
 6280TIP3    H218782   3.255   4.183   3.575
 6281TIP3   OH218783   1.463   5.443   1.539
 6281TIP3    H118784   1.415   5.413   1.616
 6281TIP3    H218785   1.409   5.513   1.503
 6282TIP3   OH218786   1.430   3.624   0.807
 6282TIP3    H118787   1.472   3.595   0.726
 6282TIP3    H218788   1.503   3.646   0.866
 6283TIP3   OH218789   1.304   1.659   0.135
 6283TIP3    H118790   1.354   1.669   0.054
 6283TIP3    H218791   1.321   1.740   0.183
 6284TIP3   OH218792   6.747   6.328   0.974
 6284TIP3    H118793   6.721   6.237   0.957
 6284TIP3    H218794   6.838   6.332   0.944
 6285TIP3   OH218795   6.717   6.958   5.390
 6285TIP3    H118796   6.728   6.865   5.410
 6285TIP3    H218797   6.778   7.002   5.449
 6286TIP3   OH218798   7.386   2.502   3.555
 6286TIP3    H118799   7.472   2.515   3.597
 6286TIP3    H218800   7.376   2.407   3.552
 6287TIP3   OH218801   5.937   6.845   1.438
 6287TIP3    H118802   5.906   6.862   1.349
 6287TIP3    H218803   5.969   6.930   1.469
 6288TIP3   OH218804   5.455   3.537   5.311
 6288TIP3    H118805   5.364   3.556   5.288
 6288TIP3    H218806   5.449   3.461   5.370
 6289TIP3   OH218807   4.349   5.197   4.194
 6289TIP3    H118808   4.364   5.107   4.224
 6289TIP3    H218809   4.261   5.219   4.225
 6290TIP3   OH218810   4.152   5.822   0.613
 6290TIP3    H118811   4.201   5.877   0.552
 6290TIP3    H218812   4.061   5.850   0.603
 6291TIP3   OH218813   6.589   1.724   6.249
 6291TIP3    H118814   6.662   1.739   6.189
 6291TIP3    H218815   6.555   1.638   6.224
 6292TIP3   OH218816   3.945   5.201   2.820
 6292TIP3    H118817   3.857   5.220   2.853
 6292TIP3    H218818   3.954   5.106   2.827
 6293TIP3   OH218819   6.440   3.758   3.927
 6293TIP3    H118820   6.368   3.695   3.933
 6293TIP3    H218821   6.400   3.842   3.950
 6294TIP3   OH218822   4.534   5.643   3.799
 6294TIP3    H118823   4.605   5.680   3.852
 6294TIP3    H218824   4.563   5.555   3.777
 6295TIP3   OH218825   7.843   3.441   0.318
 6295TIP3    H118826   7.875   3.494   0.390
 6295TIP3    H218827   7.750   3.463   0.311
 6296TIP3   OH218828   5.966   5.631   1.372
 6296TIP3    H118829   6.045   5.640   1.426
 6296TIP3    H218830   5.894   5.632   1.434
 6297TIP3   OH218831   4.075   0.510   6.577
 6297TIP3    H118832   4.152   0.560   6.549
 6297TIP3    H218833   4.086   0.425   6.534
 6298TIP3   OH218834   6.865   4.100   5.604
 6298TIP3    H118835   6.798   4.069   5.543
 6298TIP3    H218836   6.818   4.157   5.664
 6299TIP3   OH218837   0.357   1.758   2.639
 6299TIP3    H118838   0.284   1.799   2.685
 6299TIP3    H218839   0.373   1.677   2.687
 6300TIP3   OH218840   1.020   2.548   0.154
 6300TIP3    H118841   0.996   2.570   0.243
 6300TIP3    H218842   0.937   2.536   0.109
 6301TIP3   OH218843   2.955   4.891   3.706
 6301TIP3    H118844   2.961   4.810   3.757
 6301TIP3    H218845   2.861   4.908   3.699
 6302TIP3   OH218846   7.039   4.396   4.246
 6302TIP3    H118847   7.066   4.365   4.159
 6302TIP3    H218848   7.058   4.489   4.246
 6303TIP3   OH218849   4.951   5.779   2.116
 6303TIP3    H118850   5.039   5.818   2.119
 6303TIP3    H218851   4.896   5.849   2.079
 6304TIP3   OH218852   6.522   1.796   3.120
 6304TIP3    H118853   6.566   1.731   3.174
 6304TIP3    H218854   6.570   1.795   3.037
 6305TIP3   OH218855   2.953   4.966   0.768
 6305TIP3    H118856   2.933   4.968   0.674
 6305TIP3    H218857   3.014   5.039   0.781
 6306TIP3   OH218858   2.669   5.487   3.921
 6306TIP3    H118859   2.620   5.436   3.986
 6306TIP3    H218860   2.633   5.459   3.837
 6307TIP3   OH218861   7.991   5.688   4.130
 6307TIP3    H118862   8.084   5.693   4.108
 6307TIP3    H218863   7.984   5.613   4.188
 6308TIP3   OH218864   6.045   0.592   5.338
 6308TIP3    H118865   6.017   0.684   5.337
 6308TIP3    H218866   5.974   0.546   5.381
 6309TIP3   OH218867   0.396   3.863   3.990
 6309TIP3    H118868   0.449   3.925   4.040
 6309TIP3    H218869   0.316   3.912   3.970
 6310TIP3   OH218870   1.468   1.855   4.862
 6310TIP3    H118871   1.385   1.890   4.893
 6310TIP3    H218872   1.455   1.760   4.861
 6311TIP3   OH218873   4.810   0.036   6.478
 6311TIP3    H118874   4.833  -0.050   6.512
 6311TIP3    H218875   4.801   0.023   6.383
 6312TIP3   OH218876   3.003   6.733   2.579
 6312TIP3    H118877   2.942   6.765   2.512
 6312TIP3    H218878   3.020   6.810   2.634
 6313TIP3   OH218879   4.015   0.126   2.259
 6313TIP3    H118880   4.011   0.065   2.186
 6313TIP3    H218881   4.103   0.164   2.254
 6314TIP3   OH218882   1.341   1.252   5.098
 6314TIP3    H118883   1.416   1.234   5.041
 6314TIP3    H218884   1.315   1.341   5.076
 6315TIP3   OH218885   0.082   2.539   5.131
 6315TIP3    H118886   0.024   2.611   5.156
 6315TIP3    H218887   0.102   2.495   5.214
 6316TIP3   OH218888   0.630   4.287   2.297
 6316TIP3    H118889   0.719   4.294   2.331
 6316TIP3    H218890   0.600   4.201   2.326
 6317TIP3   OH218891   3.502   0.218   5.963
 6317TIP3    H118892   3.457   0.185   6.041
 6317TIP3    H218893   3.592   0.187   5.973
 6318TIP3   OH218894   7.677   1.316   4.090
 6318TIP3    H118895   7.606   1.257   4.064
 6318TIP3    H218896   7.729   1.328   4.010
 6319TIP3   OH218897   3.419   2.568   6.075
 6319TIP3    H118898   3.341   2.526   6.040
 6319TIP3    H218899   3.473   2.495   6.106
 6320TIP3   OH218900   0.843   3.784   4.927
 6320TIP3    H118901   0.828   3.833   5.008
 6320TIP3    H218902   0.764   3.732   4.915
 6321TIP3   OH218903   6.670   2.907   5.291
 6321TIP3    H118904   6.640   2.968   5.358
 6321TIP3    H218905   6.743   2.861   5.331
 6322TIP3   OH218906   7.671   5.629   3.829
 6322TIP3    H118907   7.748   5.682   3.811
 6322TIP3    H218908   7.627   5.621   3.744
 6323TIP3   OH218909   7.315   5.967   2.787
 6323TIP3    H118910   7.306   5.884   2.741
 6323TIP3    H218911   7.232   5.979   2.833
 6324TIP3   OH218912   0.526   7.460   0.032
 6324TIP3    H118913   0.572   7.390   0.078
 6324TIP3    H218914   0.586   7.485  -0.039
 6325TIP3   OH218915   5.718   2.522   5.813
 6325TIP3    H118916   5.761   2.503   5.896
 6325TIP3    H218917   5.750   2.608   5.788
 6326TIP3   OH218918   1.805   1.294   2.511
 6326TIP3    H118919   1.783   1.236   2.584
 6326TIP3    H218920   1.728   1.292   2.454
 6327TIP3   OH218921   6.498   1.735   4.276
 6327TIP3    H118922   6.460   1.690   4.351
 6327TIP3    H218923   6.424   1.775   4.231
 6328TIP3   OH218924   5.286   0.129   1.980
 6328TIP3    H118925   5.272   0.052   2.035
 6328TIP3    H218926   5.378   0.124   1.955
 6329TIP3   OH218927   0.516   6.998   2.311
 6329TIP3    H118928   0.441   6.941   2.298
 6329TIP3    H218929   0.560   6.964   2.389
 6330TIP3   OH218930   2.001   3.930   3.149
 6330TIP3    H118931   2.086   3.898   3.180
 6330TIP3    H218932   2.013   4.024   3.140
 6331TIP3   OH218933   5.221   3.465   1.498
 6331TIP3    H118934   5.159   3.443   1.567
 6331TIP3    H218935   5.181   3.541   1.454
 6332TIP3   OH218936   5.047   7.451   3.368
 6332TIP3    H118937   5.129   7.401   3.371
 6332TIP3    H218938   5.073   7.540   3.391
 6333TIP3   OH218939   5.414   0.472   0.627
 6333TIP3    H118940   5.450   0.385   0.612
 6333TIP3    H218941   5.352   0.485   0.555
 6334TIP3   OH218942   7.885   1.416   4.270
 6334TIP3    H118943   7.899   1.509   4.250
 6334TIP3    H218944   7.796   1.398   4.241
 6335TIP3   OH218945   6.352   2.064   3.695
 6335TIP3    H118946   6.376   2.111   3.775
 6335TIP3    H218947   6.283   2.118   3.656
 6336TIP3   OH218948   7.774   1.410   5.029
 6336TIP3    H118949   7.682   1.404   5.003
 6336TIP3    H218950   7.823   1.373   4.956
 6337TIP3   OH218951   0.440   0.417   6.336
 6337TIP3    H118952   0.394   0.407   6.253
 6337TIP3    H218953   0.402   0.496   6.375
 6338TIP3   OH218954   6.746   6.200   4.855
 6338TIP3    H118955   6.837   6.172   4.839
 6338TIP3    H218956   6.698   6.167   4.779
 6339TIP3   OH218957   6.371   2.055   5.365
 6339TIP3    H118958   6.338   1.967   5.348
 6339TIP3    H218959   6.451   2.042   5.415
 6340TIP3   OH218960   4.280   5.642   6.506
 6340TIP3    H118961   4.370   5.670   6.492
 6340TIP3    H218962   4.278   5.610   6.596
 6341TIP3   OH218963   1.416   5.605   5.228
 6341TIP3    H118964   1.385   5.526   5.182
 6341TIP3    H218965   1.500   5.625   5.186
 6342TIP3   OH218966   5.929   6.012   1.967
 6342TIP3    H118967   6.021   6.000   1.989
 6342TIP3    H218968   5.893   5.923   1.963
 6343TIP3   OH218969   1.073   7.349   0.259
 6343TIP3    H118970   1.165   7.327   0.241
 6343TIP3    H218971   1.065   7.335   0.354
 6344TIP3   OH218972   1.259   0.313   1.240
 6344TIP3    H118973   1.308   0.383   1.196
 6344TIP3    H218974   1.298   0.233   1.206
 6345TIP3   OH218975   1.640   2.812   2.686
 6345TIP3    H118976   1.634   2.722   2.652
 6345TIP3    H218977   1.553   2.849   2.670
 6346TIP3   OH218978   1.497   0.080   1.935
 6346TIP3    H118979   1.466  -0.003   1.900
 6346TIP3    H218980   1.475   0.077   2.028
 6347TIP3   OH218981   6.093   3.642   2.255
 6347TIP3    H118982   6.173   3.648   2.308
 6347TIP3    H218983   6.124   3.619   2.167
 6348TIP3   OH218984   3.051   1.733   2.669
 6348TIP3    H118985   2.963   1.769   2.682
 6348TIP3    H218986   3.089   1.731   2.757
 6349TIP3   OH218987   6.806   2.064   4.658
 6349TIP3    H118988   6.784   1.976   4.628
 6349TIP3    H218989   6.890   2.084   4.616
 6350TIP3   OH218990   3.480   1.544   0.562
 6350TIP3    H118991   3.423   1.601   0.510
 6350TIP3    H218992   3.420   1.495   0.618
 6351TIP3   OH218993   3.325   6.078   5.222
 6351TIP3    H118994   3.389   6.015   5.256
 6351TIP3    H218995   3.267   6.095   5.296
 6352TIP3   OH218996   0.394   3.208   6.555
 6352TIP3    H118997   0.419   3.294   6.590
 6352TIP3    H218998   0.321   3.180   6.611
 6353TIP3   OH218999   7.051   6.294   0.027
 6353TIP3    H119000   7.055   6.390   0.036
 6353TIP3    H219001   6.961   6.271   0.049
 6354TIP3   OH219002   0.925   7.748   6.539
 6354TIP3    H119003   0.880   7.814   6.487
 6354TIP3    H219004   0.856   7.686   6.565
 6355TIP3   OH219005   0.216   7.005   1.450
 6355TIP3    H119006   0.303   6.974   1.477
 6355TIP3    H219007   0.155   6.943   1.490
 6356TIP3   OH219008   4.261   0.565   1.919
 6356TIP3    H119009   4.168   0.558   1.941
 6356TIP3    H219010   4.306   0.546   2.002
 6357TIP3   OH219011   5.315   5.604   6.245
 6357TIP3    H119012   5.359   5.675   6.198
 6357TIP3    H219013   5.370   5.589   6.322
 6358TIP3   OH219014   6.603   7.468   5.929
 6358TIP3    H119015   6.655   7.473   5.849
 6358TIP3    H219016   6.540   7.398   5.914
 6359TIP3   OH219017   6.775   2.728   6.212
 6359TIP3    H119018   6.704   2.707   6.273
 6359TIP3    H219019   6.846   2.760   6.268
 6360TIP3   OH219020   0.584   3.396   6.230
 6360TIP3    H119021   0.518   3.331   6.254
 6360TIP3    H219022   0.635   3.408   6.310
 6361TIP3   OH219023   4.504   3.024   6.838
 6361TIP3    H119024   4.465   3.027   6.750
 6361TIP3    H219025   4.568   2.954   6.834
 6362TIP3   OH219026   2.384   3.597   2.124
 6362TIP3    H119027   2.302   3.611   2.078
 6362TIP3    H219028   2.387   3.502   2.139
 6363TIP3   OH219029   5.554   2.426   0.787
 6363TIP3    H119030   5.543   2.331   0.785
 6363TIP3    H219031   5.561   2.446   0.881
 6364TIP3   OH219032   5.626   7.718   4.624
 6364TIP3    H119033   5.636   7.786   4.690
 6364TIP3    H219034   5.708   7.719   4.575
 6365TIP3   OH219035   8.223   1.028   2.621
 6365TIP3    H119036   8.160   1.023   2.549
 6365TIP3    H219037   8.303   0.989   2.586
 6366TIP3   OH219038   6.001   1.195   4.896
 6366TIP3    H119039   6.064   1.265   4.910
 6366TIP3    H219040   5.925   1.238   4.858
 6367TIP3   OH219041   2.000   6.347   0.448
 6367TIP3    H119042   2.072   6.397   0.487
 6367TIP3    H219043   1.969   6.403   0.376
 6368TIP3   OH219044   1.989   7.840   5.856
 6368TIP3    H119045   2.030   7.814   5.938
 6368TIP3    H219046   2.060   7.836   5.792
 6369TIP3   OH219047   2.033   6.929   1.975
 6369TIP3    H119048   2.057   6.949   2.065
 6369TIP3    H219049   1.972   6.999   1.950
 6370TIP3   OH219050   6.030   0.137   3.029
 6370TIP3    H119051   6.086   0.123   2.952
 6370TIP3    H219052   5.957   0.189   2.996
 6371TIP3   OH219053   4.076   0.089   6.798
 6371TIP3    H119054   4.042   0.028   6.733
 6371TIP3    H219055   4.082   0.173   6.751
 6372TIP3   OH219056   4.189   3.146   6.592
 6372TIP3    H119057   4.188   3.086   6.666
 6372TIP3    H219058   4.225   3.227   6.628
 6373TIP3   OH219059   3.574   7.724   1.493
 6373TIP3    H119060   3.669   7.715   1.492
 6373TIP3    H219061   3.558   7.817   1.477
 6374TIP3   OH219062   2.861   6.562   4.100
 6374TIP3    H119063   2.787   6.529   4.151
 6374TIP3    H219064   2.932   6.500   4.119
 6375TIP3   OH219065   8.092   1.798   5.807
 6375TIP3    H119066   8.010   1.757   5.777
 6375TIP3    H219067   8.065   1.853   5.881
 6376TIP3   OH219068   2.458   1.596   3.143
 6376TIP3    H119069   2.410   1.602   3.226
 6376TIP3    H219070   2.448   1.505   3.117
 6377TIP3   OH219071   1.516   1.234   3.368
 6377TIP3    H119072   1.580   1.262   3.303
 6377TIP3    H219073   1.566   1.180   3.430
 6378TIP3   OH219074   7.838   4.045   1.826
 6378TIP3    H119075   7.744   4.064   1.830
 6378TIP3    H219076   7.873   4.111   1.766
 6379TIP3   OH219077   1.689   3.884   6.577
 6379TIP3    H119078   1.753   3.947   6.543
 6379TIP3    H219079   1.724   3.798   6.553
 6380TIP3   OH219080   1.272   1.829   2.494
 6380TIP3    H119081   1.283   1.739   2.465
 6380TIP3    H219082   1.177   1.840   2.504
 6381TIP3   OH219083   7.622   6.631   5.881
 6381TIP3    H119084   7.608   6.720   5.847
 6381TIP3    H219085   7.711   6.609   5.855
 6382TIP3   OH219086   4.321   7.166   6.126
 6382TIP3    H119087   4.333   7.260   6.139
 6382TIP3    H219088   4.230   7.158   6.095
 6383TIP3   OH219089   3.918   0.242   4.889
 6383TIP3    H119090   3.975   0.314   4.916
 6383TIP3    H219091   3.860   0.229   4.964
 6384TIP3   OH219092   2.450   5.503   1.340
 6384TIP3    H119093   2.474   5.594   1.356
 6384TIP3    H219094   2.468   5.489   1.248
 6385TIP3   OH219095   2.882   0.937   3.894
 6385TIP3    H119096   2.924   0.971   3.815
 6385TIP3    H219097   2.930   0.856   3.913
 6386TIP3   OH219098   7.490   1.523   4.217
 6386TIP3    H119099   7.478   1.451   4.156
 6386TIP3    H219100   7.524   1.482   4.297
 6387TIP3   OH219101   0.408   4.820   4.675
 6387TIP3    H119102   0.450   4.770   4.745
 6387TIP3    H219103   0.315   4.796   4.680
 6388TIP3   OH219104   0.833   7.332   6.732
 6388TIP3    H119105   0.898   7.400   6.750
 6388TIP3    H219106   0.885   7.257   6.702
 6389TIP3   OH219107   0.040   0.062   1.587
 6389TIP3    H119108  -0.055   0.070   1.575
 6389TIP3    H219109   0.070   0.013   1.511
 6390TIP3   OH219110   3.992   0.403   0.020
 6390TIP3    H119111   4.074   0.450   0.004
 6390TIP3    H219112   4.015   0.311   0.006
 6391TIP3   OH219113   7.375   3.313   0.110
 6391TIP3    H119114   7.451   3.323   0.053
 6391TIP3    H219115   7.317   3.253   0.062
 6392TIP3   OH219116   4.629   2.153   2.489
 6392TIP3    H119117   4.675   2.235   2.507
 6392TIP3    H219118   4.647   2.098   2.565
 6393TIP3   OH219119   5.561   0.102   4.502
 6393TIP3    H119120   5.559   0.156   4.580
 6393TIP3    H219121   5.555   0.164   4.429
 6394TIP3   OH219122   7.074   4.300   3.314
 6394TIP3    H119123   7.158   4.295   3.360
 6394TIP3    H219124   7.097   4.318   3.223
 6395TIP3   OH219125   3.411   7.839   0.429
 6395TIP3    H119126   3.488   7.794   0.394
 6395TIP3    H219127   3.426   7.842   0.524
 6396TIP3   OH219128   7.345   3.002   5.336
 6396TIP3    H119129   7.287   3.044   5.401
 6396TIP3    H219130   7.407   3.071   5.312
 6397TIP3   OH219131   3.705   0.542   0.928
 6397TIP3    H119132   3.672   0.469   0.875
 6397TIP3    H219133   3.758   0.593   0.867
 6398TIP3   OH219134   5.310   3.274   4.624
 6398TIP3    H119135   5.363   3.249   4.700
 6398TIP3    H219136   5.246   3.337   4.659
 6399TIP3   OH219137   1.106   0.691   3.807
 6399TIP3    H119138   1.174   0.650   3.754
 6399TIP3    H219139   1.033   0.629   3.804
 6400TIP3   OH219140   7.329   2.087   4.239
 6400TIP3    H119141   7.242   2.058   4.211
 6400TIP3    H219142   7.321   2.182   4.247
 6401TIP3   OH219143   6.960   2.978   0.904
 6401TIP3    H119144   7.051   2.972   0.934
 6401TIP3    H219145   6.952   2.910   0.837
 6402TIP3   OH219146   1.839   7.583   1.083
 6402TIP3    H119147   1.808   7.542   1.003
 6402TIP3    H219148   1.863   7.510   1.140
 6403TIP3   OH219149   4.150   5.638   5.146
 6403TIP3    H119150   4.217   5.571   5.133
 6403TIP3    H219151   4.188   5.698   5.210
 6404TIP3   OH219152   1.062   4.562   3.191
 6404TIP3    H119153   1.115   4.486   3.169
 6404TIP3    H219154   1.060   4.563   3.287
 6405TIP3   OH219155   1.650   1.495   6.378
 6405TIP3    H119156   1.632   1.409   6.414
 6405TIP3    H219157   1.564   1.531   6.355
 6406TIP3   OH219158   5.608   0.519   4.052
 6406TIP3    H119159   5.608   0.470   3.970
 6406TIP3    H219160   5.521   0.506   4.088
 6407TIP3   OH219161   5.205   6.764   6.175
 6407TIP3    H119162   5.191   6.702   6.104
 6407TIP3    H219163   5.274   6.725   6.228
 6408TIP3   OH219164   1.770   1.788   0.310
 6408TIP3    H119165   1.744   1.714   0.365
 6408TIP3    H219166   1.789   1.858   0.373
 6409TIP3   OH219167   0.970   6.577   4.000
 6409TIP3    H119168   0.970   6.605   3.909
 6409TIP3    H219169   0.980   6.658   4.050
 6410TIP3   OH219170   3.891   7.416   6.037
 6410TIP3    H119171   3.944   7.393   6.113
 6410TIP3    H219172   3.878   7.334   5.991
 6411TIP3   OH219173   0.045   3.959   4.298
 6411TIP3    H119174   0.012   4.043   4.266
 6411TIP3    H219175   0.120   3.982   4.353
 6412TIP3   OH219176   2.880   6.791   4.643
 6412TIP3    H119177   2.837   6.737   4.710
 6412TIP3    H219178   2.855   6.881   4.665
 6413TIP3   OH219179   1.779   3.023   3.325
 6413TIP3    H119180   1.800   2.932   3.348
 6413TIP3    H219181   1.691   3.037   3.361
 6414TIP3   OH219182   1.136   5.133   2.450
 6414TIP3    H119183   1.186   5.153   2.528
 6414TIP3    H219184   1.160   5.201   2.387
 6415TIP3   OH219185   3.256   0.689   6.111
 6415TIP3    H119186   3.207   0.701   6.029
 6415TIP3    H219187   3.274   0.596   6.115
 6416TIP3   OH219188   4.742   0.605   1.806
 6416TIP3    H119189   4.754   0.584   1.713
 6416TIP3    H219190   4.647   0.613   1.817
 6417TIP3   OH219191   5.848   3.151   2.543
 6417TIP3    H119192   5.903   3.102   2.604
 6417TIP3    H219193   5.866   3.112   2.457
 6418TIP3   OH219194   5.483   5.300   2.329
 6418TIP3    H119195   5.523   5.302   2.416
 6418TIP3    H219196   5.413   5.365   2.333
 6419TIP3   OH219197   1.228   0.287   0.922
 6419TIP3    H119198   1.286   0.235   0.977
 6419TIP3    H219199   1.284   0.357   0.888
 6420TIP3   OH219200   6.415   6.753   0.399
 6420TIP3    H119201   6.370   6.740   0.482
 6420TIP3    H219202   6.394   6.843   0.374
 6421TIP3   OH219203   4.040   3.143   1.266
 6421TIP3    H119204   4.043   3.063   1.214
 6421TIP3    H219205   4.089   3.123   1.345
 6422TIP3   OH219206   8.171   3.780   3.080
 6422TIP3    H119207   8.100   3.818   3.133
 6422TIP3    H219208   8.248   3.833   3.104
 6423TIP3   OH219209   4.932   0.702   6.421
 6423TIP3    H119210   4.935   0.723   6.328
 6423TIP3    H219211   4.883   0.620   6.426
 6424TIP3   OH219212   5.753   7.146   6.460
 6424TIP3    H119213   5.713   7.071   6.417
 6424TIP3    H219214   5.719   7.143   6.549
 6425TIP3   OH219215   5.563   5.900   2.145
 6425TIP3    H119216   5.474   5.910   2.179
 6425TIP3    H219217   5.569   5.961   2.072
 6426TIP3   OH219218   1.241   2.237   5.117
 6426TIP3    H119219   1.232   2.297   5.191
 6426TIP3    H219220   1.156   2.194   5.112
 6427TIP3   OH219221   6.657   4.473   5.591
 6427TIP3    H119222   6.670   4.567   5.598
 6427TIP3    H219223   6.667   4.455   5.497
 6428TIP3   OH219224   0.101   6.146   6.082
 6428TIP3    H119225   0.141   6.172   5.998
 6428TIP3    H219226   0.164   6.085   6.120
 6429TIP3   OH219227   8.399   5.252   1.607
 6429TIP3    H119228   8.440   5.165   1.611
 6429TIP3    H219229   8.315   5.236   1.563
 6430TIP3   OH219230   8.253   1.923   1.170
 6430TIP3    H119231   8.262   1.962   1.083
 6430TIP3    H219232   8.342   1.896   1.194
 6431TIP3   OH219233   1.179   3.301   3.124
 6431TIP3    H119234   1.199   3.321   3.216
 6431TIP3    H219235   1.199   3.208   3.115
 6432TIP3   OH219236   2.511   5.210   6.725
 6432TIP3    H119237   2.511   5.236   6.632
 6432TIP3    H219238   2.437   5.257   6.763
 6433TIP3   OH219239   4.203   6.146   2.638
 6433TIP3    H119240   4.251   6.070   2.670
 6433TIP3    H219241   4.166   6.187   2.716
 6434TIP3   OH219242   0.762   4.176   6.820
 6434TIP3    H119243   0.679   4.136   6.793
 6434TIP3    H219244   0.807   4.194   6.738
 6435TIP3   OH219245   1.586   0.139   3.953
 6435TIP3    H119246   1.662   0.137   3.896
 6435TIP3    H219247   1.517   0.178   3.900
 6436TIP3   OH219248   5.506   7.171   5.610
 6436TIP3    H119249   5.510   7.088   5.656
 6436TIP3    H219250   5.539   7.151   5.522
 6437TIP3   OH219251   3.796   5.764   6.558
 6437TIP3    H119252   3.781   5.841   6.504
 6437TIP3    H219253   3.708   5.733   6.580
 6438TIP3   OH219254   5.474   1.039   5.816
 6438TIP3    H119255   5.411   1.108   5.794
 6438TIP3    H219256   5.531   1.079   5.882
 6439TIP3   OH219257   6.779   4.025   1.798
 6439TIP3    H119258   6.857   4.042   1.852
 6439TIP3    H219259   6.766   4.106   1.750
 6440TIP3   OH219260   1.812   6.344   4.443
 6440TIP3    H119261   1.807   6.436   4.417
 6440TIP3    H219262   1.894   6.313   4.405
 6441TIP3   OH219263   4.725   2.841   4.010
 6441TIP3    H119264   4.779   2.762   4.019
 6441TIP3    H219265   4.750   2.895   4.085
 6442TIP3   OH219266   6.049   2.572   2.312
 6442TIP3    H119267   6.092   2.491   2.341
 6442TIP3    H219268   6.070   2.578   2.219
 6443TIP3   OH219269   1.672   2.543   5.671
 6443TIP3    H119270   1.663   2.480   5.600
 6443TIP3    H219271   1.714   2.619   5.630
 6444TIP3   OH219272   1.500   4.697   4.370
 6444TIP3    H119273   1.493   4.705   4.275
 6444TIP3    H219274   1.413   4.668   4.398
 6445TIP3   OH219275   8.003   2.705   4.735
 6445TIP3    H119276   7.933   2.668   4.789
 6445TIP3    H219277   8.056   2.629   4.709
 6446TIP3   OH219278   3.697   6.966   2.499
 6446TIP3    H119279   3.715   6.989   2.408
 6446TIP3    H219280   3.669   7.048   2.540
 6447TIP3   OH219281   5.395   4.359   1.852
 6447TIP3    H119282   5.462   4.406   1.901
 6447TIP3    H219283   5.415   4.379   1.760
 6448TIP3   OH219284   3.744   2.324   0.382
 6448TIP3    H119285   3.795   2.384   0.327
 6448TIP3    H219286   3.654   2.334   0.352
 6449TIP3   OH219287   4.047   2.460   0.554
 6449TIP3    H119288   4.021   2.368   0.550
 6449TIP3    H219289   4.118   2.467   0.490
 6450TIP3   OH219290   5.552   3.308   2.503
 6450TIP3    H119291   5.504   3.391   2.500
 6450TIP3    H219292   5.533   3.273   2.590
 6451TIP3   OH219293   7.410   1.737   5.251
 6451TIP3    H119294   7.360   1.796   5.308
 6451TIP3    H219295   7.385   1.763   5.162
 6452TIP3   OH219296   1.236   7.126   2.069
 6452TIP3    H119297   1.311   7.125   2.129
 6452TIP3    H219298   1.255   7.198   2.008
 6453TIP3   OH219299   5.432   2.923   5.667
 6453TIP3    H119300   5.398   2.835   5.682
 6453TIP3    H219301   5.387   2.953   5.589
 6454TIP3   OH219302   1.714   1.987   1.813
 6454TIP3    H119303   1.648   1.993   1.744
 6454TIP3    H219304   1.670   2.018   1.891
 6455TIP3   OH219305   4.591   6.306   4.327
 6455TIP3    H119306   4.639   6.369   4.273
 6455TIP3    H219307   4.503   6.305   4.289
 6456TIP3   OH219308   8.115   2.263   2.357
 6456TIP3    H119309   8.168   2.307   2.291
 6456TIP3    H219310   8.024   2.286   2.335
 6457TIP3   OH219311   4.061   3.523   4.267
 6457TIP3    H119312   4.032   3.484   4.349
 6457TIP3    H219313   4.103   3.451   4.220
 6458TIP3   OH219314   4.403   4.367   1.184
 6458TIP3    H119315   4.404   4.438   1.119
 6458TIP3    H219316   4.387   4.288   1.133
 6459TIP3   OH219317   4.519   4.668   5.625
 6459TIP3    H119318   4.445   4.714   5.664
 6459TIP3    H219319   4.480   4.608   5.562
 6460TIP3   OH219320   6.409   0.766   1.966
 6460TIP3    H119321   6.472   0.814   1.912
 6460TIP3    H219322   6.463   0.707   2.018
 6461TIP3   OH219323   6.754   0.793   0.792
 6461TIP3    H119324   6.685   0.800   0.858
 6461TIP3    H219325   6.709   0.766   0.712
 6462TIP3   OH219326   3.292   7.317   2.342
 6462TIP3    H119327   3.370   7.354   2.383
 6462TIP3    H219328   3.306   7.222   2.343
 6463TIP3   OH219329   7.023   2.441  -0.007
 6463TIP3    H119330   6.956   2.421   0.058
 6463TIP3    H219331   7.104   2.406   0.030
 6464TIP3   OH219332   8.170   4.443   5.410
 6464TIP3    H119333   8.208   4.377   5.467
 6464TIP3    H219334   8.086   4.405   5.382
 6465TIP3   OH219335   3.587   3.833   1.981
 6465TIP3    H119336   3.562   3.741   1.984
 6465TIP3    H219337   3.676   3.835   2.015
 6466TIP3   OH219338   4.065   7.589   6.617
 6466TIP3    H119339   4.005   7.639   6.672
 6466TIP3    H219340   4.016   7.573   6.537
 6467TIP3   OH219341   5.249   2.234   0.169
 6467TIP3    H119342   5.251   2.138   0.165
 6467TIP3    H219343   5.179   2.259   0.109
 6468TIP3   OH219344   4.779   6.651   4.653
 6468TIP3    H119345   4.781   6.744   4.632
 6468TIP3    H219346   4.696   6.638   4.699
 6469TIP3   OH219347   8.050   4.785   1.683
 6469TIP3    H119348   8.010   4.851   1.627
 6469TIP3    H219349   8.051   4.826   1.770
 6470TIP3   OH219350   8.256   2.106   4.824
 6470TIP3    H119351   8.183   2.138   4.771
 6470TIP3    H219352   8.270   2.174   4.890
 6471TIP3   OH219353   0.522   5.187   2.747
 6471TIP3    H119354   0.566   5.113   2.789
 6471TIP3    H219355   0.445   5.148   2.706
 6472TIP3   OH219356   2.119   4.461   6.133
 6472TIP3    H119357   2.182   4.533   6.131
 6472TIP3    H219358   2.075   4.465   6.048
 6473TIP3   OH219359   6.570   3.771   6.164
 6473TIP3    H119360   6.664   3.759   6.160
 6473TIP3    H219361   6.538   3.694   6.211
 6474TIP3   OH219362   6.022   3.722   3.902
 6474TIP3    H119363   6.052   3.684   3.819
 6474TIP3    H219364   5.965   3.655   3.939
 6475TIP3   OH219365   4.572   6.194   6.094
 6475TIP3    H119366   4.603   6.215   6.006
 6475TIP3    H219367   4.546   6.278   6.131
 6476TIP3   OH219368   3.323   3.199   5.654
 6476TIP3    H119369   3.346   3.108   5.634
 6476TIP3    H219370   3.271   3.194   5.734
 6477TIP3   OH219371   4.600   6.360   1.154
 6477TIP3    H119372   4.632   6.302   1.084
 6477TIP3    H219373   4.585   6.301   1.228
 6478TIP3   OH219374   7.936   3.668   4.259
 6478TIP3    H119375   7.916   3.631   4.345
 6478TIP3    H219376   7.891   3.610   4.197
 6479TIP3   OH219377   7.900   1.251   2.557
 6479TIP3    H119378   7.872   1.335   2.593
 6479TIP3    H219379   7.916   1.196   2.634
 6480TIP3   OH219380   2.921   2.759   0.779
 6480TIP3    H119381   2.857   2.829   0.788
 6480TIP3    H219382   2.948   2.763   0.687
 6481TIP3   OH219383   0.075   3.366   2.697
 6481TIP3    H119384   0.038   3.433   2.640
 6481TIP3    H219385   0.035   3.284   2.666
 6482TIP3   OH219386   6.219   6.803   6.316
 6482TIP3    H119387   6.218   6.790   6.411
 6482TIP3    H219388   6.137   6.764   6.286
 6483TIP3   OH219389   5.890   4.746   2.677
 6483TIP3    H119390   5.838   4.687   2.623
 6483TIP3    H219391   5.954   4.689   2.720
 6484TIP3   OH219392   1.848   7.454   3.423
 6484TIP3    H119393   1.793   7.509   3.368
 6484TIP3    H219394   1.868   7.378   3.368
 6485TIP3   OH219395   5.341   5.384   0.423
 6485TIP3    H119396   5.290   5.321   0.371
 6485TIP3    H219397   5.368   5.335   0.500
 6486TIP3   OH219398   5.233   3.404   6.689
 6486TIP3    H119399   5.182   3.386   6.768
 6486TIP3    H219400   5.301   3.336   6.689
 6487TIP3   OH219401   7.712   0.515   6.838
 6487TIP3    H119402   7.769   0.591   6.828
 6487TIP3    H219403   7.650   0.521   6.765
 6488TIP3   OH219404   0.306   2.980   0.601
 6488TIP3    H119405   0.313   3.044   0.672
 6488TIP3    H219406   0.380   2.999   0.544
 6489TIP3   OH219407   5.514   2.634   1.305
 6489TIP3    H119408   5.507   2.643   1.210
 6489TIP3    H219409   5.473   2.713   1.340
 6490TIP3   OH219410   1.830   7.331   4.515
 6490TIP3    H119411   1.889   7.406   4.518
 6490TIP3    H219412   1.767   7.352   4.446
 6491TIP3   OH219413   0.185   3.101   6.692
 6491TIP3    H119414   0.115   3.159   6.659
 6491TIP3    H219415   0.166   3.091   6.785
 6492TIP3   OH219416   5.774   0.859   6.346
 6492TIP3    H119417   5.811   0.812   6.271
 6492TIP3    H219418   5.681   0.838   6.344
 6493TIP3   OH219419   0.794   4.290   2.060
 6493TIP3    H119420   0.843   4.369   2.040
 6493TIP3    H219421   0.776   4.296   2.154
 6494TIP3   OH219422   1.534   0.272   6.068
 6494TIP3    H119423   1.486   0.219   6.132
 6494TIP3    H219424   1.588   0.208   6.021
 6495TIP3   OH219425   1.150   2.395   0.491
 6495TIP3    H119426   1.206   2.430   0.560
 6495TIP3    H219427   1.204   2.330   0.447
 6496TIP3   OH219428   4.045   4.276   4.906
 6496TIP3    H119429   4.100   4.202   4.881
 6496TIP3    H219430   3.975   4.237   4.959
 6497TIP3   OH219431   5.954   4.611   1.039
 6497TIP3    H119432   5.932   4.659   0.958
 6497TIP3    H219433   5.883   4.548   1.049
 6498TIP3   OH219434   5.522   5.581   6.431
 6498TIP3    H119435   5.531   5.550   6.521
 6498TIP3    H219436   5.605   5.558   6.390
 6499TIP3   OH219437   3.876   0.808   0.988
 6499TIP3    H119438   3.809   0.816   1.056
 6499TIP3    H219439   3.940   0.876   1.010
 6500TIP3   OH219440   8.006   3.624   5.232
 6500TIP3    H119441   7.967   3.678   5.301
 6500TIP3    H219442   8.034   3.545   5.277
 6501TIP3   OH219443   6.271   5.358   2.405
 6501TIP3    H119444   6.240   5.306   2.331
 6501TIP3    H219445   6.333   5.420   2.367
 6502TIP3   OH219446   2.284   7.789   5.410
 6502TIP3    H119447   2.284   7.843   5.331
 6502TIP3    H219448   2.375   7.786   5.438
 6503TIP3   OH219449   7.707   4.996   4.603
 6503TIP3    H119450   7.698   5.089   4.584
 6503TIP3    H219451   7.762   4.992   4.681
 6504TIP3   OH219452   6.171   7.288   2.545
 6504TIP3    H119453   6.103   7.254   2.603
 6504TIP3    H219454   6.253   7.273   2.592
 6505TIP3   OH219455   7.583   6.784   2.840
 6505TIP3    H119456   7.567   6.705   2.789
 6505TIP3    H219457   7.513   6.784   2.906
 6506TIP3   OH219458   4.797   7.839   0.436
 6506TIP3    H119459   4.830   7.784   0.508
 6506TIP3    H219460   4.712   7.871   0.467
 6507TIP3   OH219461   2.355   3.525   4.211
 6507TIP3    H119462   2.440   3.564   4.231
 6507TIP3    H219463   2.303   3.598   4.177
 6508TIP3   OH219464   7.655   2.789   6.493
 6508TIP3    H119465   7.673   2.876   6.529
 6508TIP3    H219466   7.738   2.742   6.500
 6509TIP3   OH219467   8.261   0.551   6.607
 6509TIP3    H119468   8.238   0.640   6.636
 6509TIP3    H219469   8.195   0.530   6.541
 6510TIP3   OH219470   5.957   5.856   3.285
 6510TIP3    H119471   6.006   5.867   3.366
 6510TIP3    H219472   5.875   5.902   3.299
 6511TIP3   OH219473   4.191   5.897   0.224
 6511TIP3    H119474   4.229   5.975   0.264
 6511TIP3    H219475   4.097   5.916   0.220
 6512TIP3   OH219476   0.270   3.668   3.458
 6512TIP3    H119477   0.361   3.689   3.477
 6512TIP3    H219478   0.273   3.583   3.414
 6513TIP3   OH219479   3.185   2.834   6.697
 6513TIP3    H119480   3.187   2.835   6.792
 6513TIP3    H219481   3.095   2.859   6.675
 6514TIP3   OH219482   7.858   1.013   4.410
 6514TIP3    H119483   7.889   0.975   4.328
 6514TIP3    H219484   7.901   0.963   4.479
 6515TIP3   OH219485   6.110   2.393   4.932
 6515TIP3    H119486   6.158   2.387   5.015
 6515TIP3    H219487   6.098   2.302   4.905
 6516TIP3   OH219488   6.767   2.757   1.093
 6516TIP3    H119489   6.767   2.781   1.185
 6516TIP3    H219490   6.848   2.794   1.058
 6517TIP3   OH219491   2.742   7.233   0.841
 6517TIP3    H119492   2.678   7.193   0.900
 6517TIP3    H219493   2.815   7.171   0.839
 6518TIP3   OH219494   5.349   2.170   2.515
 6518TIP3    H119495   5.392   2.104   2.461
 6518TIP3    H219496   5.277   2.203   2.461
 6519TIP3   OH219497   1.873   2.751   3.513
 6519TIP3    H119498   1.797   2.695   3.527
 6519TIP3    H219499   1.900   2.777   3.602
 6520TIP3   OH219500   3.023   6.246   2.507
 6520TIP3    H119501   3.053   6.329   2.470
 6520TIP3    H219502   2.971   6.271   2.583
 6521TIP3   OH219503   4.183   0.615   1.229
 6521TIP3    H119504   4.259   0.673   1.228
 6521TIP3    H219505   4.212   0.539   1.280
 6522TIP3   OH219506   5.114   7.321   5.204
 6522TIP3    H119507   5.088   7.249   5.261
 6522TIP3    H219508   5.177   7.282   5.143
 6523TIP3   OH219509   7.766   5.669   2.200
 6523TIP3    H119510   7.768   5.574   2.207
 6523TIP3    H219511   7.782   5.700   2.289
 6524TIP3   OH219512   7.535   6.954   0.476
 6524TIP3    H119513   7.575   6.867   0.482
 6524TIP3    H219514   7.509   6.974   0.566
 6525TIP3   OH219515   7.027   6.864   0.544
 6525TIP3    H119516   7.116   6.887   0.515
 6525TIP3    H219517   6.972   6.881   0.467
 6526TIP3   OH219518   3.548   3.564   3.092
 6526TIP3    H119519   3.471   3.614   3.065
 6526TIP3    H219520   3.610   3.574   3.019
 6527TIP3   OH219521   5.670   2.838   1.168
 6527TIP3    H119522   5.743   2.790   1.130
 6527TIP3    H219523   5.631   2.885   1.094
 6528TIP3   OH219524   4.493   2.059   6.324
 6528TIP3    H119525   4.456   1.993   6.267
 6528TIP3    H219526   4.500   2.016   6.410
 6529TIP3   OH219527   6.713   5.463   4.363
 6529TIP3    H119528   6.646   5.447   4.296
 6529TIP3    H219529   6.796   5.464   4.314
 6530TIP3   OH219530   8.209   5.833   3.657
 6530TIP3    H119531   8.180   5.748   3.689
 6530TIP3    H219532   8.216   5.822   3.562
 6531TIP3   OH219533   2.956   0.312   1.469
 6531TIP3    H119534   2.911   0.326   1.386
 6531TIP3    H219535   3.048   0.330   1.449
 6532TIP3   OH219536   2.012   7.529   4.453
 6532TIP3    H119537   1.956   7.564   4.384
 6532TIP3    H219538   1.997   7.586   4.528
 6533TIP3   OH219539   6.141   0.432   3.256
 6533TIP3    H119540   6.185   0.511   3.225
 6533TIP3    H219541   6.135   0.444   3.351
 6534TIP3   OH219542   1.418   7.550   6.196
 6534TIP3    H119543   1.513   7.561   6.193
 6534TIP3    H219544   1.386   7.586   6.113
 6535TIP3   OH219545   1.895   6.843   2.654
 6535TIP3    H119546   1.909   6.820   2.745
 6535TIP3    H219547   1.926   6.933   2.647
 6536TIP3   OH219548   2.848  -0.001   0.397
 6536TIP3    H119549   2.906   0.070   0.372
 6536TIP3    H219550   2.852  -0.062   0.323
 6537TIP3   OH219551   0.337   6.424   5.675
 6537TIP3    H119552   0.261   6.482   5.668
 6537TIP3    H219553   0.409   6.483   5.700
 6538TIP3   OH219554   6.499   0.887   4.996
 6538TIP3    H119555   6.470   0.804   5.034
 6538TIP3    H219556   6.432   0.908   4.931
 6539TIP3   OH219557   0.139   3.452   6.513
 6539TIP3    H119558   0.171   3.429   6.426
 6539TIP3    H219559   0.109   3.369   6.550
 6540TIP3   OH219560   5.912   4.280   5.100
 6540TIP3    H119561   5.920   4.195   5.144
 6540TIP3    H219562   5.888   4.341   5.170
 6541TIP3   OH219563   4.173   1.626   6.288
 6541TIP3    H119564   4.263   1.636   6.258
 6541TIP3    H219565   4.125   1.601   6.209
 6542TIP3   OH219566   4.757   6.964   2.094
 6542TIP3    H119567   4.701   6.900   2.137
 6542TIP3    H219568   4.817   6.912   2.041
 6543TIP3   OH219569   1.107   7.257   0.512
 6543TIP3    H119570   1.131   7.167   0.536
 6543TIP3    H219571   1.186   7.308   0.529
 6544TIP3   OH219572   6.836   5.206   5.280
 6544TIP3    H119573   6.883   5.289   5.277
 6544TIP3    H219574   6.879   5.151   5.215
 6545TIP3   OH219575   6.697   4.671   0.059
 6545TIP3    H119576   6.697   4.595   0.118
 6545TIP3    H219577   6.780   4.715   0.078
 6546TIP3   OH219578   0.127   4.839   5.675
 6546TIP3    H119579   0.083   4.878   5.751
 6546TIP3    H219580   0.090   4.751   5.668
 6547TIP3   OH219581   2.501   0.554   0.040
 6547TIP3    H119582   2.590   0.582   0.065
 6547TIP3    H219583   2.467   0.512   0.119
 6548TIP3   OH219584   3.591   0.489   2.745
 6548TIP3    H119585   3.536   0.560   2.711
 6548TIP3    H219586   3.670   0.493   2.692
 6549TIP3   OH219587   5.407   3.560   2.471
 6549TIP3    H119588   5.409   3.614   2.392
 6549TIP3    H219589   5.382   3.621   2.540
 6550TIP3   OH219590   4.476   5.928   3.376
 6550TIP3    H119591   4.570   5.946   3.374
 6550TIP3    H219592   4.466   5.858   3.440
 6551TIP3   OH219593   2.947   5.088   1.066
 6551TIP3    H119594   2.917   5.013   1.015
 6551TIP3    H219595   2.866   5.132   1.094
 6552TIP3   OH219596   4.230   6.728   4.023
 6552TIP3    H119597   4.249   6.692   3.936
 6552TIP3    H219598   4.165   6.797   4.007
 6553TIP3   OH219599   1.207   7.934   6.395
 6553TIP3    H119600   1.112   7.934   6.407
 6553TIP3    H219601   1.228   7.843   6.373
 6554TIP3   OH219602   7.365   2.304   6.227
 6554TIP3    H119603   7.370   2.284   6.133
 6554TIP3    H219604   7.375   2.399   6.232
 6555TIP3   OH219605   5.229   5.519   4.359
 6555TIP3    H119606   5.246   5.613   4.359
 6555TIP3    H219607   5.141   5.511   4.396
 6556TIP3   OH219608   7.238   7.007   0.845
 6556TIP3    H119609   7.270   7.060   0.918
 6556TIP3    H219610   7.203   7.070   0.783
 6557TIP3   OH219611   5.649   7.029   4.691
 6557TIP3    H119612   5.680   6.961   4.751
 6557TIP3    H219613   5.708   7.024   4.616
 6558TIP3   OH219614   7.989   1.181   2.016
 6558TIP3    H119615   7.895   1.201   2.020
 6558TIP3    H219616   8.004   1.153   1.926
 6559TIP3   OH219617   1.032   1.127   0.678
 6559TIP3    H119618   1.123   1.146   0.702
 6559TIP3    H219619   1.039   1.054   0.616
 6560TIP3   OH219620   6.591   6.534   4.811
 6560TIP3    H119621   6.665   6.483   4.778
 6560TIP3    H219622   6.572   6.596   4.741
 6561TIP3   OH219623   0.114   5.885   1.105
 6561TIP3    H119624   0.082   5.967   1.142
 6561TIP3    H219625   0.084   5.886   1.014
 6562TIP3   OH219626   4.329   2.949   6.060
 6562TIP3    H119627   4.287   2.984   5.981
 6562TIP3    H219628   4.341   2.856   6.042
 6563TIP3   OH219629   1.912   5.115   1.616
 6563TIP3    H119630   1.869   5.171   1.551
 6563TIP3    H219631   1.843   5.054   1.643
 6564TIP3   OH219632   4.108   0.158   3.081
 6564TIP3    H119633   4.060   0.085   3.040
 6564TIP3    H219634   4.103   0.139   3.175
 6565TIP3   OH219635   6.023   4.489   0.375
 6565TIP3    H119636   5.932   4.515   0.361
 6565TIP3    H219637   6.046   4.527   0.459
 6566TIP3   OH219638   0.242   5.169   1.971
 6566TIP3    H119639   0.203   5.180   2.058
 6566TIP3    H219640   0.255   5.074   1.963
 6567TIP3   OH219641   2.405   2.499   3.540
 6567TIP3    H119642   2.453   2.574   3.574
 6567TIP3    H219643   2.313   2.520   3.553
 6568TIP3   OH219644   0.788   7.863   0.311
 6568TIP3    H119645   0.728   7.843   0.383
 6568TIP3    H219646   0.794   7.781   0.262
 6569TIP3   OH219647   8.388   7.036   5.074
 6569TIP3    H119648   8.390   7.085   5.156
 6569TIP3    H219649   8.375   6.945   5.101
 6570TIP3   OH219650   1.498   0.456   4.394
 6570TIP3    H119651   1.489   0.464   4.299
 6570TIP3    H219652   1.589   0.432   4.408
 6571TIP3   OH219653   3.195   5.460   1.544
 6571TIP3    H119654   3.243   5.543   1.554
 6571TIP3    H219655   3.171   5.457   1.452
 6572TIP3   OH219656   4.965   2.143   1.958
 6572TIP3    H119657   5.049   2.178   1.930
 6572TIP3    H219658   4.984   2.096   2.039
 6573TIP3   OH219659   4.156   3.760   2.107
 6573TIP3    H119660   4.144   3.769   2.013
 6573TIP3    H219661   4.134   3.846   2.143
 6574TIP3   OH219662   4.678   3.214   3.378
 6574TIP3    H119663   4.616   3.287   3.372
 6574TIP3    H219664   4.634   3.142   3.332
 6575TIP3   OH219665   6.891   1.174   0.743
 6575TIP3    H119666   6.866   1.091   0.785
 6575TIP3    H219667   6.873   1.240   0.809
 6576TIP3   OH219668   4.778   3.707   3.885
 6576TIP3    H119669   4.821   3.733   3.804
 6576TIP3    H219670   4.781   3.785   3.940
 6577TIP3   OH219671   7.806   6.594   1.075
 6577TIP3    H119672   7.827   6.638   0.992
 6577TIP3    H219673   7.791   6.666   1.137
 6578TIP3   OH219674   5.640   4.744   4.059
 6578TIP3    H119675   5.702   4.817   4.067
 6578TIP3    H219676   5.604   4.753   3.971
 6579TIP3   OH219677   6.917   7.042   1.029
 6579TIP3    H119678   6.913   6.965   0.972
 6579TIP3    H219679   6.948   7.008   1.113
 6580TIP3   OH219680   8.396   6.526   2.901
 6580TIP3    H119681   8.402   6.541   2.807
 6580TIP3    H219682   8.345   6.600   2.934
 6581TIP3   OH219683   2.009   7.488   1.877
 6581TIP3    H119684   2.003   7.413   1.817
 6581TIP3    H219685   2.103   7.499   1.892
 6582TIP3   OH219686   2.500   6.721   4.602
 6582TIP3    H119687   2.556   6.746   4.529
 6582TIP3    H219688   2.486   6.627   4.591
 6583TIP3   OH219689   2.821   7.074   4.649
 6583TIP3    H119690   2.764   7.076   4.726
 6583TIP3    H219691   2.869   7.157   4.652
 6584TIP3   OH219692   6.236   4.264   1.779
 6584TIP3    H119693   6.194   4.350   1.771
 6584TIP3    H219694   6.315   4.280   1.829
 6585TIP3   OH219695   5.000   6.149   4.792
 6585TIP3    H119696   5.052   6.069   4.793
 6585TIP3    H219697   5.059   6.216   4.758
 6586TIP3   OH219698   8.397   7.148   5.368
 6586TIP3    H119699   8.303   7.158   5.385
 6586TIP3    H219700   8.421   7.230   5.326
 6587TIP3   OH219701   6.174   2.077   5.178
 6587TIP3    H119702   6.213   2.067   5.265
 6587TIP3    H219703   6.103   2.012   5.176
 6588TIP3   OH219704   3.780   1.822   3.742
 6588TIP3    H119705   3.695   1.781   3.726
 6588TIP3    H219706   3.844   1.755   3.715
 6589TIP3   OH219707   3.592   2.660   4.489
 6589TIP3    H119708   3.564   2.640   4.578
 6589TIP3    H219709   3.682   2.626   4.484
 6590TIP3   OH219710   6.907   5.664   1.850
 6590TIP3    H119711   6.946   5.633   1.768
 6590TIP3    H219712   6.818   5.690   1.827
 6591TIP3   OH219713   5.447   5.832   1.107
 6591TIP3    H119714   5.438   5.927   1.095
 6591TIP3    H219715   5.526   5.809   1.057
 6592TIP3   OH219716   6.551   3.851   5.633
 6592TIP3    H119717   6.572   3.889   5.548
 6592TIP3    H219718   6.521   3.925   5.686
 6593TIP3   OH219719   5.867   4.231   1.976
 6593TIP3    H119720   5.847   4.246   1.884
 6593TIP3    H219721   5.784   4.204   2.015
 6594TIP3   OH219722   5.175   7.776   6.531
 6594TIP3    H119723   5.180   7.808   6.621
 6594TIP3    H219724   5.170   7.681   6.540
 6595TIP3   OH219725   6.434   0.533   6.358
 6595TIP3    H119726   6.454   0.533   6.264
 6595TIP3    H219727   6.488   0.604   6.394
 6596TIP3   OH219728   0.392   6.621   1.590
 6596TIP3    H119729   0.392   6.562   1.665
 6596TIP3    H219730   0.398   6.709   1.628
 6597TIP3   OH219731   4.975   1.983   3.796
 6597TIP3    H119732   4.927   2.019   3.871
 6597TIP3    H219733   5.062   1.965   3.830
 6598TIP3   OH219734   5.808   4.262   0.072
 6598TIP3    H119735   5.742   4.255   0.004
 6598TIP3    H219736   5.762   4.303   0.146
 6599TIP3   OH219737   4.041   5.857   2.176
 6599TIP3    H119738   4.053   5.908   2.256
 6599TIP3    H219739   4.016   5.922   2.110
 6600TIP3   OH219740   3.668   7.445   3.732
 6600TIP3    H119741   3.741   7.502   3.754
 6600TIP3    H219742   3.623   7.490   3.660
 6601TIP3   OH219743   3.514   5.082   0.604
 6601TIP3    H119744   3.444   5.138   0.638
 6601TIP3    H219745   3.476   5.039   0.528
 6602TIP3   OH219746   1.922   3.264   4.583
 6602TIP3    H119747   1.922   3.169   4.586
 6602TIP3    H219748   2.006   3.287   4.543
 6603TIP3   OH219749   8.338   0.479   3.228
 6603TIP3    H119750   8.389   0.489   3.308
 6603TIP3    H219751   8.264   0.539   3.239
 6604TIP3   OH219752   1.555   5.384   5.650
 6604TIP3    H119753   1.483   5.388   5.587
 6604TIP3    H219754   1.514   5.405   5.734
 6605TIP3   OH219755   4.654   3.526   0.143
 6605TIP3    H119756   4.713   3.560   0.211
 6605TIP3    H219757   4.681   3.571   0.063
 6606TIP3   OH219758   2.204   3.293   6.740
 6606TIP3    H119759   2.229   3.206   6.709
 6606TIP3    H219760   2.243   3.300   6.827
 6607TIP3   OH219761   3.359   3.756   4.763
 6607TIP3    H119762   3.303   3.728   4.836
 6607TIP3    H219763   3.374   3.676   4.713
 6608TIP3   OH219764   2.037   3.055   5.563
 6608TIP3    H119765   2.029   2.966   5.595
 6608TIP3    H219766   2.085   3.048   5.481
 6609TIP3   OH219767   3.071   4.759   3.125
 6609TIP3    H119768   2.994   4.745   3.070
 6609TIP3    H219769   3.080   4.854   3.131
 6610TIP3   OH219770   5.029   3.278   0.513
 6610TIP3    H119771   4.989   3.290   0.599
 6610TIP3    H219772   5.005   3.357   0.464
 6611TIP3   OH219773   3.870   0.830   2.662
 6611TIP3    H119774   3.940   0.812   2.725
 6611TIP3    H219775   3.810   0.889   2.709
 6612TIP3   OH219776   5.240   5.309   3.089
 6612TIP3    H119777   5.158   5.357   3.079
 6612TIP3    H219778   5.214   5.217   3.089
 6613TIP3   OH219779   5.850   0.774   6.100
 6613TIP3    H119780   5.889   0.726   6.026
 6613TIP3    H219781   5.780   0.826   6.060
 6614TIP3   OH219782   3.789   3.322   2.065
 6614TIP3    H119783   3.856   3.390   2.057
 6614TIP3    H219784   3.732   3.354   2.135
 6615TIP3   OH219785   7.520   4.954   6.465
 6615TIP3    H119786   7.431   4.980   6.442
 6615TIP3    H219787   7.561   4.932   6.381
 6616TIP3   OH219788   1.963   0.247   3.571
 6616TIP3    H119789   2.038   0.190   3.590
 6616TIP3    H219790   1.996   0.311   3.509
 6617TIP3   OH219791   6.829   6.411   4.037
 6617TIP3    H119792   6.795   6.480   3.980
 6617TIP3    H219793   6.918   6.438   4.057
 6618TIP3   OH219794   0.797   6.072   4.476
 6618TIP3    H119795   0.815   5.980   4.497
 6618TIP3    H219796   0.881   6.116   4.489
 6619TIP3   OH219797   7.021   3.299   0.661
 6619TIP3    H119798   7.102   3.346   0.638
 6619TIP3    H219799   6.991   3.343   0.740
 6620TIP3   OH219800   0.443   1.509   1.371
 6620TIP3    H119801   0.405   1.553   1.448
 6620TIP3    H219802   0.519   1.562   1.348
 6621TIP3   OH219803   2.514   2.689   0.438
 6621TIP3    H119804   2.570   2.647   0.503
 6621TIP3    H219805   2.546   2.779   0.434
 6622TIP3   OH219806   5.328   7.291   6.720
 6622TIP3    H119807   5.270   7.262   6.791
 6622TIP3    H219808   5.375   7.212   6.694
 6623TIP3   OH219809   1.653   5.981   0.810
 6623TIP3    H119810   1.694   6.005   0.727
 6623TIP3    H219811   1.662   6.059   0.865
 6624TIP3   OH219812   6.802   7.754   5.786
 6624TIP3    H119813   6.842   7.778   5.869
 6624TIP3    H219814   6.811   7.659   5.781
 6625TIP3   OH219815   2.417   1.756   5.072
 6625TIP3    H119816   2.332   1.714   5.080
 6625TIP3    H219817   2.468   1.699   5.014
 6626TIP3   OH219818   1.356   1.181   0.651
 6626TIP3    H119819   1.356   1.244   0.579
 6626TIP3    H219820   1.407   1.107   0.618
 6627TIP3   OH219821   1.325   5.140   4.055
 6627TIP3    H119822   1.296   5.198   4.125
 6627TIP3    H219823   1.249   5.087   4.034
 6628TIP3   OH219824   0.601   1.168   3.630
 6628TIP3    H119825   0.542   1.219   3.687
 6628TIP3    H219826   0.599   1.215   3.546
 6629TIP3   OH219827   5.759   0.833   6.871
 6629TIP3    H119828   5.728   0.743   6.860
 6629TIP3    H219829   5.765   0.868   6.782
 6630TIP3   OH219830   6.528   5.299   0.695
 6630TIP3    H119831   6.506   5.221   0.643
 6630TIP3    H219832   6.499   5.277   0.783
 6631TIP3   OH219833   0.036   7.382   2.580
 6631TIP3    H119834   0.090   7.460   2.565
 6631TIP3    H219835  -0.044   7.416   2.621
 6632TIP3   OH219836   7.805   3.060   6.357
 6632TIP3    H119837   7.787   3.098   6.271
 6632TIP3    H219838   7.833   2.970   6.338
 6633TIP3   OH219839   7.838   2.854   6.732
 6633TIP3    H119840   7.906   2.911   6.697
 6633TIP3    H219841   7.844   2.774   6.679
 6634TIP3   OH219842   4.518   2.059   1.331
 6634TIP3    H119843   4.610   2.075   1.312
 6634TIP3    H219844   4.517   2.019   1.418
 6635TIP3   OH219845   0.488   4.878   2.695
 6635TIP3    H119846   0.430   4.953   2.678
 6635TIP3    H219847   0.433   4.816   2.742
 6636TIP3   OH219848   4.515   1.874   1.014
 6636TIP3    H119849   4.535   1.835   0.928
 6636TIP3    H219850   4.483   1.962   0.993
 6637TIP3   OH219851   7.732   3.808   6.351
 6637TIP3    H119852   7.781   3.891   6.354
 6637TIP3    H219853   7.724   3.789   6.258
 6638TIP3   OH219854   6.262   1.132   5.450
 6638TIP3    H119855   6.331   1.094   5.396
 6638TIP3    H219856   6.184   1.130   5.394
 6639TIP3   OH219857   8.130   4.210   6.429
 6639TIP3    H119858   8.188   4.286   6.436
 6639TIP3    H219859   8.175   4.141   6.478
 6640TIP3   OH219860   7.594   1.457   3.735
 6640TIP3    H119861   7.568   1.510   3.660
 6640TIP3    H219862   7.512   1.438   3.781
 6641TIP3   OH219863   2.062   2.678   0.153
 6641TIP3    H119864   2.039   2.589   0.127
 6641TIP3    H219865   2.108   2.668   0.236
 6642TIP3   OH219866   0.397   2.731   5.823
 6642TIP3    H119867   0.390   2.819   5.786
 6642TIP3    H219868   0.473   2.736   5.882
 6643TIP3   OH219869   5.591   3.894   1.209
 6643TIP3    H119870   5.518   3.954   1.227
 6643TIP3    H219871   5.624   3.870   1.296
 6644TIP3   OH219872   1.102   0.068   3.335
 6644TIP3    H119873   1.168   0.020   3.384
 6644TIP3    H219874   1.034   0.003   3.315
 6645TIP3   OH219875   2.340   5.806   5.000
 6645TIP3    H119876   2.279   5.866   4.956
 6645TIP3    H219877   2.425   5.848   4.990
 6646TIP3   OH219878   3.006   3.569   3.914
 6646TIP3    H119879   3.073   3.526   3.861
 6646TIP3    H219880   3.048   3.650   3.944
 6647TIP3   OH219881   3.526   1.835   0.159
 6647TIP3    H119882   3.456   1.774   0.180
 6647TIP3    H219883   3.550   1.815   0.069
 6648TIP3   OH219884   2.390   5.742   1.983
 6648TIP3    H119885   2.338   5.665   1.957
 6648TIP3    H219886   2.423   5.778   1.901
 6649TIP3   OH219887   7.421   7.023   4.782
 6649TIP3    H119888   7.507   6.993   4.811
 6649TIP3    H219889   7.437   7.059   4.695
 6650TIP3   OH219890   4.188   3.655   0.093
 6650TIP3    H119891   4.169   3.564   0.070
 6650TIP3    H219892   4.279   3.668   0.066
 6651TIP3   OH219893   5.380   6.447   0.360
 6651TIP3    H119894   5.426   6.526   0.387
 6651TIP3    H219895   5.385   6.449   0.264
 6652TIP3   OH219896   1.900   5.742   1.814
 6652TIP3    H119897   1.957   5.718   1.887
 6652TIP3    H219898   1.952   5.802   1.760
 6653TIP3   OH219899   4.702   4.037   1.495
 6653TIP3    H119900   4.712   4.072   1.583
 6653TIP3    H219901   4.631   3.972   1.502
 6654TIP3   OH219902   0.336   6.917   3.374
 6654TIP3    H119903   0.412   6.958   3.333
 6654TIP3    H219904   0.346   6.824   3.357
 6655TIP3   OH219905   0.684   4.204   0.817
 6655TIP3    H119906   0.756   4.182   0.757
 6655TIP3    H219907   0.610   4.152   0.785
 6656TIP3   OH219908   4.557   7.076   5.122
 6656TIP3    H119909   4.552   7.153   5.179
 6656TIP3    H219910   4.539   7.002   5.180
 6657TIP3   OH219911   6.057   1.626   2.072
 6657TIP3    H119912   6.012   1.696   2.119
 6657TIP3    H219913   6.004   1.611   1.994
 6658TIP3   OH219914   0.217   1.271   1.451
 6658TIP3    H119915   0.246   1.354   1.489
 6658TIP3    H219916   0.122   1.278   1.446
 6659TIP3   OH219917   6.142   0.326   0.925
 6659TIP3    H119918   6.193   0.246   0.936
 6659TIP3    H219919   6.161   0.378   1.004
 6660TIP3   OH219920   2.750   7.925   3.363
 6660TIP3    H119921   2.764   7.831   3.352
 6660TIP3    H219922   2.673   7.932   3.420
 6661TIP3   OH219923   4.811   6.640   6.694
 6661TIP3    H119924   4.863   6.668   6.619
 6661TIP3    H219925   4.825   6.545   6.700
 6662TIP3   OH219926   0.564   6.203   0.563
 6662TIP3    H119927   0.589   6.220   0.654
 6662TIP3    H219928   0.637   6.153   0.526
 6663TIP3   OH219929   7.735   3.944   2.114
 6663TIP3    H119930   7.664   3.934   2.176
 6663TIP3    H219931   7.695   3.986   2.038
 6664TIP3   OH219932   5.395   2.612   4.432
 6664TIP3    H119933   5.362   2.532   4.392
 6664TIP3    H219934   5.483   2.622   4.396
 6665TIP3   OH219935   3.128   2.616   3.769
 6665TIP3    H119936   3.119   2.707   3.795
 6665TIP3    H219937   3.081   2.567   3.837
 6666TIP3   OH219938   5.028   7.073   3.884
 6666TIP3    H119939   5.039   6.982   3.913
 6666TIP3    H219940   5.084   7.124   3.943
 6667TIP3   OH219941   2.970   5.985   4.750
 6667TIP3    H119942   2.993   5.914   4.691
 6667TIP3    H219943   3.028   5.974   4.825
 6668TIP3   OH219944   0.285   6.314   4.313
 6668TIP3    H119945   0.322   6.379   4.373
 6668TIP3    H219946   0.302   6.349   4.226
 6669TIP3   OH219947   2.881   4.362   3.655
 6669TIP3    H119948   2.801   4.313   3.639
 6669TIP3    H219949   2.937   4.302   3.704
 6670TIP3   OH219950   6.080   4.070   1.913
 6670TIP3    H119951   6.029   4.127   1.970
 6670TIP3    H219952   6.122   4.130   1.851
 6671TIP3   OH219953   7.578   2.871   0.417
 6671TIP3    H119954   7.483   2.878   0.426
 6671TIP3    H219955   7.591   2.821   0.337
 6672TIP3   OH219956   6.862   1.152   6.795
 6672TIP3    H119957   6.953   1.176   6.776
 6672TIP3    H219958   6.856   1.155   6.891
 6673TIP3   OH219959   1.027   4.445   0.596
 6673TIP3    H119960   0.975   4.459   0.675
 6673TIP3    H219961   1.054   4.353   0.601
 6674TIP3   OH219962   0.526   3.483   3.228
 6674TIP3    H119963   0.438   3.468   3.265
 6674TIP3    H219964   0.585   3.469   3.302
 6675TIP3   OH219965   6.684   1.455   2.215
 6675TIP3    H119966   6.705   1.362   2.213
 6675TIP3    H219967   6.769   1.499   2.219
 6676TIP3   OH219968   8.008   7.902   2.493
 6676TIP3    H119969   7.955   7.958   2.550
 6676TIP3    H219970   7.951   7.829   2.471
 6677TIP3   OH219971   4.702   6.108   0.927
 6677TIP3    H119972   4.745   6.026   0.952
 6677TIP3    H219973   4.762   6.176   0.957
 6678TIP3   OH219974   2.418   6.554   1.322
 6678TIP3    H119975   2.351   6.552   1.391
 6678TIP3    H219976   2.501   6.549   1.370
 6679TIP3   OH219977   0.695   0.315   4.357
 6679TIP3    H119978   0.607   0.346   4.379
 6679TIP3    H219979   0.736   0.389   4.311
 6680TIP3   OH219980   1.065   3.990   1.757
 6680TIP3    H119981   1.006   4.064   1.744
 6680TIP3    H219982   1.066   3.945   1.672
 6681TIP3   OH219983   3.580   1.985   3.066
 6681TIP3    H119984   3.582   2.058   3.128
 6681TIP3    H219985   3.490   1.952   3.071
 6682TIP3   OH219986   5.074   5.206   1.284
 6682TIP3    H119987   5.079   5.232   1.376
 6682TIP3    H219988   5.134   5.266   1.239
 6683TIP3   OH219989   6.144   4.894   5.533
 6683TIP3    H119990   6.108   4.808   5.512
 6683TIP3    H219991   6.072   4.940   5.577
 6684TIP3   OH219992   7.615   5.927   6.645
 6684TIP3    H119993   7.651   5.844   6.675
 6684TIP3    H219994   7.611   5.918   6.549
 6685TIP3   OH219995   0.637   3.092   4.490
 6685TIP3    H119996   0.634   3.010   4.442
 6685TIP3    H219997   0.614   3.069   4.580
 6686TIP3   OH219998   2.407   1.502   1.517
 6686TIP3    H119999   2.382   1.414   1.546
 6686TIP3    H220000   2.500   1.494   1.496
 6687TIP3   OH220001   0.701   1.408   0.759
 6687TIP3    H120002   0.719   1.315   0.773
 6687TIP3    H220003   0.698   1.446   0.847
 6688TIP3   OH220004   4.499   1.711   0.235
 6688TIP3    H120005   4.475   1.628   0.195
 6688TIP3    H220006   4.419   1.762   0.235
 6689TIP3   OH220007   7.388   7.035   1.498
 6689TIP3    H120008   7.357   7.080   1.576
 6689TIP3    H220009   7.435   7.103   1.448
 6690TIP3   OH220010   4.566   7.601   2.252
 6690TIP3    H120011   4.662   7.594   2.244
 6690TIP3    H220012   4.545   7.550   2.330
 6691TIP3   OH220013   6.545   4.817   5.925
 6691TIP3    H120014   6.632   4.850   5.904
 6691TIP3    H220015   6.497   4.820   5.841
 6692TIP3   OH220016   6.618   0.139   4.827
 6692TIP3    H120017   6.557   0.178   4.765
 6692TIP3    H220018   6.691   0.200   4.831
 6693TIP3   OH220019   2.057   7.845   4.550
 6693TIP3    H120020   2.030   7.785   4.620
 6693TIP3    H220021   1.980   7.851   4.493
 6694TIP3   OH220022   5.661   4.154   4.639
 6694TIP3    H120023   5.668   4.214   4.712
 6694TIP3    H220024   5.741   4.168   4.588
 6695TIP3   OH220025   5.536   2.714   3.530
 6695TIP3    H120026   5.559   2.801   3.561
 6695TIP3    H220027   5.481   2.677   3.598
 6696TIP3   OH220028   4.041   1.436   4.749
 6696TIP3    H120029   4.044   1.443   4.844
 6696TIP3    H220030   4.131   1.448   4.720
 6697TIP3   OH220031   3.668   6.973   4.227
 6697TIP3    H120032   3.657   6.928   4.143
 6697TIP3    H220033   3.609   6.927   4.286
 6698TIP3   OH220034   5.205   2.413   5.494
 6698TIP3    H120035   5.292   2.447   5.476
 6698TIP3    H220036   5.154   2.490   5.519
 6699TIP3   OH220037   5.618   7.025   2.341
 6699TIP3    H120038   5.658   7.103   2.302
 6699TIP3    H220039   5.671   6.952   2.309
 6700TIP3   OH220040   1.325   0.553   3.663
 6700TIP3    H120041   1.365   0.474   3.698
 6700TIP3    H220042   1.368   0.624   3.711
 6701TIP3   OH220043   3.299   3.690   3.672
 6701TIP3    H120044   3.277   3.782   3.657
 6701TIP3    H220045   3.299   3.681   3.767
 6702TIP3   OH220046   2.810   1.015   2.949
 6702TIP3    H120047   2.827   1.103   2.984
 6702TIP3    H220048   2.715   1.008   2.946
 6703TIP3   OH220049   3.141   3.920   6.788
 6703TIP3    H120050   3.047   3.902   6.787
 6703TIP3    H220051   3.180   3.838   6.819
 6704TIP3   OH220052   0.464   7.643   5.250
 6704TIP3    H120053   0.559   7.642   5.240
 6704TIP3    H220054   0.437   7.552   5.244
 6705TIP3   OH220055   7.971   2.763   0.520
 6705TIP3    H120056   8.062   2.788   0.509
 6705TIP3    H220057   7.921   2.828   0.470
 6706TIP3   OH220058   4.790   2.021   6.304
 6706TIP3    H120059   4.850   2.078   6.255
 6706TIP3    H220060   4.708   2.026   6.256
 6707TIP3   OH220061   6.622   2.925   6.067
 6707TIP3    H120062   6.705   2.964   6.092
 6707TIP3    H220063   6.624   2.837   6.106
 6708TIP3   OH220064   8.060   7.822   5.126
 6708TIP3    H120065   7.982   7.777   5.158
 6708TIP3    H220066   8.067   7.901   5.179
 6709TIP3   OH220067   4.681   4.758   3.445
 6709TIP3    H120068   4.649   4.670   3.424
 6709TIP3    H220069   4.776   4.753   3.433
 6710TIP3   OH220070   6.513   4.011   1.724
 6710TIP3    H120071   6.508   4.066   1.802
 6710TIP3    H220072   6.597   3.964   1.732
 6711TIP3   OH220073   5.929   3.301   2.783
 6711TIP3    H120074   5.915   3.260   2.698
 6711TIP3    H220075   5.920   3.395   2.766
 6712TIP3   OH220076   3.340   5.512   4.052
 6712TIP3    H120077   3.333   5.572   3.977
 6712TIP3    H220078   3.273   5.446   4.037
 6713TIP3   OH220079   6.904   3.866   6.751
 6713TIP3    H120080   6.969   3.821   6.804
 6713TIP3    H220081   6.830   3.880   6.809
 6714TIP3   OH220082   3.436   6.163   5.638
 6714TIP3    H120083   3.361   6.113   5.670
 6714TIP3    H220084   3.510   6.126   5.686
 6715TIP3   OH220085   1.164   7.659   2.721
 6715TIP3    H120086   1.145   7.566   2.731
 6715TIP3    H220087   1.217   7.664   2.642
 6716TIP3   OH220088   2.209   6.352   4.675
 6716TIP3    H120089   2.261   6.384   4.749
 6716TIP3    H220090   2.120   6.383   4.693
 6717TIP3   OH220091   3.122   3.628   4.553
 6717TIP3    H120092   3.059   3.599   4.619
 6717TIP3    H220093   3.202   3.581   4.575
 6718TIP3   OH220094   7.589   6.330   2.147
 6718TIP3    H120095   7.650   6.282   2.202
 6718TIP3    H220096   7.639   6.404   2.113
 6719TIP3   OH220097   2.177   1.058   3.731
 6719TIP3    H120098   2.105   1.015   3.777
 6719TIP3    H220099   2.214   0.990   3.675
 6720TIP3   OH220100   6.908   2.267   3.035
 6720TIP3    H120101   6.963   2.334   3.077
 6720TIP3    H220102   6.874   2.215   3.107
 6721TIP3   OH220103   3.814   4.549   2.736
 6721TIP3    H120104   3.731   4.502   2.731
 6721TIP3    H220105   3.871   4.505   2.672
 6722TIP3   OH220106   1.243   6.946   1.085
 6722TIP3    H120107   1.254   7.029   1.039
 6722TIP3    H220108   1.228   6.882   1.015
 6723TIP3   OH220109   1.847   6.377   1.092
 6723TIP3    H120110   1.840   6.453   1.150
 6723TIP3    H220111   1.867   6.414   1.006
 6724TIP3   OH220112   8.127   3.821   1.745
 6724TIP3    H120113   8.157   3.911   1.731
 6724TIP3    H220114   8.150   3.776   1.664
 6725TIP3   OH220115   8.369   6.399   1.221
 6725TIP3    H120116   8.279   6.389   1.191
 6725TIP3    H220117   8.363   6.461   1.294
 6726TIP3   OH220118   2.668   0.720   2.891
 6726TIP3    H120119   2.695   0.655   2.826
 6726TIP3    H220120   2.740   0.724   2.953
 6727TIP3   OH220121   5.215   2.650   3.649
 6727TIP3    H120122   5.260   2.572   3.617
 6727TIP3    H220123   5.151   2.617   3.712
 6728TIP3   OH220124   7.958   7.412   3.839
 6728TIP3    H120125   7.964   7.485   3.901
 6728TIP3    H220126   7.880   7.363   3.867
 6729TIP3   OH220127   8.040   5.745   1.537
 6729TIP3    H120128   8.042   5.684   1.610
 6729TIP3    H220129   8.131   5.776   1.530
 6730TIP3   OH220130   8.219   6.776   1.707
 6730TIP3    H120131   8.169   6.819   1.638
 6730TIP3    H220132   8.259   6.701   1.663
 6731TIP3   OH220133   2.330   1.678   6.295
 6731TIP3    H120134   2.250   1.731   6.299
 6731TIP3    H220135   2.301   1.589   6.315
 6732TIP3   OH220136   1.600   0.841   5.310
 6732TIP3    H120137   1.676   0.817   5.257
 6732TIP3    H220138   1.531   0.781   5.282
 6733TIP3   OH220139   6.291   4.733   2.396
 6733TIP3    H120140   6.313   4.712   2.305
 6733TIP3    H220141   6.358   4.688   2.448
 6734TIP3   OH220142   6.193   0.614   6.101
 6734TIP3    H120143   6.287   0.600   6.084
 6734TIP3    H220144   6.152   0.607   6.014
 6735TIP3   OH220145   6.139   7.400   1.783
 6735TIP3    H120146   6.163   7.339   1.853
 6735TIP3    H220147   6.094   7.471   1.829
 6736TIP3   OH220148   7.304   7.617   3.669
 6736TIP3    H120149   7.275   7.693   3.617
 6736TIP3    H220150   7.224   7.585   3.711
 6737TIP3   OH220151   2.752   5.261   3.732
 6737TIP3    H120152   2.768   5.230   3.643
 6737TIP3    H220153   2.837   5.294   3.762
 6738TIP3   OH220154   5.591   1.560   5.508
 6738TIP3    H120155   5.579   1.543   5.415
 6738TIP3    H220156   5.502   1.569   5.543
 6739TIP3   OH220157   4.600   1.042   1.891
 6739TIP3    H120158   4.592   1.096   1.969
 6739TIP3    H220159   4.670   0.981   1.911
 6740TIP3   OH220160   5.414   7.227   1.679
 6740TIP3    H120161   5.433   7.148   1.629
 6740TIP3    H220162   5.360   7.280   1.621
 6741TIP3   OH220163   1.496   4.113   2.562
 6741TIP3    H120164   1.518   4.171   2.489
 6741TIP3    H220165   1.525   4.026   2.533
 6742TIP3   OH220166   0.066   3.223   5.629
 6742TIP3    H120167   0.023   3.206   5.713
 6742TIP3    H220168   0.066   3.318   5.620
 6743TIP3   OH220169   3.357   2.526   0.089
 6743TIP3    H120170   3.439   2.485   0.114
 6743TIP3    H220171   3.299   2.513   0.164
 6744TIP3   OH220172   4.234   1.456   0.355
 6744TIP3    H120173   4.146   1.462   0.318
 6744TIP3    H220174   4.234   1.374   0.405
 6745TIP3   OH220175   7.492   0.083   5.136
 6745TIP3    H120176   7.551   0.126   5.198
 6745TIP3    H220177   7.405   0.115   5.159
 6746TIP3   OH220178   7.576   0.327   0.686
 6746TIP3    H120179   7.544   0.255   0.742
 6746TIP3    H220180   7.653   0.291   0.642
 6747TIP3   OH220181   6.617   0.984   3.396
 6747TIP3    H120182   6.678   1.008   3.465
 6747TIP3    H220183   6.531   1.004   3.431
 6748TIP3   OH220184   8.244   3.627   1.544
 6748TIP3    H120185   8.264   3.533   1.540
 6748TIP3    H220186   8.329   3.669   1.559
 6749TIP3   OH220187   5.828   3.623   2.023
 6749TIP3    H120188   5.812   3.716   2.008
 6749TIP3    H220189   5.905   3.621   2.081
 6750TIP3   OH220190   5.553   0.950   5.557
 6750TIP3    H120191   5.494   0.883   5.522
 6750TIP3    H220192   5.525   0.960   5.648
 6751TIP3   OH220193   0.658   1.801   5.093
 6751TIP3    H120194   0.621   1.744   5.161
 6751TIP3    H220195   0.591   1.868   5.079
 6752TIP3   OH220196   3.668   5.614   6.860
 6752TIP3    H120197   3.697   5.705   6.871
 6752TIP3    H220198   3.624   5.613   6.776
 6753TIP3   OH220199   7.640   0.629   3.784
 6753TIP3    H120200   7.646   0.604   3.692
 6753TIP3    H220201   7.668   0.720   3.786
 6754TIP3   OH220202   5.559   6.845   4.277
 6754TIP3    H120203   5.504   6.768   4.265
 6754TIP3    H220204   5.602   6.832   4.362
 6755TIP3   OH220205   0.074   2.325   1.444
 6755TIP3    H120206   0.041   2.238   1.423
 6755TIP3    H220207   0.168   2.313   1.455
 6756TIP3   OH220208   5.841   1.566   2.448
 6756TIP3    H120209   5.907   1.498   2.438
 6756TIP3    H220210   5.819   1.592   2.359
 6757TIP3   OH220211   6.668   6.257   5.126
 6757TIP3    H120212   6.584   6.216   5.147
 6757TIP3    H220213   6.675   6.250   5.031
 6758TIP3   OH220214   7.336   0.496   0.580
 6758TIP3    H120215   7.333   0.470   0.488
 6758TIP3    H220216   7.428   0.485   0.605
 6759TIP3   OH220217   3.092   1.418   6.640
 6759TIP3    H120218   3.109   1.498   6.590
 6759TIP3    H220219   3.115   1.347   6.581
 6760TIP3   OH220220   0.622   0.178   1.062
 6760TIP3    H120221   0.673   0.105   1.026
 6760TIP3    H220222   0.580   0.217   0.986
 6761TIP3   OH220223   3.007   5.053   5.060
 6761TIP3    H120224   2.925   5.038   5.108
 6761TIP3    H220225   3.075   5.043   5.126
 6762TIP3   OH220226   6.506   6.489   3.974
 6762TIP3    H120227   6.417   6.510   3.945
 6762TIP3    H220228   6.501   6.488   4.069
 6763TIP3   OH220229   7.186   6.232   5.143
 6763TIP3    H120230   7.180   6.277   5.059
 6763TIP3    H220231   7.143   6.292   5.205
 6764TIP3   OH220232   4.313   4.855   4.050
 6764TIP3    H120233   4.233   4.819   4.089
 6764TIP3    H220234   4.360   4.779   4.018
 6765TIP3   OH220235   6.162   1.412   6.430
 6765TIP3    H120236   6.247   1.371   6.448
 6765TIP3    H220237   6.098   1.347   6.459
 6766TIP3   OH220238   6.615   2.820   0.470
 6766TIP3    H120239   6.626   2.786   0.559
 6766TIP3    H220240   6.676   2.769   0.417
 6767TIP3   OH220241   6.476   6.050   0.265
 6767TIP3    H120242   6.526   6.128   0.287
 6767TIP3    H220243   6.406   6.082   0.207
 6768TIP3   OH220244   4.721   2.086   0.060
 6768TIP3    H120245   4.790   2.152   0.060
 6768TIP3    H220246   4.735   2.036  -0.021
 6769TIP3   OH220247   4.429   5.377   2.179
 6769TIP3    H120248   4.494   5.442   2.154
 6769TIP3    H220249   4.345   5.420   2.163
 6770TIP3   OH220250   8.288   4.854   0.941
 6770TIP3    H120251   8.314   4.839   1.032
 6770TIP3    H220252   8.364   4.827   0.890
 6771TIP3   OH220253   5.013   6.642   0.075
 6771TIP3    H120254   5.026   6.564   0.129
 6771TIP3    H220255   4.976   6.707   0.135
 6772TIP3   OH220256   4.288   3.478   2.550
 6772TIP3    H120257   4.216   3.419   2.571
 6772TIP3    H220258   4.245   3.556   2.515
 6773TIP3   OH220259   1.955   2.145   4.514
 6773TIP3    H120260   1.926   2.146   4.605
 6773TIP3    H220261   1.937   2.055   4.485
 6774TIP3   OH220262   2.974   2.075   0.340
 6774TIP3    H120263   2.895   2.128   0.346
 6774TIP3    H220264   2.991   2.046   0.429
 6775TIP3   OH220265   0.982   5.983   2.501
 6775TIP3    H120266   0.890   6.002   2.519
 6775TIP3    H220267   1.025   6.068   2.499
 6776TIP3   OH220268   0.971   2.755   5.101
 6776TIP3    H120269   0.959   2.849   5.109
 6776TIP3    H220270   0.909   2.717   5.164
 6777TIP3   OH220271   2.118   3.989   0.982
 6777TIP3    H120272   2.079   4.001   1.069
 6777TIP3    H220273   2.151   3.900   0.982
 6778TIP3   OH220274   7.031   4.215   4.002
 6778TIP3    H120275   6.950   4.164   4.010
 6778TIP3    H220276   7.026   4.255   3.915
 6779TIP3   OH220277   0.328   3.524   5.539
 6779TIP3    H120278   0.370   3.534   5.624
 6779TIP3    H220279   0.241   3.489   5.560
 6780TIP3   OH220280   3.807   0.276   3.254
 6780TIP3    H120281   3.763   0.314   3.178
 6780TIP3    H220282   3.888   0.326   3.261
 6781TIP3   OH220283   5.250   6.521   5.326
 6781TIP3    H120284   5.308   6.463   5.277
 6781TIP3    H220285   5.244   6.600   5.272
 6782TIP3   OH220286   7.099   7.338   0.247
 6782TIP3    H120287   7.059   7.358   0.162
 6782TIP3    H220288   7.124   7.424   0.281
 6783TIP3   OH220289   2.354   2.174   3.905
 6783TIP3    H120290   2.358   2.238   3.976
 6783TIP3    H220291   2.380   2.091   3.946
 6784TIP3   OH220292   4.506   4.446   5.887
 6784TIP3    H120293   4.596   4.460   5.916
 6784TIP3    H220294   4.503   4.482   5.799
 6785TIP3   OH220295   2.562   2.525   1.267
 6785TIP3    H120296   2.499   2.527   1.339
 6785TIP3    H220297   2.647   2.510   1.309
 6786TIP3   OH220298   5.993   3.417   3.113
 6786TIP3    H120299   5.964   3.480   3.178
 6786TIP3    H220300   6.086   3.406   3.128
 6787TIP3   OH220301   4.530   7.533   1.423
 6787TIP3    H120302   4.581   7.562   1.347
 6787TIP3    H220303   4.594   7.491   1.480
 6788TIP3   OH220304   3.678   2.336   1.905
 6788TIP3    H120305   3.745   2.346   1.972
 6788TIP3    H220306   3.598   2.367   1.946
 6789TIP3   OH220307   5.923   7.168   5.861
 6789TIP3    H120308   5.919   7.260   5.887
 6789TIP3    H220309   5.832   7.143   5.844
 6790TIP3   OH220310   0.689   2.208   1.150
 6790TIP3    H120311   0.781   2.209   1.176
 6790TIP3    H220312   0.690   2.236   1.058
 6791TIP3   OH220313   7.484   6.082   2.364
 6791TIP3    H120314   7.550   6.104   2.299
 6791TIP3    H220315   7.532   6.074   2.446
 6792TIP3   OH220316   0.220   3.827   5.183
 6792TIP3    H120317   0.227   3.792   5.272
 6792TIP3    H220318   0.163   3.766   5.137
 6793TIP3   OH220319   2.610   0.011   0.754
 6793TIP3    H120320   2.643   0.025   0.843
 6793TIP3    H220321   2.639   0.088   0.705
 6794TIP3   OH220322   1.184   2.351   2.049
 6794TIP3    H120323   1.168   2.442   2.024
 6794TIP3    H220324   1.112   2.302   2.009
 6795TIP3   OH220325   5.324   1.592   5.561
 6795TIP3    H120326   5.294   1.502   5.549
 6795TIP3    H220327   5.247   1.646   5.542
 6796TIP3   OH220328   6.845   0.543   5.231
 6796TIP3    H120329   6.831   0.636   5.250
 6796TIP3    H220330   6.931   0.540   5.189
 6797TIP3   OH220331   5.400   5.343   3.573
 6797TIP3    H120332   5.330   5.361   3.636
 6797TIP3    H220333   5.409   5.248   3.572
 6798TIP3   OH220334   7.582   0.870   3.429
 6798TIP3    H120335   7.613   0.787   3.467
 6798TIP3    H220336   7.500   0.888   3.475
 6799TIP3   OH220337   2.103   0.253   1.712
 6799TIP3    H120338   2.107   0.161   1.737
 6799TIP3    H220339   2.066   0.297   1.789
 6800TIP3   OH220340   1.462   3.229   4.017
 6800TIP3    H120341   1.530   3.213   4.082
 6800TIP3    H220342   1.417   3.308   4.047
 6801TIP3   OH220343   4.881   1.373   2.659
 6801TIP3    H120344   4.953   1.436   2.666
 6801TIP3    H220345   4.817   1.403   2.724
 6802TIP3   OH220346   2.506   6.447   5.320
 6802TIP3    H120347   2.423   6.443   5.272
 6802TIP3    H220348   2.524   6.541   5.328
 6803TIP3   OH220349   5.273   2.781   6.671
 6803TIP3    H120350   5.296   2.795   6.579
 6803TIP3    H220351   5.179   2.766   6.671
 6804TIP3   OH220352   1.606   6.390   0.135
 6804TIP3    H120353   1.698   6.389   0.109
 6804TIP3    H220354   1.582   6.482   0.137
 6805TIP3   OH220355   5.295   6.318   1.402
 6805TIP3    H120356   5.383   6.286   1.423
 6805TIP3    H220357   5.259   6.348   1.485
 6806TIP3   OH220358   5.344   1.295   5.782
 6806TIP3    H120359   5.386   1.374   5.816
 6806TIP3    H220360   5.364   1.295   5.689
 6807TIP3   OH220361   3.754   5.743   5.818
 6807TIP3    H120362   3.721   5.807   5.882
 6807TIP3    H220363   3.698   5.666   5.830
 6808TIP3   OH220364   7.596   3.137   5.328
 6808TIP3    H120365   7.635   3.050   5.329
 6808TIP3    H220366   7.653   3.189   5.271
 6809TIP3   OH220367   0.766   2.136   5.363
 6809TIP3    H120368   0.717   2.177   5.291
 6809TIP3    H220369   0.830   2.201   5.390
 6810TIP3   OH220370   7.536   5.312   3.630
 6810TIP3    H120371   7.556   5.269   3.712
 6810TIP3    H220372   7.570   5.401   3.640
 6811TIP3   OH220373   7.116   2.948   4.497
 6811TIP3    H120374   7.071   3.025   4.461
 6811TIP3    H220375   7.064   2.925   4.574
 6812TIP3   OH220376   3.404   3.308   6.065
 6812TIP3    H120377   3.426   3.215   6.072
 6812TIP3    H220378   3.471   3.352   6.116
 6813TIP3   OH220379   4.204   6.146   5.218
 6813TIP3    H120380   4.190   6.095   5.298
 6813TIP3    H220381   4.266   6.215   5.245
 6814TIP3   OH220382   7.247   3.369   6.315
 6814TIP3    H120383   7.253   3.290   6.261
 6814TIP3    H220384   7.167   3.357   6.366
 6815TIP3   OH220385   5.529   3.323   3.016
 6815TIP3    H120386   5.612   3.277   3.026
 6815TIP3    H220387   5.553   3.415   3.006
 6816TIP3   OH220388   6.836   3.737   3.959
 6816TIP3    H120389   6.843   3.782   4.043
 6816TIP3    H220390   6.921   3.751   3.916
 6817TIP3   OH220391   6.099   1.136   3.545
 6817TIP3    H120392   6.144   1.216   3.570
 6817TIP3    H220393   6.063   1.154   3.458
 6818TIP3   OH220394   5.009   5.929   5.679
 6818TIP3    H120395   5.091   5.971   5.704
 6818TIP3    H220396   4.966   5.908   5.763
 6819TIP3   OH220397   3.492   0.621   5.367
 6819TIP3    H120398   3.509   0.653   5.456
 6819TIP3    H220399   3.397   0.623   5.358
 6820TIP3   OH220400   5.426   2.526   5.336
 6820TIP3    H120401   5.408   2.496   5.246
 6820TIP3    H220402   5.504   2.479   5.362
 6821TIP3   OH220403   1.382   2.281   6.133
 6821TIP3    H120404   1.376   2.373   6.159
 6821TIP3    H220405   1.346   2.279   6.044
 6822TIP3   OH220406   6.791   2.027   0.436
 6822TIP3    H120407   6.724   2.049   0.501
 6822TIP3    H220408   6.868   2.075   0.466
 6823TIP3   OH220409   3.368   1.361   6.036
 6823TIP3    H120410   3.283   1.394   6.006
 6823TIP3    H220411   3.371   1.384   6.129
 6824TIP3   OH220412   1.018   3.701   0.229
 6824TIP3    H120413   1.067   3.640   0.284
 6824TIP3    H220414   1.016   3.660   0.143
 6825TIP3   OH220415   4.007   1.628   1.448
 6825TIP3    H120416   4.097   1.660   1.447
 6825TIP3    H220417   4.015   1.534   1.438
 6826TIP3   OH220418   7.034   4.410   5.095
 6826TIP3    H120419   6.959   4.436   5.040
 6826TIP3    H220420   7.082   4.347   5.042
 6827TIP3   OH220421   5.173   4.169   6.471
 6827TIP3    H120422   5.080   4.185   6.486
 6827TIP3    H220423   5.201   4.118   6.547
 6828TIP3   OH220424   2.634   7.546   4.741
 6828TIP3    H120425   2.556   7.574   4.789
 6828TIP3    H220426   2.692   7.623   4.744
 6829TIP3   OH220427   2.626   5.645   2.164
 6829TIP3    H120428   2.715   5.611   2.169
 6829TIP3    H220429   2.579   5.582   2.110
 6830TIP3   OH220430   5.463   7.841   0.139
 6830TIP3    H120431   5.462   7.840   0.043
 6830TIP3    H220432   5.531   7.779   0.163
 6831TIP3   OH220433   6.437   4.215   4.169
 6831TIP3    H120434   6.370   4.283   4.175
 6831TIP3    H220435   6.389   4.137   4.140
 6832TIP3   OH220436   0.896   0.740   0.103
 6832TIP3    H120437   0.856   0.720   0.019
 6832TIP3    H220438   0.986   0.764   0.082
 6833TIP3   OH220439   5.879   0.473   5.973
 6833TIP3    H120440   5.809   0.482   5.909
 6833TIP3    H220441   5.846   0.409   6.036
 6834TIP3   OH220442   8.071   1.143   3.446
 6834TIP3    H120443   8.047   1.218   3.500
 6834TIP3    H220444   8.007   1.142   3.375
 6835TIP3   OH220445   6.591   0.131   4.107
 6835TIP3    H120446   6.535   0.123   4.184
 6835TIP3    H220447   6.639   0.048   4.103
 6836TIP3   OH220448   7.791   4.966   6.382
 6836TIP3    H120449   7.774   4.876   6.407
 6836TIP3    H220450   7.846   5.001   6.452
 6837TIP3   OH220451   0.313   2.857   2.629
 6837TIP3    H120452   0.369   2.904   2.691
 6837TIP3    H220453   0.354   2.871   2.544
 6838TIP3   OH220454   5.294   1.299   0.776
 6838TIP3    H120455   5.254   1.304   0.863
 6838TIP3    H220456   5.387   1.285   0.793
 6839TIP3   OH220457   3.710   7.765   5.111
 6839TIP3    H120458   3.650   7.837   5.091
 6839TIP3    H220459   3.794   7.808   5.128
 6840TIP3   OH220460   2.182   5.778   3.885
 6840TIP3    H120461   2.216   5.853   3.933
 6840TIP3    H220462   2.260   5.741   3.842
 6841TIP3   OH220463   7.053   3.795   2.133
 6841TIP3    H120464   7.010   3.814   2.050
 6841TIP3    H220465   7.040   3.875   2.185
 6842TIP3   OH220466   0.085   7.104   2.867
 6842TIP3    H120467   0.118   7.180   2.819
 6842TIP3    H220468   0.038   7.052   2.801
 6843TIP3   OH220469   0.050   6.430   5.045
 6843TIP3    H120470   0.000   6.394   4.972
 6843TIP3    H220471   0.060   6.523   5.025
 6844TIP3   OH220472   7.730   5.759   1.212
 6844TIP3    H120473   7.791   5.772   1.285
 6844TIP3    H220474   7.662   5.824   1.227
 6845TIP3   OH220475   4.460   2.466   2.815
 6845TIP3    H120476   4.415   2.480   2.732
 6845TIP3    H220477   4.390   2.458   2.880
 6846TIP3   OH220478   6.848   7.854   6.738
 6846TIP3    H120479   6.786   7.923   6.765
 6846TIP3    H220480   6.840   7.851   6.643
 6847TIP3   OH220481   6.862   2.427   3.506
 6847TIP3    H120482   6.890   2.335   3.502
 6847TIP3    H220483   6.892   2.464   3.423
 6848TIP3   OH220484   4.420   4.611   4.042
 6848TIP3    H120485   4.350   4.549   4.023
 6848TIP3    H220486   4.439   4.598   4.135
 6849TIP3   OH220487   1.971   6.809   2.913
 6849TIP3    H120488   2.030   6.851   2.975
 6849TIP3    H220489   1.962   6.719   2.945
 6850TIP3   OH220490   2.426   1.103   0.807
 6850TIP3    H120491   2.445   1.112   0.901
 6850TIP3    H220492   2.407   1.193   0.779
 6851TIP3   OH220493   7.938   4.843   5.483
 6851TIP3    H120494   8.022   4.821   5.524
 6851TIP3    H220495   7.873   4.825   5.550
 6852TIP3   OH220496   7.585   5.534   6.379
 6852TIP3    H120497   7.513   5.503   6.324
 6852TIP3    H220498   7.663   5.521   6.325
 6853TIP3   OH220499   7.238   5.604   5.191
 6853TIP3    H120500   7.288   5.675   5.149
 6853TIP3    H220501   7.169   5.649   5.240
 6854TIP3   OH220502   7.818   5.184   3.126
 6854TIP3    H120503   7.770   5.267   3.124
 6854TIP3    H220504   7.908   5.207   3.107
 6855TIP3   OH220505   2.366   2.130   2.791
 6855TIP3    H120506   2.315   2.103   2.715
 6855TIP3    H220507   2.303   2.134   2.863
 6856TIP3   OH220508   3.187   3.454   5.941
 6856TIP3    H120509   3.151   3.525   5.995
 6856TIP3    H220510   3.264   3.425   5.988
 6857TIP3   OH220511   5.214   7.286   2.452
 6857TIP3    H120512   5.200   7.355   2.518
 6857TIP3    H220513   5.169   7.319   2.374
 6858TIP3   OH220514   6.160   0.490   1.716
 6858TIP3    H120515   6.190   0.581   1.716
 6858TIP3    H220516   6.126   0.476   1.804
 6859TIP3   OH220517   3.916   6.964   3.041
 6859TIP3    H120518   3.861   7.011   2.978
 6859TIP3    H220519   3.921   7.022   3.117
 6860TIP3   OH220520   6.677   2.207   0.834
 6860TIP3    H120521   6.652   2.126   0.790
 6860TIP3    H220522   6.773   2.201   0.843
 6861TIP3   OH220523   1.850   0.038   0.236
 6861TIP3    H120524   1.901   0.104   0.190
 6861TIP3    H220525   1.759   0.068   0.229
 6862TIP3   OH220526   3.497   6.927   1.931
 6862TIP3    H120527   3.440   6.850   1.928
 6862TIP3    H220528   3.565   6.905   1.995
 6863TIP3   OH220529   6.446   4.458   1.966
 6863TIP3    H120530   6.448   4.518   1.891
 6863TIP3    H220531   6.438   4.516   2.042
 6864TIP3   OH220532   7.970   3.082   6.580
 6864TIP3    H120533   8.043   3.044   6.530
 6864TIP3    H220534   7.896   3.080   6.519
 6865TIP3   OH220535   8.166   4.332   3.750
 6865TIP3    H120536   8.164   4.241   3.721
 6865TIP3    H220537   8.100   4.337   3.819
 6866TIP3   OH220538   1.706   2.443   6.578
 6866TIP3    H120539   1.653   2.501   6.632
 6866TIP3    H220540   1.761   2.396   6.640
 6867TIP3   OH220541   6.286   6.220   2.397
 6867TIP3    H120542   6.231   6.293   2.427
 6867TIP3    H220543   6.246   6.142   2.436
 6868TIP3   OH220544   8.339   5.969   4.243
 6868TIP3    H120545   8.311   6.030   4.311
 6868TIP3    H220546   8.371   6.024   4.173
 6869TIP3   OH220547   4.403   3.383   3.903
 6869TIP3    H120548   4.440   3.464   3.939
 6869TIP3    H220549   4.397   3.324   3.978
 6870TIP3   OH220550   7.289   2.957   2.278
 6870TIP3    H120551   7.327   2.882   2.324
 6870TIP3    H220552   7.267   2.923   2.191
 6871TIP3   OH220553   0.865   0.480   3.726
 6871TIP3    H120554   0.787   0.451   3.773
 6871TIP3    H220555   0.838   0.481   3.634
 6872TIP3   OH220556   1.770   3.910   0.313
 6872TIP3    H120557   1.794   3.933   0.224
 6872TIP3    H220558   1.816   3.973   0.368
 6873TIP3   OH220559   7.081   4.656   4.298
 6873TIP3    H120560   7.093   4.720   4.367
 6873TIP3    H220561   7.079   4.707   4.217
 6874TIP3   OH220562   1.407   4.502   1.924
 6874TIP3    H120563   1.384   4.422   1.971
 6874TIP3    H220564   1.353   4.570   1.965
 6875TIP3   OH220565   8.348   5.213   4.763
 6875TIP3    H120566   8.439   5.219   4.792
 6875TIP3    H220567   8.341   5.127   4.723
 6876TIP3   OH220568   2.611   1.650   4.908
 6876TIP3    H120569   2.664   1.586   4.956
 6876TIP3    H220570   2.624   1.629   4.816
 6877TIP3   OH220571   0.855   0.397   0.273
 6877TIP3    H120572   0.884   0.384   0.182
 6877TIP3    H220573   0.907   0.334   0.323
 6878TIP3   OH220574   7.185   0.773   5.052
 6878TIP3    H120575   7.241   0.779   4.974
 6878TIP3    H220576   7.098   0.756   5.018
 6879TIP3   OH220577   2.053   0.269   1.450
 6879TIP3    H120578   2.087   0.263   1.539
 6879TIP3    H220579   2.026   0.361   1.441
 6880TIP3   OH220580   0.086   1.145   4.365
 6880TIP3    H120581   0.053   1.133   4.454
 6880TIP3    H220582   0.147   1.073   4.352
 6881TIP3   OH220583   1.156   3.330   2.105
 6881TIP3    H120584   1.080   3.388   2.102
 6881TIP3    H220585   1.127   3.255   2.157
 6882TIP3   OH220586   5.932   3.802   4.510
 6882TIP3    H120587   5.937   3.838   4.599
 6882TIP3    H220588   5.983   3.863   4.457
 6883TIP3   OH220589   5.336   6.095   2.871
 6883TIP3    H120590   5.276   6.164   2.899
 6883TIP3    H220591   5.336   6.033   2.944
 6884TIP3   OH220592   1.153   5.300   6.724
 6884TIP3    H120593   1.140   5.377   6.779
 6884TIP3    H220594   1.215   5.246   6.773
 6885TIP3   OH220595   5.058   6.941   2.743
 6885TIP3    H120596   5.110   6.865   2.769
 6885TIP3    H220597   5.062   7.000   2.818
 6886TIP3   OH220598   1.432   1.253   0.918
 6886TIP3    H120599   1.388   1.338   0.921
 6886TIP3    H220600   1.420   1.223   0.828
 6887TIP3   OH220601   1.343   4.077   1.464
 6887TIP3    H120602   1.323   4.095   1.556
 6887TIP3    H220603   1.333   4.162   1.421
 6888TIP3   OH220604   5.421   7.140   6.295
 6888TIP3    H120605   5.375   7.224   6.290
 6888TIP3    H220606   5.352   7.077   6.313
 6889TIP3   OH220607   2.783   4.180   5.716
 6889TIP3    H120608   2.855   4.156   5.658
 6889TIP3    H220609   2.705   4.143   5.675
 6890TIP3   OH220610   2.328   4.700   0.890
 6890TIP3    H120611   2.385   4.670   0.961
 6890TIP3    H220612   2.297   4.786   0.919
 6891TIP3   OH220613   6.838   0.780   6.243
 6891TIP3    H120614   6.863   0.871   6.258
 6891TIP3    H220615   6.884   0.731   6.310
 6892TIP3   OH220616   5.940   0.231   2.164
 6892TIP3    H120617   5.885   0.308   2.148
 6892TIP3    H220618   5.922   0.207   2.254
 6893TIP3   OH220619   2.276   7.681   2.243
 6893TIP3    H120620   2.188   7.688   2.205
 6893TIP3    H220621   2.263   7.630   2.323
 6894TIP3   OH220622   0.736   5.705   4.438
 6894TIP3    H120623   0.679   5.738   4.506
 6894TIP3    H220624   0.784   5.633   4.480
 6895TIP3   OH220625   1.853   7.284   1.140
 6895TIP3    H120626   1.758   7.274   1.149
 6895TIP3    H220627   1.881   7.320   1.224
 6896TIP3   OH220628   5.285   2.282   4.111
 6896TIP3    H120629   5.355   2.340   4.139
 6896TIP3    H220630   5.315   2.246   4.028
 6897TIP3   OH220631   7.348   0.617   3.723
 6897TIP3    H120632   7.420   0.560   3.695
 6897TIP3    H220633   7.281   0.557   3.755
 6898TIP3   OH220634   2.929   1.111   5.210
 6898TIP3    H120635   3.019   1.079   5.212
 6898TIP3    H220636   2.894   1.089   5.297
 6899TIP3   OH220637   6.747   2.554   5.344
 6899TIP3    H120638   6.754   2.459   5.336
 6899TIP3    H220639   6.756   2.586   5.254
 6900TIP3   OH220640   3.851   6.987   4.650
 6900TIP3    H120641   3.851   7.079   4.677
 6900TIP3    H220642   3.864   6.939   4.732
 6901TIP3   OH220643   4.793   4.262   3.124
 6901TIP3    H120644   4.790   4.171   3.094
 6901TIP3    H220645   4.717   4.304   3.084
 6902TIP3   OH220646   0.256   7.929   6.368
 6902TIP3    H120647   0.273   7.900   6.278
 6902TIP3    H220648   0.199   7.861   6.405
 6903TIP3   OH220649   5.781   4.397   1.391
 6903TIP3    H120650   5.778   4.383   1.486
 6903TIP3    H220651   5.855   4.344   1.361
 6904TIP3   OH220652   5.431   2.244   1.550
 6904TIP3    H120653   5.500   2.185   1.581
 6904TIP3    H220654   5.477   2.327   1.534
 6905TIP3   OH220655   3.107   5.223   5.553
 6905TIP3    H120656   3.159   5.143   5.563
 6905TIP3    H220657   3.017   5.193   5.548
 6906TIP3   OH220658   8.320   4.420   6.495
 6906TIP3    H120659   8.332   4.397   6.587
 6906TIP3    H220660   8.405   4.450   6.466
 6907TIP3   OH220661   6.478   5.950   5.989
 6907TIP3    H120662   6.465   5.927   5.897
 6907TIP3    H220663   6.556   6.004   5.990
 6908TIP3   OH220664   0.377   7.879   5.391
 6908TIP3    H120665   0.395   7.824   5.314
 6908TIP3    H220666   0.412   7.828   5.464
 6909TIP3   OH220667   3.487   4.421   1.312
 6909TIP3    H120668   3.524   4.508   1.296
 6909TIP3    H220669   3.486   4.380   1.226
 6910TIP3   OH220670   7.552   3.300   2.508
 6910TIP3    H120671   7.575   3.207   2.518
 6910TIP3    H220672   7.564   3.318   2.415
 6911TIP3   OH220673   2.669   7.458   2.447
 6911TIP3    H120674   2.624   7.465   2.532
 6911TIP3    H220675   2.753   7.418   2.468
 6912TIP3   OH220676   7.343   6.873   2.309
 6912TIP3    H120677   7.303   6.798   2.352
 6912TIP3    H220678   7.300   6.949   2.349
 6913TIP3   OH220679   1.218   7.546   1.826
 6913TIP3    H120680   1.287   7.597   1.868
 6913TIP3    H220681   1.208   7.586   1.739
 6914TIP3   OH220682   1.900   0.051   5.203
 6914TIP3    H120683   1.977   0.058   5.259
 6914TIP3    H220684   1.936   0.038   5.115
 6915TIP3   OH220685   7.085   5.121   4.285
 6915TIP3    H120686   7.143   5.156   4.353
 6915TIP3    H220687   7.142   5.064   4.233
 6916TIP3   OH220688   6.796   7.035   2.272
 6916TIP3    H120689   6.791   7.055   2.178
 6916TIP3    H220690   6.757   6.948   2.280
 6917TIP3   OH220691   6.297   7.144   5.190
 6917TIP3    H120692   6.245   7.079   5.238
 6917TIP3    H220693   6.379   7.150   5.240
 6918TIP3   OH220694   3.791   3.462   4.881
 6918TIP3    H120695   3.760   3.449   4.791
 6918TIP3    H220696   3.873   3.414   4.885
 6919TIP3   OH220697   1.007   2.650   5.615
 6919TIP3    H120698   0.963   2.674   5.696
 6919TIP3    H220699   0.941   2.601   5.566
 6920TIP3   OH220700   7.569   1.353   0.745
 6920TIP3    H120701   7.639   1.287   0.739
 6920TIP3    H220702   7.597   1.411   0.815
 6921TIP3   OH220703   7.271   2.326   0.063
 6921TIP3    H120704   7.356   2.313   0.020
 6921TIP3    H220705   7.232   2.238   0.063
 6922TIP3   OH220706   5.678   2.862   0.336
 6922TIP3    H120707   5.607   2.856   0.400
 6922TIP3    H220708   5.726   2.780   0.345
 6923TIP3   OH220709   1.009   6.978   3.986
 6923TIP3    H120710   1.005   6.957   3.893
 6923TIP3    H220711   1.080   7.042   3.994
 6924TIP3   OH220712   7.046   0.177   0.522
 6924TIP3    H120713   7.142   0.169   0.523
 6924TIP3    H220714   7.025   0.202   0.432
 6925TIP3   OH220715   1.043   0.922   0.486
 6925TIP3    H120716   0.974   0.856   0.473
 6925TIP3    H220717   1.111   0.876   0.536
 6926TIP3   OH220718   6.342   7.358   4.567
 6926TIP3    H120719   6.265   7.332   4.515
 6926TIP3    H220720   6.373   7.438   4.525
 6927TIP3   OH220721   7.493   4.320   6.583
 6927TIP3    H120722   7.539   4.392   6.627
 6927TIP3    H220723   7.532   4.316   6.496
 6928TIP3   OH220724   4.573   6.077   2.726
 6928TIP3    H120725   4.488   6.113   2.750
 6928TIP3    H220726   4.580   5.997   2.778
 6929TIP3   OH220727   5.811   2.945   4.466
 6929TIP3    H120728   5.717   2.927   4.474
 6929TIP3    H220729   5.853   2.859   4.476
 6930TIP3   OH220730   0.275   5.771   0.729
 6930TIP3    H120731   0.335   5.741   0.797
 6930TIP3    H220732   0.332   5.801   0.658
 6931TIP3   OH220733   4.115   7.590   6.206
 6931TIP3    H120734   4.202   7.626   6.192
 6931TIP3    H220735   4.074   7.593   6.120
 6932TIP3   OH220736   0.202   1.110   4.777
 6932TIP3    H120737   0.230   1.047   4.842
 6932TIP3    H220738   0.250   1.086   4.698
 6933TIP3   OH220739   5.073   4.983   0.134
 6933TIP3    H120740   5.008   5.033   0.184
 6933TIP3    H220741   5.156   5.026   0.154
 6934TIP3   OH220742   5.098   5.818   2.734
 6934TIP3    H120743   5.144   5.870   2.801
 6934TIP3    H220744   5.040   5.761   2.785
 6935TIP3   OH220745   3.894   1.719   6.312
 6935TIP3    H120746   3.822   1.687   6.366
 6935TIP3    H220747   3.972   1.674   6.345
 6936TIP3   OH220748   0.856   7.196   1.682
 6936TIP3    H120749   0.933   7.243   1.652
 6936TIP3    H220750   0.870   7.106   1.654
 6937TIP3   OH220751   0.675   2.458   2.759
 6937TIP3    H120752   0.655   2.547   2.788
 6937TIP3    H220753   0.754   2.467   2.706
 6938TIP3   OH220754   4.621   7.334   3.520
 6938TIP3    H120755   4.617   7.426   3.547
 6938TIP3    H220756   4.632   7.337   3.425
 6939TIP3   OH220757   3.710   2.955   5.171
 6939TIP3    H120758   3.700   2.989   5.082
 6939TIP3    H220759   3.797   2.915   5.172
 6940TIP3   OH220760   0.749   4.356   5.714
 6940TIP3    H120761   0.838   4.365   5.680
 6940TIP3    H220762   0.752   4.277   5.768
 6941TIP3   OH220763   2.865   0.384   3.840
 6941TIP3    H120764   2.894   0.387   3.931
 6941TIP3    H220765   2.848   0.291   3.824
 6942TIP3   OH220766   5.979   3.337   5.177
 6942TIP3    H120767   6.031   3.341   5.097
 6942TIP3    H220768   5.889   3.325   5.147
 6943TIP3   OH220769   1.112   2.965   1.955
 6943TIP3    H120770   1.183   3.003   1.903
 6943TIP3    H220771   1.116   2.871   1.937
 6944TIP3   OH220772   5.929   5.594   3.190
 6944TIP3    H120773   5.904   5.513   3.235
 6944TIP3    H220774   5.896   5.664   3.247
 6945TIP3   OH220775   5.103   7.558   1.732
 6945TIP3    H120776   5.071   7.504   1.805
 6945TIP3    H220777   5.150   7.496   1.675
 6946TIP3   OH220778   2.906   4.803   0.060
 6946TIP3    H120779   2.975   4.756   0.013
 6946TIP3    H220780   2.872   4.867  -0.003
 6947TIP3   OH220781   3.327   2.303   3.406
 6947TIP3    H120782   3.286   2.218   3.389
 6947TIP3    H220783   3.255   2.360   3.431
 6948TIP3   OH220784   6.318   4.297   1.310
 6948TIP3    H120785   6.267   4.359   1.257
 6948TIP3    H220786   6.409   4.323   1.295
 6949TIP3   OH220787   1.268   4.341   0.284
 6949TIP3    H120788   1.307   4.305   0.363
 6949TIP3    H220789   1.252   4.433   0.304
 6950TIP3   OH220790   3.314   2.360   5.546
 6950TIP3    H120791   3.354   2.276   5.569
 6950TIP3    H220792   3.376   2.425   5.580
 6951TIP3   OH220793   2.398   4.372   0.318
 6951TIP3    H120794   2.410   4.277   0.316
 6951TIP3    H220795   2.475   4.404   0.366
 6952TIP3   OH220796   2.283   2.272   1.682
 6952TIP3    H120797   2.232   2.347   1.715
 6952TIP3    H220798   2.256   2.263   1.591
 6953TIP3   OH220799   3.737   3.887   2.398
 6953TIP3    H120800   3.793   3.842   2.336
 6953TIP3    H220801   3.649   3.878   2.362
 6954TIP3   OH220802   7.854   6.360   1.310
 6954TIP3    H120803   7.822   6.397   1.227
 6954TIP3    H220804   7.889   6.436   1.358
 6955TIP3   OH220805   2.826   6.485   1.212
 6955TIP3    H120806   2.899   6.545   1.226
 6955TIP3    H220807   2.866   6.405   1.179
 6956TIP3   OH220808   6.694   4.843   6.642
 6956TIP3    H120809   6.652   4.929   6.642
 6956TIP3    H220810   6.656   4.797   6.717
 6957TIP3   OH220811   2.500   5.905   2.605
 6957TIP3    H120812   2.409   5.888   2.627
 6957TIP3    H220813   2.551   5.854   2.667
 6958TIP3   OH220814   5.304   7.492   2.167
 6958TIP3    H120815   5.222   7.470   2.124
 6958TIP3    H220816   5.361   7.417   2.150
 6959TIP3   OH220817   0.188   5.933   6.575
 6959TIP3    H120818   0.163   6.012   6.624
 6959TIP3    H220819   0.162   5.860   6.631
 6960TIP3   OH220820   0.208   3.928   1.730
 6960TIP3    H120821   0.165   3.981   1.797
 6960TIP3    H220822   0.137   3.889   1.681
 6961TIP3   OH220823   4.877   2.349   5.562
 6961TIP3    H120824   4.804   2.404   5.589
 6961TIP3    H220825   4.945   2.411   5.536
 6962TIP3   OH220826   8.235   1.429   0.375
 6962TIP3    H120827   8.163   1.452   0.433
 6962TIP3    H220828   8.237   1.499   0.310
 6963TIP3   OH220829   6.822   2.911   6.701
 6963TIP3    H120830   6.797   2.948   6.785
 6963TIP3    H220831   6.870   2.981   6.657
 6964TIP3   OH220832   0.467   6.685   3.221
 6964TIP3    H120833   0.548   6.660   3.177
 6964TIP3    H220834   0.456   6.619   3.289
 6965TIP3   OH220835   5.817   3.094   0.374
 6965TIP3    H120836   5.897   3.064   0.416
 6965TIP3    H220837   5.766   3.015   0.360
 6966TIP3   OH220838   1.364   2.758   2.071
 6966TIP3    H120839   1.327   2.711   1.996
 6966TIP3    H220840   1.404   2.689   2.125
 6967TIP3   OH220841   7.168   3.463   3.732
 6967TIP3    H120842   7.256   3.447   3.766
 6967TIP3    H220843   7.110   3.448   3.806
 6968TIP3   OH220844   6.534   5.657   3.096
 6968TIP3    H120845   6.572   5.703   3.171
 6968TIP3    H220846   6.497   5.726   3.042
 6969TIP3   OH220847   5.070   4.794   5.469
 6969TIP3    H120848   5.063   4.839   5.553
 6969TIP3    H220849   5.163   4.800   5.446
 6970TIP3   OH220850   2.024   0.212   0.150
 6970TIP3    H120851   2.089   0.180   0.087
 6970TIP3    H220852   2.041   0.305   0.158
 6971TIP3   OH220853   5.792   4.962   5.399
 6971TIP3    H120854   5.785   5.026   5.327
 6971TIP3    H220855   5.704   4.957   5.435
 6972TIP3   OH220856   3.616   5.044   4.921
 6972TIP3    H120857   3.528   5.017   4.946
 6972TIP3    H220858   3.641   4.981   4.854
 6973TIP3   OH220859   0.287   4.924   1.200
 6973TIP3    H120860   0.315   4.851   1.254
 6973TIP3    H220861   0.274   4.996   1.262
 6974TIP3   OH220862   6.801   2.377   0.461
 6974TIP3    H120863   6.872   2.323   0.493
 6974TIP3    H220864   6.736   2.375   0.531
 6975TIP3   OH220865   4.882   3.972   5.956
 6975TIP3    H120866   4.943   3.974   6.030
 6975TIP3    H220867   4.917   3.905   5.898
 6976TIP3   OH220868   2.907   1.795   0.695
 6976TIP3    H120869   2.944   1.747   0.769
 6976TIP3    H220870   2.925   1.739   0.619
 6977TIP3   OH220871   5.706   7.644   4.247
 6977TIP3    H120872   5.651   7.586   4.195
 6977TIP3    H220873   5.653   7.666   4.323
 6978TIP3   OH220874   8.005   6.956   4.098
 6978TIP3    H120875   7.985   6.863   4.086
 6978TIP3    H220876   7.926   7.002   4.069
 6979TIP3   OH220877   4.416   6.325   5.435
 6979TIP3    H120878   4.432   6.250   5.491
 6979TIP3    H220879   4.342   6.370   5.475
 6980TIP3   OH220880   0.619   0.687   2.525
 6980TIP3    H120881   0.562   0.650   2.593
 6980TIP3    H220882   0.706   0.654   2.545
 6981TIP3   OH220883   0.170   0.590   4.918
 6981TIP3    H120884   0.164   0.661   4.982
 6981TIP3    H220885   0.127   0.516   4.961
 6982TIP3   OH220886   5.550   3.296   6.506
 6982TIP3    H120887   5.524   3.236   6.576
 6982TIP3    H220888   5.642   3.276   6.491
 6983TIP3   OH220889   4.342   5.622   1.571
 6983TIP3    H120890   4.317   5.596   1.659
 6983TIP3    H220891   4.425   5.668   1.582
 6984TIP3   OH220892   1.296   6.815   4.873
 6984TIP3    H120893   1.214   6.796   4.919
 6984TIP3    H220894   1.276   6.891   4.818
 6985TIP3   OH220895   3.462   6.072   3.516
 6985TIP3    H120896   3.389   6.018   3.486
 6985TIP3    H220897   3.442   6.091   3.608
 6986TIP3   OH220898   8.003   0.481   3.333
 6986TIP3    H120899   8.069   0.528   3.384
 6986TIP3    H220900   7.943   0.446   3.399
 6987TIP3   OH220901   1.462   5.736   0.865
 6987TIP3    H120902   1.433   5.809   0.920
 6987TIP3    H220903   1.541   5.769   0.822
 6988TIP3   OH220904   5.697   0.134   2.728
 6988TIP3    H120905   5.610   0.105   2.758
 6988TIP3    H220906   5.680   0.217   2.683
 6989TIP3   OH220907   1.091   2.508   5.319
 6989TIP3    H120908   1.166   2.516   5.378
 6989TIP3    H220909   1.070   2.598   5.295
 6990TIP3   OH220910   2.600   1.205   4.144
 6990TIP3    H120911   2.574   1.117   4.115
 6990TIP3    H220912   2.606   1.256   4.063
 6991TIP3   OH220913   3.274   4.776   1.881
 6991TIP3    H120914   3.186   4.811   1.896
 6991TIP3    H220915   3.275   4.749   1.790
 6992TIP3   OH220916   1.170   3.761   2.183
 6992TIP3    H120917   1.127   3.843   2.159
 6992TIP3    H220918   1.227   3.741   2.108
 6993TIP3   OH220919   6.794   5.966   3.296
 6993TIP3    H120920   6.714   5.922   3.323
 6993TIP3    H220921   6.771   6.059   3.291
 6994TIP3   OH220922   1.254   5.121   1.521
 6994TIP3    H120923   1.182   5.176   1.552
 6994TIP3    H220924   1.227   5.094   1.434
 6995TIP3   OH220925   6.837   2.366   0.191
 6995TIP3    H120926   6.924   2.360   0.230
 6995TIP3    H220927   6.777   2.347   0.264
 6996TIP3   OH220928   2.245   7.606  -0.006
 6996TIP3    H120929   2.240   7.562   0.079
 6996TIP3    H220930   2.161   7.652  -0.013
 6997TIP3   OH220931   0.782   3.078   2.855
 6997TIP3    H120932   0.718   3.071   2.927
 6997TIP3    H220933   0.814   3.168   2.860
 6998TIP3   OH220934   1.802   2.119   5.601
 6998TIP3    H120935   1.864   2.116   5.674
 6998TIP3    H220936   1.792   2.027   5.574
 6999TIP3   OH220937   2.302   5.704   6.462
 6999TIP3    H120938   2.353   5.766   6.411
 6999TIP3    H220939   2.254   5.757   6.526
 7000TIP3   OH220940   6.067   4.946   4.730
 7000TIP3    H120941   6.012   5.023   4.716
 7000TIP3    H220942   6.157   4.979   4.722
 7001TIP3   OH220943   5.336   0.514   1.829
 7001TIP3    H120944   5.334   0.570   1.752
 7001TIP3    H220945   5.260   0.540   1.881
 7002TIP3   OH220946   4.136   1.577   2.385
 7002TIP3    H120947   4.183   1.589   2.303
 7002TIP3    H220948   4.107   1.486   2.384
 7003TIP3   OH220949   1.675   5.609   1.613
 7003TIP3    H120950   1.614   5.540   1.586
 7003TIP3    H220951   1.640   5.641   1.696
 7004TIP3   OH220952   0.743   1.813   5.764
 7004TIP3    H120953   0.702   1.757   5.698
 7004TIP3    H220954   0.670   1.862   5.803
 7005TIP3   OH220955   2.771   7.144   2.306
 7005TIP3    H120956   2.693   7.187   2.269
 7005TIP3    H220957   2.842   7.206   2.291
 7006TIP3   OH220958   6.918   1.508   4.918
 7006TIP3    H120959   6.905   1.544   4.830
 7006TIP3    H220960   6.900   1.582   4.976
 7007TIP3   OH220961   3.879   7.840   6.244
 7007TIP3    H120962   3.951   7.840   6.306
 7007TIP3    H220963   3.917   7.875   6.163
 7008TIP3   OH220964   6.431   2.669   3.800
 7008TIP3    H120965   6.509   2.646   3.850
 7008TIP3    H220966   6.464   2.713   3.722
 7009TIP3   OH220967   1.074  -0.014   0.228
 7009TIP3    H120968   0.981   0.009   0.228
 7009TIP3    H220969   1.113   0.046   0.292
 7010TIP3   OH220970   1.613   0.415   5.798
 7010TIP3    H120971   1.610   0.403   5.704
 7010TIP3    H220972   1.529   0.381   5.830
 7011TIP3   OH220973   5.499   2.655   1.005
 7011TIP3    H120974   5.484   2.748   1.020
 7011TIP3    H220975   5.412   2.616   1.009
 7012TIP3   OH220976   2.818   5.931   0.926
 7012TIP3    H120977   2.828   5.884   0.843
 7012TIP3    H220978   2.731   5.970   0.922
 7013TIP3   OH220979   2.977   1.047   4.545
 7013TIP3    H120980   2.946   1.092   4.624
 7013TIP3    H220981   3.025   0.971   4.579
 7014TIP3   OH220982   3.078   6.103   0.677
 7014TIP3    H120983   3.038   6.047   0.610
 7014TIP3    H220984   3.172   6.087   0.668
 7015TIP3   OH220985   7.720   1.200   4.680
 7015TIP3    H120986   7.640   1.164   4.719
 7015TIP3    H220987   7.701   1.205   4.587
 7016TIP3   OH220988   0.245   4.288   2.498
 7016TIP3    H120989   0.155   4.315   2.480
 7016TIP3    H220990   0.241   4.193   2.504
 7017TIP3   OH220991   4.742   5.712   1.601
 7017TIP3    H120992   4.741   5.619   1.625
 7017TIP3    H220993   4.650   5.732   1.580
 7018TIP3   OH220994   0.647   4.644   3.893
 7018TIP3    H120995   0.619   4.711   3.956
 7018TIP3    H220996   0.611   4.674   3.810
 7019TIP3   OH220997   3.184   6.724   4.991
 7019TIP3    H120998   3.110   6.781   4.971
 7019TIP3    H220999   3.152   6.666   5.060
 7020TIP3   OH221000   3.358   3.473   2.350
 7020TIP3    H121001   3.282   3.429   2.388
 7020TIP3    H221002   3.321   3.532   2.284
 7021TIP3   OH221003   2.827   2.438   1.692
 7021TIP3    H121004   2.815   2.502   1.762
 7021TIP3    H221005   2.740   2.403   1.676
 7022TIP3   OH221006   3.714   0.520   3.441
 7022TIP3    H121007   3.694   0.541   3.350
 7022TIP3    H221008   3.718   0.605   3.484
 7023TIP3   OH221009   5.132   3.564   0.343
 7023TIP3    H121010   5.193   3.584   0.415
 7023TIP3    H221011   5.183   3.511   0.283
 7024TIP3   OH221012   4.462   3.723   2.176
 7024TIP3    H121013   4.379   3.708   2.132
 7024TIP3    H221014   4.465   3.657   2.246
 7025TIP3   OH221015   7.399   1.510   2.108
 7025TIP3    H121016   7.373   1.586   2.161
 7025TIP3    H221017   7.335   1.443   2.130
 7026TIP3   OH221018   2.500   3.019   1.151
 7026TIP3    H121019   2.454   3.000   1.069
 7026TIP3    H221020   2.450   3.092   1.190
 7027TIP3   OH221021   3.637   2.940   0.089
 7027TIP3    H121022   3.697   2.888   0.036
 7027TIP3    H221023   3.550   2.912   0.062
 7028TIP3   OH221024   3.605   1.184   6.583
 7028TIP3    H121025   3.588   1.093   6.608
 7028TIP3    H221026   3.619   1.181   6.489
 7029TIP3   OH221027   3.408   7.761   4.056
 7029TIP3    H121028   3.430   7.685   4.000
 7029TIP3    H221029   3.420   7.729   4.145
 7030TIP3   OH221030   3.462   5.587   2.554
 7030TIP3    H121031   3.528   5.541   2.605
 7030TIP3    H221032   3.509   5.658   2.511
 7031TIP3   OH221033   7.523   1.637   3.131
 7031TIP3    H121034   7.448   1.582   3.153
 7031TIP3    H221035   7.485   1.722   3.109
 7032TIP3   OH221036   1.556   0.882   4.464
 7032TIP3    H121037   1.518   0.806   4.509
 7032TIP3    H221038   1.635   0.848   4.422
 7033TIP3   OH221039   4.043   0.492   1.036
 7033TIP3    H121040   3.948   0.493   1.052
 7033TIP3    H221041   4.080   0.541   1.110
 7034TIP3   OH221042   0.274   5.079   2.652
 7034TIP3    H121043   0.238   5.119   2.573
 7034TIP3    H221044   0.202   5.080   2.715
 7035TIP3   OH221045   6.254   2.213   2.749
 7035TIP3    H121046   6.227   2.171   2.830
 7035TIP3    H221047   6.286   2.299   2.775
 7036TIP3   OH221048   2.678   4.722   0.390
 7036TIP3    H121049   2.754   4.734   0.447
 7036TIP3    H221050   2.712   4.674   0.315
 7037TIP3   OH221051   0.244   0.550   4.485
 7037TIP3    H121052   0.186   0.613   4.444
 7037TIP3    H221053   0.281   0.597   4.560
 7038TIP3   OH221054   7.459   3.239   0.379
 7038TIP3    H121055   7.402   3.309   0.346
 7038TIP3    H221056   7.526   3.229   0.312
 7039TIP3   OH221057   3.650   0.312   3.592
 7039TIP3    H121058   3.681   0.379   3.531
 7039TIP3    H221059   3.615   0.361   3.666
 7040TIP3   OH221060   7.019   0.537   1.435
 7040TIP3    H121061   6.928   0.530   1.461
 7040TIP3    H221062   7.026   0.623   1.393
 7041TIP3   OH221063   4.010   2.979   2.779
 7041TIP3    H121064   3.944   2.926   2.734
 7041TIP3    H221065   3.977   3.068   2.772
 7042TIP3   OH221066   0.426   1.313   3.794
 7042TIP3    H121067   0.477   1.392   3.810
 7042TIP3    H221068   0.340   1.345   3.767
 7043TIP3   OH221069   0.639   4.053   1.414
 7043TIP3    H121070   0.689   4.103   1.479
 7043TIP3    H221071   0.551   4.048   1.451
 7044TIP3   OH221072   5.154   2.821   2.284
 7044TIP3    H121073   5.089   2.837   2.216
 7044TIP3    H221074   5.119   2.864   2.362
 7045TIP3   OH221075   4.387   7.086   4.280
 7045TIP3    H121076   4.308   7.044   4.314
 7045TIP3    H221077   4.413   7.149   4.348
 7046TIP3   OH221078   6.388   3.558   5.972
 7046TIP3    H121079   6.405   3.566   5.878
 7046TIP3    H221080   6.474   3.539   6.010
 7047TIP3   OH221081   8.318   5.276   0.206
 7047TIP3    H121082   8.254   5.205   0.198
 7047TIP3    H221083   8.380   5.260   0.135
 7048TIP3   OH221084   6.636   3.107   5.807
 7048TIP3    H121085   6.702   3.175   5.821
 7048TIP3    H221086   6.622   3.069   5.894
 7049TIP3   OH221087   0.379   1.359   6.409
 7049TIP3    H121088   0.366   1.347   6.315
 7049TIP3    H221089   0.414   1.447   6.418
 7050TIP3   OH221090   7.772   7.460   4.344
 7050TIP3    H121091   7.822   7.524   4.394
 7050TIP3    H221092   7.738   7.400   4.411
 7051TIP3   OH221093   2.095   3.611   2.497
 7051TIP3    H121094   2.154   3.676   2.460
 7051TIP3    H221095   2.147   3.566   2.564
 7052TIP3   OH221096   2.397   0.145   1.839
 7052TIP3    H121097   2.465   0.202   1.876
 7052TIP3    H221098   2.374   0.186   1.756
 7053TIP3   OH221099   6.357   5.192   5.751
 7053TIP3    H121100   6.450   5.177   5.771
 7053TIP3    H221101   6.324   5.239   5.827
 7054TIP3   OH221102   3.732   5.303   4.992
 7054TIP3    H121103   3.700   5.215   4.975
 7054TIP3    H221104   3.748   5.340   4.905
 7055TIP3   OH221105   7.943   6.553   2.238
 7055TIP3    H121106   7.915   6.589   2.322
 7055TIP3    H221107   7.966   6.462   2.256
 7056TIP3   OH221108   4.451   7.353   4.187
 7056TIP3    H121109   4.362   7.358   4.155
 7056TIP3    H221110   4.494   7.289   4.130
 7057TIP3   OH221111   7.033   1.493   0.568
 7057TIP3    H121112   7.120   1.455   0.560
 7057TIP3    H221113   7.049   1.585   0.591
 7058TIP3   OH221114   7.644   2.194   0.577
 7058TIP3    H121115   7.718   2.133   0.576
 7058TIP3    H221116   7.601   2.181   0.492
 7059TIP3   OH221117   3.524   2.701   2.884
 7059TIP3    H121118   3.435   2.667   2.897
 7059TIP3    H221119   3.531   2.714   2.790
 7060TIP3   OH221120   5.610   5.312   0.971
 7060TIP3    H121121   5.629   5.297   1.064
 7060TIP3    H221122   5.523   5.275   0.958
 7061TIP3   OH221123   6.002   6.017   3.879
 7061TIP3    H121124   6.012   6.075   3.804
 7061TIP3    H221125   5.944   6.065   3.938
 7062TIP3   OH221126   2.220   7.839   5.691
 7062TIP3    H121127   2.250   7.918   5.736
 7062TIP3    H221128   2.258   7.845   5.604
 7063TIP3   OH221129   3.226   5.138   0.631
 7063TIP3    H121130   3.186   5.158   0.546
 7063TIP3    H221131   3.169   5.181   0.695
 7064TIP3   OH221132   1.625   0.544   3.495
 7064TIP3    H121133   1.674   0.558   3.576
 7064TIP3    H221134   1.615   0.631   3.457
 7065TIP3   OH221135   3.675   4.678   5.040
 7065TIP3    H121136   3.721   4.704   4.960
 7065TIP3    H221137   3.739   4.692   5.110
 7066TIP3   OH221138   8.218   7.430   3.777
 7066TIP3    H121139   8.124   7.422   3.791
 7066TIP3    H221140   8.228   7.434   3.682
 7067TIP3   OH221141   2.940   2.626   4.099
 7067TIP3    H121142   2.903   2.638   4.186
 7067TIP3    H221143   3.026   2.587   4.114
 7068TIP3   OH221144   0.482   6.398   1.235
 7068TIP3    H121145   0.543   6.443   1.176
 7068TIP3    H221146   0.420   6.466   1.260
 7069TIP3   OH221147   2.118   2.603   3.450
 7069TIP3    H121148   2.131   2.619   3.543
 7069TIP3    H221149   2.036   2.646   3.428
 7070TIP3   OH221150   0.865   2.936   1.828
 7070TIP3    H121151   0.932   2.957   1.893
 7070TIP3    H221152   0.852   3.018   1.780
 7071TIP3   OH221153   0.773   1.040   1.107
 7071TIP3    H121154   0.783   0.948   1.131
 7071TIP3    H221155   0.788   1.088   1.188
 7072TIP3   OH221156   8.182   2.467   5.788
 7072TIP3    H121157   8.272   2.433   5.791
 7072TIP3    H221158   8.179   2.533   5.857
 7073TIP3   OH221159   0.455   7.382   5.151
 7073TIP3    H121160   0.435   7.300   5.105
 7073TIP3    H221161   0.449   7.449   5.083
 7074TIP3   OH221162   5.464   3.265   6.228
 7074TIP3    H121163   5.466   3.169   6.237
 7074TIP3    H221164   5.502   3.297   6.309
 7075TIP3   OH221165   1.804   3.016   2.580
 7075TIP3    H121166   1.771   2.947   2.638
 7075TIP3    H221167   1.786   2.984   2.492
 7076TIP3   OH221168   2.871   0.739   3.082
 7076TIP3    H121169   2.926   0.709   3.009
 7076TIP3    H221170   2.933   0.772   3.147
 7077TIP3   OH221171   5.188   7.052   1.162
 7077TIP3    H121172   5.213   7.052   1.069
 7077TIP3    H221173   5.147   6.967   1.175
 7078TIP3   OH221174   5.177   2.487   3.073
 7078TIP3    H121175   5.085   2.498   3.048
 7078TIP3    H221176   5.217   2.572   3.056
 7079TIP3   OH221177   0.035   2.941   1.825
 7079TIP3    H121178   0.069   3.029   1.843
 7079TIP3    H221179   0.083   2.912   1.748
 7080TIP3   OH221180   0.950   1.932   5.363
 7080TIP3    H121181   0.904   1.938   5.280
 7080TIP3    H221182   0.912   2.001   5.417
 7081TIP3   OH221183   5.202   6.072   1.277
 7081TIP3    H121184   5.234   6.157   1.308
 7081TIP3    H221185   5.158   6.092   1.194
 7082TIP3   OH221186   1.869   3.060   0.104
 7082TIP3    H121187   1.784   3.077   0.063
 7082TIP3    H221188   1.933   3.090   0.040
 7083TIP3   OH221189   7.671   7.121   4.153
 7083TIP3    H121190   7.593   7.110   4.098
 7083TIP3    H221191   7.716   7.197   4.115
 7084TIP3   OH221192   1.653   2.403   5.981
 7084TIP3    H121193   1.746   2.378   5.986
 7084TIP3    H221194   1.608   2.338   6.036
 7085TIP3   OH221195   3.744   0.062   6.335
 7085TIP3    H121196   3.717   0.154   6.329
 7085TIP3    H221197   3.695   0.018   6.266
 7086TIP3   OH221198   8.083   4.649   4.033
 7086TIP3    H121199   8.005   4.624   3.983
 7086TIP3    H221200   8.127   4.565   4.051
 7087TIP3   OH221201   5.534   5.699   4.991
 7087TIP3    H121202   5.499   5.624   4.943
 7087TIP3    H221203   5.624   5.672   5.014
 7088TIP3   OH221204   0.970   6.289   1.016
 7088TIP3    H121205   1.005   6.316   1.101
 7088TIP3    H221206   1.046   6.288   0.958
 7089TIP3   OH221207   5.850   3.664   3.591
 7089TIP3    H121208   5.898   3.613   3.656
 7089TIP3    H221209   5.758   3.643   3.607
 7090TIP3   OH221210   6.478   1.671   1.572
 7090TIP3    H121211   6.419   1.728   1.622
 7090TIP3    H221212   6.423   1.598   1.544
 7091TIP3   OH221213   3.008   4.431   1.057
 7091TIP3    H121214   2.984   4.483   0.981
 7091TIP3    H221215   2.924   4.409   1.099
 7092TIP3   OH221216   4.928   1.673   2.500
 7092TIP3    H121217   4.951   1.736   2.432
 7092TIP3    H221218   4.949   1.588   2.462
 7093TIP3   OH221219   4.176   6.200   5.643
 7093TIP3    H121220   4.141   6.165   5.725
 7093TIP3    H221221   4.270   6.182   5.647
 7094TIP3   OH221222   1.600   1.733   2.741
 7094TIP3    H121223   1.522   1.699   2.697
 7094TIP3    H221224   1.673   1.686   2.699
 7095TIP3   OH221225   0.637   4.521   4.180
 7095TIP3    H121226   0.594   4.578   4.116
 7095TIP3    H221227   0.725   4.509   4.146
 7096TIP3   OH221228   3.189   7.399   6.636
 7096TIP3    H121229   3.282   7.415   6.625
 7096TIP3    H221230   3.150   7.421   6.551
 7097TIP3   OH221231   3.510   6.790   4.386
 7097TIP3    H121232   3.549   6.772   4.472
 7097TIP3    H221233   3.484   6.704   4.353
 7098TIP3   OH221234   7.683   0.699   0.478
 7098TIP3    H121235   7.600   0.738   0.451
 7098TIP3    H221236   7.697   0.626   0.418
 7099TIP3   OH221237   2.703   2.218   1.914
 7099TIP3    H121238   2.643   2.290   1.893
 7099TIP3    H221239   2.658   2.169   1.983
 7100TIP3   OH221240   1.176   5.584   4.296
 7100TIP3    H121241   1.087   5.616   4.277
 7100TIP3    H221242   1.234   5.652   4.262
 7101TIP3   OH221243   7.421   1.242   3.933
 7101TIP3    H121244   7.384   1.262   3.847
 7101TIP3    H221245   7.465   1.157   3.921
 7102TIP3   OH221246   0.702   0.094   2.747
 7102TIP3    H121247   0.681   0.013   2.792
 7102TIP3    H221248   0.684   0.163   2.812
 7103TIP3   OH221249   1.319   5.748   0.605
 7103TIP3    H121250   1.356   5.836   0.591
 7103TIP3    H221251   1.385   5.703   0.658
 7104TIP3   OH221252   5.504   5.007   5.252
 7104TIP3    H121253   5.546   4.922   5.239
 7104TIP3    H221254   5.531   5.059   5.177
 7105TIP3   OH221255   6.684   5.397   4.611
 7105TIP3    H121256   6.687   5.416   4.518
 7105TIP3    H221257   6.775   5.379   4.636
 7106TIP3   OH221258   3.682   4.540   6.210
 7106TIP3    H121259   3.605   4.560   6.158
 7106TIP3    H221260   3.674   4.595   6.288
 7107TIP3   OH221261   8.041   1.411   4.492
 7107TIP3    H121262   7.987   1.384   4.418
 7107TIP3    H221263   8.064   1.329   4.536
 7108TIP3   OH221264   3.321   0.021   3.263
 7108TIP3    H121265   3.384   0.043   3.194
 7108TIP3    H221266   3.235   0.031   3.221
 7109TIP3   OH221267   7.500   5.710   2.145
 7109TIP3    H121268   7.593   5.689   2.159
 7109TIP3    H221269   7.465   5.632   2.102
 7110TIP3   OH221270   2.845   5.199   3.475
 7110TIP3    H121271   2.934   5.198   3.439
 7110TIP3    H221272   2.806   5.117   3.444
 7111TIP3   OH221273   2.428   6.192   6.010
 7111TIP3    H121274   2.405   6.220   5.921
 7111TIP3    H221275   2.522   6.177   6.008
 7112TIP3   OH221276   6.093   0.182   1.337
 7112TIP3    H121277   6.099   0.277   1.348
 7112TIP3    H221278   6.032   0.170   1.265
 7113TIP3   OH221279   4.124   1.765   4.625
 7113TIP3    H121280   4.054   1.700   4.628
 7113TIP3    H221281   4.141   1.778   4.531
 7114TIP3   OH221282   3.184   7.660   2.712
 7114TIP3    H121283   3.151   7.705   2.790
 7114TIP3    H221284   3.116   7.673   2.646
 7115TIP3   OH221285   3.869   0.438   2.973
 7115TIP3    H121286   3.951   0.417   3.016
 7115TIP3    H221287   3.895   0.466   2.885
 7116TIP3   OH221288   5.833   2.258   6.759
 7116TIP3    H121289   5.893   2.207   6.814
 7116TIP3    H221290   5.794   2.321   6.819
 7117TIP3   OH221291   7.381   6.703   5.960
 7117TIP3    H121292   7.339   6.722   5.877
 7117TIP3    H221293   7.456   6.648   5.937
 7118TIP3   OH221294   4.538   2.208   5.297
 7118TIP3    H121295   4.603   2.176   5.359
 7118TIP3    H221296   4.456   2.209   5.346
 7119TIP3   OH221297   3.453   2.158   1.033
 7119TIP3    H121298   3.486   2.071   1.011
 7119TIP3    H221299   3.531   2.214   1.035
 7120TIP3   OH221300   5.851   4.052   4.919
 7120TIP3    H121301   5.848   4.127   4.860
 7120TIP3    H221302   5.881   3.979   4.864
 7121TIP3   OH221303   6.067   5.142   4.120
 7121TIP3    H121304   6.151   5.102   4.143
 7121TIP3    H221305   6.090   5.213   4.060
 7122TIP3   OH221306   1.518   6.706   2.817
 7122TIP3    H121307   1.521   6.800   2.834
 7122TIP3    H221308   1.550   6.697   2.727
 7123TIP3   OH221309   4.477   2.190   2.259
 7123TIP3    H121310   4.531   2.181   2.337
 7123TIP3    H221311   4.392   2.155   2.284
 7124TIP3   OH221312   4.354   6.679   6.606
 7124TIP3    H121313   4.305   6.759   6.590
 7124TIP3    H221314   4.428   6.706   6.660
 7125TIP3   OH221315   5.410   4.813   4.975
 7125TIP3    H121316   5.444   4.849   4.894
 7125TIP3    H221317   5.485   4.809   5.034
 7126TIP3   OH221318   7.714   7.562   0.033
 7126TIP3    H121319   7.794   7.510   0.037
 7126TIP3    H221320   7.699   7.592   0.122
 7127TIP3   OH221321   3.740   6.774   6.682
 7127TIP3    H121322   3.785   6.748   6.602
 7127TIP3    H221323   3.666   6.826   6.652
 7128TIP3   OH221324   1.875   4.700   2.463
 7128TIP3    H121325   1.790   4.742   2.481
 7128TIP3    H221326   1.935   4.741   2.525
 7129TIP3   OH221327   8.063   0.491   5.581
 7129TIP3    H121328   8.128   0.460   5.644
 7129TIP3    H221329   8.112   0.547   5.521
 7130TIP3   OH221330   6.094   7.218   4.457
 7130TIP3    H121331   6.036   7.196   4.530
 7130TIP3    H221332   6.161   7.150   4.459
 7131TIP3   OH221333   0.070   0.766   4.678
 7131TIP3    H121334   0.022   0.779   4.760
 7131TIP3    H221335   0.162   0.759   4.704
 7132TIP3   OH221336   7.870   7.680   2.366
 7132TIP3    H121337   7.824   7.627   2.430
 7132TIP3    H221338   7.929   7.619   2.321
 7133TIP3   OH221339   2.018   5.166   0.737
 7133TIP3    H121340   2.015   5.072   0.721
 7133TIP3    H221341   2.086   5.199   0.679
 7134TIP3   OH221342   0.745   1.442   0.474
 7134TIP3    H121343   0.701   1.500   0.412
 7134TIP3    H221344   0.701   1.458   0.558
 7135TIP3   OH221345   2.412   5.693   1.625
 7135TIP3    H121346   2.470   5.628   1.664
 7135TIP3    H221347   2.385   5.656   1.542
 7136TIP3   OH221348   5.245   6.148   4.484
 7136TIP3    H121349   5.153   6.167   4.464
 7136TIP3    H221350   5.293   6.182   4.409
 7137TIP3   OH221351   1.421   4.132   1.183
 7137TIP3    H121352   1.514   4.154   1.178
 7137TIP3    H221353   1.420   4.047   1.228
 7138TIP3   OH221354   2.557   7.542   2.680
 7138TIP3    H121355   2.503   7.467   2.707
 7138TIP3    H221356   2.528   7.614   2.736
 7139TIP3   OH221357   3.992   4.888   5.010
 7139TIP3    H121358   4.085   4.893   4.989
 7139TIP3    H221359   3.988   4.834   5.089
 7140TIP3   OH221360   1.035   1.656   4.886
 7140TIP3    H121361   1.112   1.600   4.876
 7140TIP3    H221362   0.961   1.595   4.879
 7141TIP3   OH221363   1.673   5.859   6.789
 7141TIP3    H121364   1.640   5.831   6.703
 7141TIP3    H221365   1.766   5.878   6.774
 7142TIP3   OH221366   3.490   0.376   3.272
 7142TIP3    H121367   3.563   0.416   3.320
 7142TIP3    H221368   3.529   0.344   3.191
 7143TIP3   OH221369   7.307   4.930   4.212
 7143TIP3    H121370   7.389   4.968   4.245
 7143TIP3    H221371   7.324   4.836   4.208
 7144TIP3   OH221372   2.482   1.143   5.826
 7144TIP3    H121373   2.406   1.192   5.858
 7144TIP3    H221374   2.515   1.097   5.902
 7145TIP3   OH221375   3.221   3.646   6.526
 7145TIP3    H121376   3.134   3.657   6.566
 7145TIP3    H221377   3.212   3.570   6.469
 7146TIP3   OH221378   5.435   6.729   0.442
 7146TIP3    H121379   5.494   6.735   0.518
 7146TIP3    H221380   5.361   6.785   0.464
 7147TIP3   OH221381   0.832   2.686   0.930
 7147TIP3    H121382   0.743   2.679   0.963
 7147TIP3    H221383   0.871   2.757   0.983
 7148TIP3   OH221384   6.370   6.170   3.787
 7148TIP3    H121385   6.340   6.244   3.734
 7148TIP3    H221386   6.342   6.190   3.876
 7149TIP3   OH221387   5.732  -0.020   5.128
 7149TIP3    H121388   5.781   0.048   5.174
 7149TIP3    H221389   5.640  -0.003   5.151
 7150TIP3   OH221390   6.183   0.945   4.941
 7150TIP3    H121391   6.180   0.885   5.016
 7150TIP3    H221392   6.097   0.988   4.941
 7151TIP3   OH221393   7.010   6.262   2.320
 7151TIP3    H121394   7.067   6.209   2.376
 7151TIP3    H221395   6.922   6.227   2.336
 7152TIP3   OH221396   0.139   5.644   3.326
 7152TIP3    H121397   0.218   5.591   3.337
 7152TIP3    H221398   0.163   5.712   3.264
 7153TIP3   OH221399   2.864   2.929   5.142
 7153TIP3    H121400   2.958   2.915   5.157
 7153TIP3    H221401   2.841   2.867   5.073
 7154TIP3   OH221402   0.050   0.412   3.501
 7154TIP3    H121403   0.131   0.455   3.530
 7154TIP3    H221404   0.014   0.374   3.581
 7155TIP3   OH221405   1.830   2.876   4.830
 7155TIP3    H121406   1.735   2.870   4.840
 7155TIP3    H221407   1.843   2.918   4.745
 7156TIP3   OH221408   8.228   1.595   3.024
 7156TIP3    H121409   8.318   1.613   3.053
 7156TIP3    H221410   8.234   1.511   2.977
 7157TIP3   OH221411   0.545   5.132   2.404
 7157TIP3    H121412   0.616   5.194   2.419
 7157TIP3    H221413   0.578   5.049   2.440
 7158TIP3   OH221414   3.028   6.949   3.436
 7158TIP3    H121415   3.019   7.043   3.447
 7158TIP3    H221416   3.091   6.923   3.503
 7159TIP3   OH221417   7.660   3.731   2.430
 7159TIP3    H121418   7.652   3.656   2.371
 7159TIP3    H221419   7.711   3.697   2.504
 7160TIP3   OH221420   7.565   5.253   5.647
 7160TIP3    H121421   7.564   5.159   5.663
 7160TIP3    H221422   7.603   5.262   5.560
 7161TIP3   OH221423   2.279   4.880   2.476
 7161TIP3    H121424   2.244   4.797   2.442
 7161TIP3    H221425   2.274   4.940   2.402
 7162TIP3   OH221426   3.569   1.133   6.062
 7162TIP3    H121427   3.542   1.225   6.052
 7162TIP3    H221428   3.498   1.083   6.023
 7163TIP3   OH221429   3.669   5.235   4.582
 7163TIP3    H121430   3.583   5.194   4.573
 7163TIP3    H221431   3.696   5.252   4.492
 7164TIP3   OH221432   7.496   4.286   0.770
 7164TIP3    H121433   7.455   4.200   0.773
 7164TIP3    H221434   7.429   4.342   0.729
 7165TIP3   OH221435   1.748   6.322   2.023
 7165TIP3    H121436   1.720   6.255   2.086
 7165TIP3    H221437   1.712   6.293   1.939
 7166TIP3   OH221438   2.088   2.319   0.590
 7166TIP3    H121439   2.012   2.356   0.546
 7166TIP3    H221440   2.055   2.239   0.633
 7167TIP3   OH221441   6.476   5.743   2.390
 7167TIP3    H121442   6.449   5.680   2.323
 7167TIP3    H221443   6.395   5.766   2.436
 7168TIP3   OH221444   2.532   0.578   6.179
 7168TIP3    H121445   2.544   0.517   6.252
 7168TIP3    H221446   2.498   0.658   6.221
 7169TIP3   OH221447   4.799   6.505   1.451
 7169TIP3    H121448   4.751   6.422   1.454
 7169TIP3    H221449   4.807   6.525   1.358
 7170TIP3   OH221450   6.895   0.844   3.397
 7170TIP3    H121451   6.851   0.830   3.313
 7170TIP3    H221452   6.826   0.829   3.462
 7171TIP3   OH221453   0.487   6.834   4.405
 7171TIP3    H121454   0.499   6.909   4.347
 7171TIP3    H221455   0.539   6.855   4.482
 7172TIP3   OH221456   3.758   6.753   5.751
 7172TIP3    H121457   3.687   6.688   5.748
 7172TIP3    H221458   3.729   6.823   5.693
 7173TIP3   OH221459   6.988   2.776   2.691
 7173TIP3    H121460   7.001   2.732   2.608
 7173TIP3    H221461   6.914   2.836   2.676
 7174TIP3   OH221462   5.793   1.767   2.807
 7174TIP3    H121463   5.879   1.755   2.766
 7174TIP3    H221464   5.803   1.729   2.895
 7175TIP3   OH221465   5.636   1.944   4.198
 7175TIP3    H121466   5.541   1.942   4.202
 7175TIP3    H221467   5.661   2.019   4.251
 7176TIP3   OH221468   6.122   1.251   6.813
 7176TIP3    H121469   6.164   1.333   6.841
 7176TIP3    H221470   6.031   1.276   6.796
 7177TIP3   OH221471   7.056   3.604   2.994
 7177TIP3    H121472   7.084   3.515   2.972
 7177TIP3    H221473   7.129   3.640   3.045
 7178TIP3   OH221474   0.062   6.949   3.385
 7178TIP3    H121475   0.011   6.870   3.368
 7178TIP3    H221476   0.152   6.924   3.365
 7179TIP3   OH221477   5.999   4.146   6.856
 7179TIP3    H121478   5.983   4.194   6.775
 7179TIP3    H221479   5.940   4.071   6.851
 7180TIP3   OH221480   4.800   5.104   6.405
 7180TIP3    H121481   4.824   5.195   6.427
 7180TIP3    H221482   4.765   5.109   6.317
 7181TIP3   OH221483   5.447   6.588   4.254
 7181TIP3    H121484   5.489   6.587   4.168
 7181TIP3    H221485   5.380   6.520   4.248
 7182TIP3   OH221486   4.444   4.836   0.678
 7182TIP3    H121487   4.525   4.807   0.721
 7182TIP3    H221488   4.453   4.932   0.673
 7183TIP3   OH221489   5.016   3.394   5.956
 7183TIP3    H121490   4.970   3.310   5.951
 7183TIP3    H221491   5.034   3.417   5.865
 7184TIP3   OH221492   3.776   3.717   4.423
 7184TIP3    H121493   3.821   3.751   4.345
 7184TIP3    H221494   3.806   3.626   4.429
 7185TIP3   OH221495   7.727   1.383   3.099
 7185TIP3    H121496   7.762   1.327   3.031
 7185TIP3    H221497   7.633   1.367   3.097
 7186TIP3   OH221498   0.914   6.799   6.579
 7186TIP3    H121499   0.886   6.711   6.606
 7186TIP3    H221500   0.971   6.783   6.504
 7187TIP3   OH221501   1.309   5.043   0.842
 7187TIP3    H121502   1.337   4.977   0.905
 7187TIP3    H221503   1.304   5.125   0.892
 7188TIP3   OH221504   7.608   1.758   2.542
 7188TIP3    H121505   7.697   1.768   2.578
 7188TIP3    H221506   7.554   1.740   2.619
 7189TIP3   OH221507   6.394   3.878   0.399
 7189TIP3    H121508   6.353   3.957   0.435
 7189TIP3    H221509   6.360   3.807   0.453
 7190TIP3   OH221510   5.050   4.982   6.826
 7190TIP3    H121511   5.114   4.987   6.755
 7190TIP3    H221512   5.095   4.934   6.896
 7191TIP3   OH221513   0.649   2.506   4.930
 7191TIP3    H121514   0.625   2.576   4.992
 7191TIP3    H221515   0.734   2.533   4.896
 7192TIP3   OH221516   2.737   7.399   2.998
 7192TIP3    H121517   2.772   7.460   2.933
 7192TIP3    H221518   2.811   7.380   3.055
 7193TIP3   OH221519   6.455   2.652   5.119
 7193TIP3    H121520   6.464   2.583   5.053
 7193TIP3    H221521   6.492   2.615   5.199
 7194TIP3   OH221522   6.556   4.664   4.744
 7194TIP3    H121523   6.642   4.696   4.770
 7194TIP3    H221524   6.515   4.638   4.827
 7195TIP3   OH221525   0.702   2.499   1.787
 7195TIP3    H121526   0.702   2.423   1.729
 7195TIP3    H221527   0.611   2.529   1.788
 7196TIP3   OH221528   1.497   2.840   3.965
 7196TIP3    H121529   1.424   2.808   4.019
 7196TIP3    H221530   1.555   2.765   3.957
 7197TIP3   OH221531   6.460   1.529   1.932
 7197TIP3    H121532   6.431   1.560   2.018
 7197TIP3    H221533   6.380   1.498   1.889
 7198TIP3   OH221534   7.177   1.292   3.751
 7198TIP3    H121535   7.173   1.207   3.707
 7198TIP3    H221536   7.124   1.280   3.830
 7199TIP3   OH221537   2.744   7.885   1.586
 7199TIP3    H121538   2.688   7.849   1.517
 7199TIP3    H221539   2.792   7.956   1.544
 7200TIP3   OH221540   0.010   4.243   1.976
 7200TIP3    H121541   0.092   4.284   2.005
 7200TIP3    H221542  -0.053   4.315   1.973
 7201TIP3   OH221543   8.273   7.711   3.680
 7201TIP3    H121544   8.185   7.717   3.644
 7201TIP3    H221545   8.330   7.715   3.603
 7202TIP3   OH221546   7.938   3.712   1.331
 7202TIP3    H121547   8.030   3.699   1.311
 7202TIP3    H221548   7.930   3.805   1.351
 7203TIP3   OH221549   5.828   3.442   0.244
 7203TIP3    H121550   5.853   3.491   0.166
 7203TIP3    H221551   5.909   3.405   0.277
 7204TIP3   OH221552   0.807   5.647   2.684
 7204TIP3    H121553   0.738   5.581   2.678
 7204TIP3    H221554   0.881   5.601   2.723
 7205TIP3   OH221555   2.001   5.398   5.520
 7205TIP3    H121556   1.938   5.394   5.592
 7205TIP3    H221557   1.982   5.481   5.476
 7206TIP3   OH221558   5.008   4.740   2.433
 7206TIP3    H121559   5.032   4.653   2.398
 7206TIP3    H221560   4.919   4.729   2.464
 7207TIP3   OH221561   8.271   1.446   6.022
 7207TIP3    H121562   8.331   1.389   6.069
 7207TIP3    H221563   8.225   1.387   5.962
 7208TIP3   OH221564   2.268   1.511   4.385
 7208TIP3    H121565   2.276   1.438   4.447
 7208TIP3    H221566   2.352   1.513   4.340
 7209TIP3   OH221567   3.365   1.981   4.103
 7209TIP3    H121568   3.397   1.998   4.014
 7209TIP3    H221569   3.428   1.919   4.140
 7210TIP3   OH221570   4.707   5.881   6.631
 7210TIP3    H121571   4.749   5.879   6.545
 7210TIP3    H221572   4.614   5.866   6.612
 7211TIP3   OH221573   1.563   0.915   1.167
 7211TIP3    H121574   1.545   0.830   1.207
 7211TIP3    H221575   1.476   0.953   1.153
 7212TIP3   OH221576   1.235   1.489   0.814
 7212TIP3    H121577   1.161   1.449   0.769
 7212TIP3    H221578   1.218   1.583   0.811
 7213TIP3   OH221579   5.692   1.919   1.255
 7213TIP3    H121580   5.617   1.866   1.281
 7213TIP3    H221581   5.695   1.911   1.160
 7214TIP3   OH221582   0.457   4.539   3.692
 7214TIP3    H121583   0.366   4.531   3.664
 7214TIP3    H221584   0.489   4.618   3.649
 7215TIP3   OH221585   0.401   2.835   3.039
 7215TIP3    H121586   0.319   2.871   3.005
 7215TIP3    H221587   0.453   2.912   3.061
 7216TIP3   OH221588   2.842   0.846   6.760
 7216TIP3    H121589   2.910   0.914   6.755
 7216TIP3    H221590   2.760   0.893   6.748
 7217TIP3   OH221591   4.572   4.327   3.575
 7217TIP3    H121592   4.481   4.321   3.605
 7217TIP3    H221593   4.565   4.349   3.482
 7218TIP3   OH221594   3.680   5.974   6.426
 7218TIP3    H121595   3.694   5.933   6.340
 7218TIP3    H221596   3.692   6.068   6.410
 7219TIP3   OH221597   3.690   6.734   0.810
 7219TIP3    H121598   3.713   6.662   0.751
 7219TIP3    H221599   3.617   6.700   0.862
 7220TIP3   OH221600   4.141   3.421   1.124
 7220TIP3    H121601   4.130   3.355   1.193
 7220TIP3    H221602   4.160   3.371   1.045
 7221TIP3   OH221603   0.156   0.389   3.045
 7221TIP3    H121604   0.161   0.442   2.965
 7221TIP3    H221605   0.070   0.407   3.081
 7222TIP3   OH221606   0.117   6.803   4.172
 7222TIP3    H121607   0.053   6.873   4.161
 7222TIP3    H221608   0.195   6.834   4.127
 7223TIP3   OH221609   7.373   0.322   5.317
 7223TIP3    H121610   7.373   0.365   5.232
 7223TIP3    H221611   7.453   0.354   5.359
 7224TIP3   OH221612   4.786   5.078   0.658
 7224TIP3    H121613   4.862   5.121   0.696
 7224TIP3    H221614   4.730   5.149   0.628
 7225TIP3   OH221615   7.153   4.835   5.226
 7225TIP3    H121616   7.164   4.930   5.231
 7225TIP3    H221617   7.207   4.800   5.296
 7226TIP3   OH221618   7.264   5.941   3.920
 7226TIP3    H121619   7.282   5.992   3.841
 7226TIP3    H221620   7.183   5.977   3.955
 7227TIP3   OH221621   4.476   1.600   3.424
 7227TIP3    H121622   4.396   1.649   3.408
 7227TIP3    H221623   4.473   1.578   3.517
 7228TIP3   OH221624   4.412   1.432   2.755
 7228TIP3    H121625   4.408   1.412   2.662
 7228TIP3    H221626   4.334   1.484   2.773
 7229TIP3   OH221627   1.530   0.693   0.604
 7229TIP3    H121628   1.574   0.619   0.646
 7229TIP3    H221629   1.583   0.712   0.527
 7230TIP3   OH221630   0.579   4.976   1.913
 7230TIP3    H121631   0.512   4.999   1.849
 7230TIP3    H221632   0.557   5.029   1.990
 7231TIP3   OH221633   2.819   7.011   2.005
 7231TIP3    H121634   2.785   6.922   2.012
 7231TIP3    H221635   2.742   7.066   1.994
 7232TIP3   OH221636   8.044   2.262   2.853
 7232TIP3    H121637   8.084   2.274   2.767
 7232TIP3    H221638   8.072   2.175   2.881
 7233TIP3   OH221639   1.235   5.292   0.934
 7233TIP3    H121640   1.195   5.310   1.019
 7233TIP3    H221641   1.191   5.351   0.874
 7234TIP3   OH221642   7.220   3.017   0.959
 7234TIP3    H121643   7.220   3.098   1.011
 7234TIP3    H221644   7.305   2.978   0.978
 7235TIP3   OH221645   5.449   4.616   2.372
 7235TIP3    H121646   5.397   4.537   2.358
 7235TIP3    H221647   5.398   4.687   2.334
 7236TIP3   OH221648   0.598   3.151   5.191
 7236TIP3    H121649   0.503   3.145   5.202
 7236TIP3    H221650   0.633   3.078   5.243
 7237TIP3   OH221651   6.482   3.095   2.839
 7237TIP3    H121652   6.460   3.177   2.883
 7237TIP3    H221653   6.424   3.092   2.763
 7238TIP3   OH221654   4.802   1.361   6.492
 7238TIP3    H121655   4.846   1.341   6.574
 7238TIP3    H221656   4.874   1.366   6.428
 7239TIP3   OH221657   2.692   3.408   1.768
 7239TIP3    H121658   2.630   3.344   1.805
 7239TIP3    H221659   2.653   3.432   1.684
 7240TIP3   OH221660   0.471   5.050   3.601
 7240TIP3    H121661   0.472   5.115   3.531
 7240TIP3    H221662   0.463   5.102   3.682
 7241TIP3   OH221663   2.752   6.578   5.609
 7241TIP3    H121664   2.795   6.631   5.676
 7241TIP3    H221665   2.725   6.640   5.542
 7242TIP3   OH221666   4.879   0.128   6.738
 7242TIP3    H121667   4.836   0.113   6.654
 7242TIP3    H221668   4.956   0.180   6.717
 7243TIP3   OH221669   7.670   0.237   6.546
 7243TIP3    H121670   7.606   0.259   6.478
 7243TIP3    H221671   7.620   0.235   6.627
 7244TIP3   OH221672   1.267   2.573   6.734
 7244TIP3    H121673   1.213   2.516   6.788
 7244TIP3    H221674   1.208   2.643   6.706
 7245TIP3   OH221675   5.340   7.235   0.113
 7245TIP3    H121676   5.261   7.279   0.145
 7245TIP3    H221677   5.385   7.301   0.059
 7246TIP3   OH221678   4.790   7.104   4.010
 7246TIP3    H121679   4.783   7.012   4.036
 7246TIP3    H221680   4.834   7.146   4.083
 7247TIP3   OH221681   7.570   2.093   3.114
 7247TIP3    H121682   7.519   2.172   3.099
 7247TIP3    H221683   7.655   2.111   3.073
 7248TIP3   OH221684   0.150   4.229   0.894
 7248TIP3    H121685   0.118   4.241   0.984
 7248TIP3    H221686   0.105   4.297   0.844
 7249TIP3   OH221687   7.637   3.357   6.594
 7249TIP3    H121688   7.592   3.361   6.678
 7249TIP3    H221689   7.617   3.440   6.552
 7250TIP3   OH221690   6.804   3.318   1.516
 7250TIP3    H121691   6.794   3.223   1.515
 7250TIP3    H221692   6.732   3.350   1.461
 7251TIP3   OH221693   5.588   3.260   1.255
 7251TIP3    H121694   5.633   3.181   1.286
 7251TIP3    H221695   5.634   3.332   1.298
 7252TIP3   OH221696   3.039   4.380   2.469
 7252TIP3    H121697   3.128   4.356   2.495
 7252TIP3    H221698   3.051   4.453   2.408
 7253TIP3   OH221699   3.111   4.381   4.901
 7253TIP3    H121700   3.084   4.338   4.820
 7253TIP3    H221701   3.171   4.318   4.942
 7254TIP3   OH221702   5.643   3.090   0.967
 7254TIP3    H121703   5.709   3.159   0.959
 7254TIP3    H221704   5.585   3.120   1.037
 7255TIP3   OH221705   5.261   0.358   5.850
 7255TIP3    H121706   5.205   0.426   5.813
 7255TIP3    H221707   5.312   0.403   5.917
 7256TIP3   OH221708   3.560   7.442   3.331
 7256TIP3    H121709   3.573   7.474   3.241
 7256TIP3    H221710   3.471   7.468   3.353
 7257TIP3   OH221711   5.699   2.048   2.644
 7257TIP3    H121712   5.668   2.022   2.731
 7257TIP3    H221713   5.782   2.003   2.634
 7258TIP3   OH221714   7.618   2.420   1.940
 7258TIP3    H121715   7.528   2.390   1.949
 7258TIP3    H221716   7.638   2.459   2.025
 7259TIP3   OH221717   1.678   0.808   3.426
 7259TIP3    H121718   1.609   0.875   3.421
 7259TIP3    H221719   1.754   0.849   3.386
 7260TIP3   OH221720   4.902   1.079   1.424
 7260TIP3    H121721   4.854   0.997   1.439
 7260TIP3    H221722   4.834   1.145   1.412
 7261TIP3   OH221723   7.209   5.306   3.895
 7261TIP3    H121724   7.209   5.213   3.919
 7261TIP3    H221725   7.294   5.339   3.926
 7262TIP3   OH221726   0.439   3.835   3.731
 7262TIP3    H121727   0.454   3.929   3.722
 7262TIP3    H221728   0.426   3.821   3.824
 7263TIP3   OH221729   2.065   1.641   0.295
 7263TIP3    H121730   2.054   1.735   0.311
 7263TIP3    H221731   1.987   1.616   0.245
 7264TIP3   OH221732   0.553   0.933   0.708
 7264TIP3    H121733   0.561   0.843   0.676
 7264TIP3    H221734   0.491   0.927   0.780
 7265TIP3   OH221735   3.330   3.324   1.644
 7265TIP3    H121736   3.340   3.290   1.733
 7265TIP3    H221737   3.258   3.388   1.651
 7266TIP3   OH221738   3.489   0.721   0.968
 7266TIP3    H121739   3.570   0.680   0.937
 7266TIP3    H221740   3.516   0.772   1.045
 7267TIP3   OH221741   2.521   0.478   2.468
 7267TIP3    H121742   2.483   0.396   2.499
 7267TIP3    H221743   2.591   0.451   2.409
 7268TIP3   OH221744   5.710   6.853   4.052
 7268TIP3    H121745   5.647   6.863   4.123
 7268TIP3    H221746   5.792   6.832   4.096
 7269TIP3   OH221747   5.218   7.753   1.887
 7269TIP3    H121748   5.188   7.674   1.843
 7269TIP3    H221749   5.298   7.778   1.839
 7270TIP3   OH221750   4.975   2.967   6.051
 7270TIP3    H121751   4.958   3.027   5.978
 7270TIP3    H221752   4.973   3.022   6.129
 7271TIP3   OH221753   3.826   3.115   5.437
 7271TIP3    H121754   3.790   3.039   5.392
 7271TIP3    H221755   3.754   3.147   5.492
 7272TIP3   OH221756   4.331   5.740   3.541
 7272TIP3    H121757   4.272   5.693   3.482
 7272TIP3    H221758   4.277   5.762   3.617
 7273TIP3   OH221759   2.638   1.061   3.832
 7273TIP3    H121760   2.720   1.013   3.846
 7273TIP3    H221761   2.666   1.146   3.796
 7274TIP3   OH221762   1.397   4.655   6.610
 7274TIP3    H121763   1.435   4.742   6.625
 7274TIP3    H221764   1.357   4.662   6.523
 7275TIP3   OH221765   5.700   7.332   5.195
 7275TIP3    H121766   5.781   7.356   5.241
 7275TIP3    H221767   5.631   7.380   5.241
 7276TIP3   OH221768   1.379   6.853   2.581
 7276TIP3    H121769   1.444   6.892   2.639
 7276TIP3    H221770   1.347   6.926   2.528
 7277TIP3   OH221771   7.606   7.059   5.123
 7277TIP3    H121772   7.670   7.128   5.141
 7277TIP3    H221773   7.606   7.005   5.201
 7278TIP3   OH221774   3.083   6.615   5.727
 7278TIP3    H121775   3.168   6.649   5.697
 7278TIP3    H221776   3.093   6.520   5.725
 7279TIP3   OH221777   1.809   5.934   2.124
 7279TIP3    H121778   1.889   5.898   2.085
 7279TIP3    H221779   1.739   5.901   2.068
 7280TIP3   OH221780   6.535   0.665   1.184
 7280TIP3    H121781   6.479   0.718   1.126
 7280TIP3    H221782   6.519   0.700   1.271
 7281TIP3   OH221783   8.328   1.641   3.847
 7281TIP3    H121784   8.306   1.681   3.763
 7281TIP3    H221785   8.371   1.558   3.824
 7282TIP3   OH221786   6.362   4.588   6.016
 7282TIP3    H121787   6.294   4.651   6.040
 7282TIP3    H221788   6.427   4.640   5.969
 7283TIP3   OH221789   1.970   6.240   5.079
 7283TIP3    H121790   1.934   6.322   5.110
 7283TIP3    H221791   1.895   6.192   5.043
 7284TIP3   OH221792   6.071   4.823   1.257
 7284TIP3    H121793   6.043   4.828   1.166
 7284TIP3    H221794   5.994   4.789   1.304
 7285TIP3   OH221795   7.939   2.114   6.577
 7285TIP3    H121796   7.926   2.162   6.495
 7285TIP3    H221797   7.883   2.037   6.568
 7286TIP3   OH221798   7.596   5.008   4.079
 7286TIP3    H121799   7.576   5.025   4.171
 7286TIP3    H221800   7.653   4.932   4.081
 7287TIP3   OH221801   2.158   3.515   4.993
 7287TIP3    H121802   2.242   3.560   4.986
 7287TIP3    H221803   2.152   3.489   5.085
 7288TIP3   OH221804   0.396   0.753   2.197
 7288TIP3    H121805   0.456   0.794   2.136
 7288TIP3    H221806   0.396   0.660   2.173
 7289TIP3   OH221807   4.243   7.468   3.697
 7289TIP3    H121808   4.230   7.518   3.616
 7289TIP3    H221809   4.157   7.430   3.715
 7290TIP3   OH221810   2.886   6.936   3.062
 7290TIP3    H121811   2.956   6.891   3.109
 7290TIP3    H221812   2.829   6.866   3.030
 7291TIP3   OH221813   7.825   5.932   0.656
 7291TIP3    H121814   7.831   5.883   0.574
 7291TIP3    H221815   7.848   6.022   0.631
 7292TIP3   OH221816   1.171   1.452   0.273
 7292TIP3    H121817   1.233   1.405   0.329
 7292TIP3    H221818   1.225   1.515   0.225
 7293TIP3   OH221819   5.045   1.788   4.130
 7293TIP3    H121820   5.018   1.705   4.169
 7293TIP3    H221821   5.141   1.784   4.130
 7294TIP3   OH221822   6.888   5.181   4.514
 7294TIP3    H121823   6.927   5.252   4.565
 7294TIP3    H221824   6.954   5.160   4.448
 7295TIP3   OH221825   4.898   2.288   0.128
 7295TIP3    H121826   4.957   2.234   0.181
 7295TIP3    H221827   4.944   2.371   0.119
 7296TIP3   OH221828   5.985   3.877   5.138
 7296TIP3    H121829   5.997   3.895   5.044
 7296TIP3    H221830   5.918   3.940   5.166
 7297TIP3   OH221831   2.006   2.617   3.935
 7297TIP3    H121832   2.024   2.527   3.962
 7297TIP3    H221833   2.026   2.669   4.013
 7298TIP3   OH221834   6.707   4.166   4.210
 7298TIP3    H121835   6.716   4.117   4.128
 7298TIP3    H221836   6.614   4.190   4.213
 7299TIP3   OH221837   2.535   7.627   6.570
 7299TIP3    H121838   2.492   7.585   6.496
 7299TIP3    H221839   2.477   7.700   6.593
 7300TIP3   OH221840   2.052   4.630   0.596
 7300TIP3    H121841   1.999   4.639   0.517
 7300TIP3    H221842   2.095   4.545   0.587
 7301TIP3   OH221843   4.222   2.170   6.250
 7301TIP3    H121844   4.185   2.134   6.169
 7301TIP3    H221845   4.307   2.128   6.259
 7302TIP3   OH221846   1.952   4.315   4.671
 7302TIP3    H121847   1.965   4.313   4.766
 7302TIP3    H221848   1.857   4.319   4.659
 7303TIP3   OH221849   7.151   6.168   2.033
 7303TIP3    H121850   7.211   6.216   1.976
 7303TIP3    H221851   7.207   6.132   2.101
 7304TIP3   OH221852   4.559   0.199   1.871
 7304TIP3    H121853   4.477   0.226   1.828
 7304TIP3    H221854   4.564   0.255   1.948
 7305TIP3   OH221855   4.094   2.112   3.610
 7305TIP3    H121856   4.155   2.160   3.554
 7305TIP3    H221857   4.008   2.143   3.584
 7306TIP3   OH221858   4.282   5.915   4.239
 7306TIP3    H121859   4.187   5.922   4.226
 7306TIP3    H221860   4.314   6.005   4.230
 7307TIP3   OH221861   6.616   3.507   4.422
 7307TIP3    H121862   6.666   3.525   4.502
 7307TIP3    H221863   6.661   3.433   4.382
 7308TIP3   OH221864   8.118   6.193   5.773
 7308TIP3    H121865   8.094   6.199   5.680
 7308TIP3    H221866   8.146   6.102   5.784
 7309TIP3   OH221867   2.000   5.117   2.605
 7309TIP3    H121868   1.957   5.079   2.681
 7309TIP3    H221869   1.933   5.118   2.537
 7310TIP3   OH221870   5.834   3.053   5.004
 7310TIP3    H121871   5.772   3.044   4.932
 7310TIP3    H221872   5.831   3.146   5.026
 7311TIP3   OH221873   0.667   1.024   0.241
 7311TIP3    H121874   0.648   1.089   0.309
 7311TIP3    H221875   0.672   1.075   0.161
 7312TIP3   OH221876   1.938   3.592   2.844
 7312TIP3    H121877   1.892   3.563   2.765
 7312TIP3    H221878   1.957   3.512   2.892
 7313TIP3   OH221879   3.734   2.047   3.890
 7313TIP3    H121880   3.649   2.077   3.858
 7313TIP3    H221881   3.749   1.964   3.846
 7314TIP3   OH221882   7.993   3.970   6.063
 7314TIP3    H121883   8.056   4.040   6.043
 7314TIP3    H221884   8.004   3.906   5.993
 7315TIP3   OH221885   3.777   0.186   2.394
 7315TIP3    H121886   3.827   0.212   2.472
 7315TIP3    H221887   3.842   0.178   2.325
 7316TIP3   OH221888   1.686   1.039   0.472
 7316TIP3    H121889   1.682   0.947   0.444
 7316TIP3    H221890   1.681   1.090   0.392
 7317TIP3   OH221891   1.102   5.678   3.634
 7317TIP3    H121892   1.109   5.590   3.596
 7317TIP3    H221893   1.186   5.692   3.678
 7318TIP3   OH221894   8.254   3.423   4.643
 7318TIP3    H121895   8.308   3.432   4.721
 7318TIP3    H221896   8.289   3.345   4.598
 7319TIP3   OH221897   0.608   3.653   4.876
 7319TIP3    H121898   0.603   3.571   4.826
 7319TIP3    H221899   0.526   3.655   4.926
 7320TIP3   OH221900   4.115   5.674   0.852
 7320TIP3    H121901   4.156   5.594   0.885
 7320TIP3    H221902   4.155   5.687   0.766
 7321TIP3   OH221903   0.759   0.273   3.268
 7321TIP3    H121904   0.738   0.180   3.276
 7321TIP3    H221905   0.819   0.278   3.194
 7322TIP3   OH221906   1.531   3.230   4.466
 7322TIP3    H121907   1.466   3.301   4.464
 7322TIP3    H221908   1.601   3.263   4.523
 7323TIP3   OH221909   5.583   0.047   6.536
 7323TIP3    H121910   5.531   0.016   6.462
 7323TIP3    H221911   5.673   0.048   6.503
 7324TIP3   OH221912   6.555   2.989   3.076
 7324TIP3    H121913   6.536   3.015   2.986
 7324TIP3    H221914   6.471   2.996   3.121
 7325TIP3   OH221915   6.042   1.039   0.587
 7325TIP3    H121916   6.110   1.030   0.653
 7325TIP3    H221917   6.058   0.967   0.526
 7326TIP3   OH221918   3.974   4.050   0.361
 7326TIP3    H121919   3.881   4.064   0.343
 7326TIP3    H221920   4.008   4.010   0.281
 7327TIP3   OH221921   4.678   7.525   0.543
 7327TIP3    H121922   4.641   7.501   0.628
 7327TIP3    H221923   4.636   7.465   0.481
 7328TIP3   OH221924   3.823   2.726   2.208
 7328TIP3    H121925   3.838   2.811   2.250
 7328TIP3    H221926   3.866   2.663   2.267
 7329TIP3   OH221927   0.526   4.562   5.735
 7329TIP3    H121928   0.602   4.617   5.721
 7329TIP3    H221929   0.558   4.472   5.725
 7330TIP3   OH221930   0.321   3.600   0.864
 7330TIP3    H121931   0.399   3.602   0.808
 7330TIP3    H221932   0.314   3.509   0.893
 7331TIP3   OH221933   3.913   1.447   6.049
 7331TIP3    H121934   3.889   1.397   5.971
 7331TIP3    H221935   3.958   1.524   6.015
 7332TIP3   OH221936   6.183   2.663   1.492
 7332TIP3    H121937   6.105   2.616   1.521
 7332TIP3    H221938   6.174   2.750   1.531
 7333TIP3   OH221939   1.344   5.024   1.921
 7333TIP3    H121940   1.252   4.999   1.914
 7333TIP3    H221941   1.370   5.050   1.833
 7334TIP3   OH221942   0.019   3.727   6.182
 7334TIP3    H121943   0.096   3.781   6.165
 7334TIP3    H221944  -0.037   3.781   6.237
 7335TIP3   OH221945   2.205   6.387   3.099
 7335TIP3    H121946   2.218   6.468   3.049
 7335TIP3    H221947   2.293   6.361   3.126
 7336TIP3   OH221948   2.612   4.039   1.935
 7336TIP3    H121949   2.523   4.004   1.927
 7336TIP3    H221950   2.602   4.133   1.920
 7337TIP3   OH221951   0.368   5.157   3.857
 7337TIP3    H121952   0.333   5.238   3.820
 7337TIP3    H221953   0.300   5.091   3.840
 7338TIP3   OH221954   5.005   0.103   3.647
 7338TIP3    H121955   4.996   0.061   3.561
 7338TIP3    H221956   4.933   0.165   3.650
 7339TIP3   OH221957   1.766   2.864   0.552
 7339TIP3    H121958   1.693   2.921   0.528
 7339TIP3    H221959   1.818   2.855   0.472
 7340TIP3   OH221960   4.022   7.461   3.291
 7340TIP3    H121961   4.087   7.440   3.358
 7340TIP3    H221962   3.945   7.490   3.340
 7341TIP3   OH221963   3.077   0.831   4.690
 7341TIP3    H121964   3.136   0.902   4.714
 7341TIP3    H221965   3.045   0.796   4.773
 7342TIP3   OH221966   4.541   7.264   5.306
 7342TIP3    H121967   4.477   7.312   5.359
 7342TIP3    H221968   4.625   7.286   5.346
 7343TIP3   OH221969   2.708   1.097   2.666
 7343TIP3    H121970   2.625   1.092   2.714
 7343TIP3    H221971   2.731   1.005   2.650
 7344TIP3   OH221972   8.122   0.016   4.316
 7344TIP3    H121973   8.039   0.033   4.272
 7344TIP3    H221974   8.185   0.074   4.273
 7345TIP3   OH221975   8.219   2.343   5.033
 7345TIP3    H121976   8.242   2.369   5.122
 7345TIP3    H221977   8.144   2.397   5.011
 7346TIP3   OH221978   3.954   4.439   3.023
 7346TIP3    H121979   4.010   4.512   2.997
 7346TIP3    H221980   3.869   4.457   2.982
 7347TIP3   OH221981   3.167   3.030   6.077
 7347TIP3    H121982   3.162   3.036   6.172
 7347TIP3    H221983   3.211   2.946   6.060
 7348TIP3   OH221984   7.819   7.344   0.756
 7348TIP3    H121985   7.882   7.416   0.763
 7348TIP3    H221986   7.853   7.291   0.684
 7349TIP3   OH221987   0.142   0.335   1.944
 7349TIP3    H121988   0.223   0.386   1.950
 7349TIP3    H221989   0.168   0.255   1.898
 7350TIP3   OH221990   0.600   1.942   6.391
 7350TIP3    H121991   0.673   1.885   6.415
 7350TIP3    H221992   0.641   2.023   6.360
 7351TIP3   OH221993   6.299   3.500   3.550
 7351TIP3    H121994   6.379   3.469   3.593
 7351TIP3    H221995   6.275   3.429   3.491
 7352TIP3   OH221996   6.341   7.057   2.239
 7352TIP3    H121997   6.379   7.108   2.311
 7352TIP3    H221998   6.364   7.107   2.161
 7353TIP3   OH221999   6.931   1.668   5.149
 7353TIP3    H122000   6.973   1.590   5.183
 7353TIP3    H222001   6.877   1.700   5.221
 7354TIP3   OH222002   3.946   5.333   2.535
 7354TIP3    H122003   3.995   5.414   2.521
 7354TIP3    H222004   3.987   5.294   2.612
 7355TIP3   OH222005   5.919   5.676   2.652
 7355TIP3    H122006   5.860   5.664   2.727
 7355TIP3    H222007   6.006   5.685   2.691
 7356TIP3   OH222008   5.504   1.100   4.822
 7356TIP3    H122009   5.452   1.035   4.773
 7356TIP3    H222010   5.512   1.174   4.763
 7357TIP3   OH222011   4.937   4.455   2.553
 7357TIP3    H122012   4.913   4.423   2.466
 7357TIP3    H222013   4.928   4.380   2.611
 7358TIP3   OH222014   5.729   5.599   0.718
 7358TIP3    H122015   5.692   5.664   0.658
 7358TIP3    H222016   5.692   5.621   0.803
 7359TIP3   OH222017   1.901   1.109   0.890
 7359TIP3    H122018   1.977   1.086   0.836
 7359TIP3    H222019   1.878   1.027   0.934
 7360TIP3   OH222020   4.963   4.117   6.772
 7360TIP3    H122021   4.911   4.087   6.698
 7360TIP3    H222022   5.054   4.106   6.744
 7361TIP3   OH222023   1.657   2.154   4.417
 7361TIP3    H122024   1.659   2.243   4.453
 7361TIP3    H222025   1.749   2.131   4.407
 7362TIP3   OH222026   6.360   1.915   0.718
 7362TIP3    H122027   6.290   1.879   0.663
 7362TIP3    H222028   6.376   1.846   0.783
 7363TIP3   OH222029   7.383   5.265   3.400
 7363TIP3    H122030   7.415   5.299   3.483
 7363TIP3    H222031   7.390   5.170   3.408
 7364TIP3   OH222032   7.691   0.616   0.733
 7364TIP3    H122033   7.695   0.652   0.645
 7364TIP3    H222034   7.669   0.524   0.721
 7365TIP3   OH222035   3.221   0.759   0.885
 7365TIP3    H122036   3.280   0.760   0.960
 7365TIP3    H222037   3.278   0.750   0.809
 7366TIP3   OH222038   1.479   3.375   5.568
 7366TIP3    H122039   1.408   3.346   5.511
 7366TIP3    H222040   1.528   3.439   5.516
 7367TIP3   OH222041   1.120   2.004   1.416
 7367TIP3    H122042   1.180   2.018   1.342
 7367TIP3    H222043   1.102   1.910   1.415
 7368TIP3   OH222044   4.292   3.717   4.469
 7368TIP3    H122045   4.249   3.644   4.423
 7368TIP3    H222046   4.361   3.675   4.521
 7369TIP3   OH222047   1.818   6.067   2.750
 7369TIP3    H122048   1.749   6.023   2.701
 7369TIP3    H222049   1.874   5.996   2.783
 7370TIP3   OH222050   7.870   1.607   5.791
 7370TIP3    H122051   7.775   1.609   5.798
 7370TIP3    H222052   7.899   1.559   5.869
 7371TIP3   OH222053   0.157   2.973   2.140
 7371TIP3    H122054   0.119   3.057   2.167
 7371TIP3    H222055   0.239   2.997   2.096
 7372TIP3   OH222056   2.864   4.640   3.809
 7372TIP3    H122057   2.791   4.696   3.784
 7372TIP3    H222058   2.823   4.556   3.834
 7373TIP3   OH222059   1.174   2.709   0.854
 7373TIP3    H122060   1.266   2.733   0.860
 7373TIP3    H222061   1.128   2.777   0.904
 7374TIP3   OH222062   8.017   1.839   3.049
 7374TIP3    H122063   8.098   1.818   3.001
 7374TIP3    H222064   8.000   1.761   3.101
 7375TIP3   OH222065   7.936   3.240   3.992
 7375TIP3    H122066   8.030   3.246   4.005
 7375TIP3    H222067   7.915   3.148   4.010
 7376TIP3   OH222068   3.362   7.251   5.730
 7376TIP3    H122069   3.296   7.185   5.750
 7376TIP3    H222070   3.320   7.335   5.750
 7377TIP3   OH222071   8.139   6.929   2.156
 7377TIP3    H122072   8.192   6.849   2.160
 7377TIP3    H222073   8.077   6.921   2.228
 7378TIP3   OH222074   4.202   7.801   1.953
 7378TIP3    H122075   4.292   7.769   1.966
 7378TIP3    H222076   4.180   7.843   2.036
 7379TIP3   OH222077   5.857   2.316   0.938
 7379TIP3    H122078   5.946   2.348   0.923
 7379TIP3    H222079   5.827   2.364   1.015
 7380TIP3   OH222080   1.912   4.045   2.564
 7380TIP3    H122081   1.958   4.123   2.533
 7380TIP3    H222082   1.979   3.977   2.566
 7381TIP3   OH222083   0.984   2.393   3.471
 7381TIP3    H122084   0.894   2.401   3.440
 7381TIP3    H222085   1.018   2.317   3.425
 7382TIP3   OH222086   7.921   7.072   3.677
 7382TIP3    H122087   7.979   7.016   3.625
 7382TIP3    H222088   7.900   7.146   3.619
 7383TIP3   OH222089   7.889   5.873   6.259
 7383TIP3    H122090   7.897   5.824   6.341
 7383TIP3    H222091   7.914   5.810   6.191
 7384TIP3   OH222092   5.187   5.955   4.887
 7384TIP3    H122093   5.281   5.937   4.885
 7384TIP3    H222094   5.161   5.941   4.978
 7385TIP3   OH222095   7.659   6.801   5.319
 7385TIP3    H122096   7.736   6.775   5.269
 7385TIP3    H222097   7.586   6.761   5.272
 7386TIP3   OH222098   6.206   4.623   0.537
 7386TIP3    H122099   6.263   4.549   0.516
 7386TIP3    H222100   6.154   4.592   0.612
 7387TIP3   OH222101   0.403   1.690   3.070
 7387TIP3    H122102   0.449   1.659   2.992
 7387TIP3    H222103   0.402   1.613   3.128
 7388TIP3   OH222104   2.302   0.123   6.405
 7388TIP3    H122105   2.344   0.091   6.485
 7388TIP3    H222106   2.372   0.167   6.356
 7389TIP3   OH222107   2.723   2.293   2.315
 7389TIP3    H122108   2.688   2.206   2.336
 7389TIP3    H222109   2.815   2.289   2.341
 7390TIP3   OH222110   2.026   6.552   2.233
 7390TIP3    H122111   2.034   6.510   2.147
 7390TIP3    H222112   2.008   6.480   2.294
 7391TIP3   OH222113   5.650   7.797   2.545
 7391TIP3    H122114   5.671   7.846   2.466
 7391TIP3    H222115   5.562   7.761   2.529
 7392TIP3   OH222116   6.405   5.217   2.602
 7392TIP3    H122117   6.490   5.238   2.563
 7392TIP3    H222118   6.341   5.244   2.537
 7393TIP3   OH222119   0.059   5.121   6.687
 7393TIP3    H122120   0.059   5.031   6.652
 7393TIP3    H222121   0.087   5.175   6.614
 7394TIP3   OH222122   2.187   1.058   3.149
 7394TIP3    H122123   2.282   1.055   3.138
 7394TIP3    H222124   2.168   1.150   3.168
 7395TIP3   OH222125   2.461   4.391   5.857
 7395TIP3    H122126   2.502   4.403   5.942
 7395TIP3    H222127   2.444   4.297   5.852
 7396TIP3   OH222128   4.193   5.989   4.965
 7396TIP3    H122129   4.133   5.915   4.974
 7396TIP3    H222130   4.202   6.023   5.054
 7397TIP3   OH222131   0.129   2.228   3.249
 7397TIP3    H122132   0.065   2.203   3.316
 7397TIP3    H222133   0.147   2.321   3.266
 7398TIP3   OH222134   1.576   4.089   5.550
 7398TIP3    H122135   1.544   4.155   5.489
 7398TIP3    H222136   1.511   4.087   5.621
 7399TIP3   OH222137   0.453   2.150   6.194
 7399TIP3    H122138   0.478   2.178   6.282
 7399TIP3    H222139   0.516   2.192   6.136
 7400TIP3   OH222140   7.753   4.537   3.308
 7400TIP3    H122141   7.802   4.619   3.316
 7400TIP3    H222142   7.748   4.503   3.397
 7401TIP3   OH222143   1.778   3.796   1.733
 7401TIP3    H122144   1.740   3.713   1.761
 7401TIP3    H222145   1.707   3.859   1.741
 7402TIP3   OH222146   6.366   2.486   0.235
 7402TIP3    H122147   6.447   2.530   0.210
 7402TIP3    H222148   6.386   2.443   0.318
 7403TIP3   OH222149   4.056   2.626   5.359
 7403TIP3    H122150   4.029   2.559   5.422
 7403TIP3    H222151   4.078   2.577   5.280
 7404TIP3   OH222152   0.553   4.954   5.885
 7404TIP3    H122153   0.487   4.909   5.832
 7404TIP3    H222154   0.517   5.041   5.900
 7405TIP3   OH222155   1.693   0.843   6.423
 7405TIP3    H122156   1.727   0.818   6.509
 7405TIP3    H222157   1.682   0.938   6.428
 7406TIP3   OH222158   1.637   3.738   2.050
 7406TIP3    H122159   1.701   3.770   2.114
 7406TIP3    H222160   1.689   3.687   1.988
 7407TIP3   OH222161   4.164   6.939   2.917
 7407TIP3    H122162   4.078   6.947   2.957
 7407TIP3    H222163   4.224   6.928   2.992
 7408TIP3   OH222164   5.606   5.139   3.185
 7408TIP3    H122165   5.676   5.087   3.143
 7408TIP3    H222166   5.650   5.218   3.216
 7409TIP3   OH222167   2.744   2.310   2.602
 7409TIP3    H122168   2.803   2.270   2.666
 7409TIP3    H222169   2.755   2.258   2.522
 7410TIP3   OH222170   2.172   5.403   1.312
 7410TIP3    H122171   2.262   5.430   1.295
 7410TIP3    H222172   2.137   5.470   1.370
 7411TIP3   OH222173   1.660   3.567   1.815
 7411TIP3    H122174   1.677   3.477   1.788
 7411TIP3    H222175   1.564   3.574   1.813
 7412TIP3   OH222176   1.576   7.202   6.009
 7412TIP3    H122177   1.552   7.133   6.071
 7412TIP3    H222178   1.624   7.156   5.940
 7413TIP3   OH222179   6.410   3.706   0.630
 7413TIP3    H122180   6.391   3.702   0.723
 7413TIP3    H222181   6.493   3.754   0.624
 7414TIP3   OH222182   3.571   4.425   2.734
 7414TIP3    H122183   3.528   4.456   2.654
 7414TIP3    H222184   3.572   4.330   2.724
 7415TIP3   OH222185   2.554   7.226   1.386
 7415TIP3    H122186   2.499   7.160   1.344
 7415TIP3    H222187   2.510   7.309   1.369
 7416TIP3   OH222188   5.897   0.677   0.880
 7416TIP3    H122189   5.837   0.743   0.846
 7416TIP3    H222190   5.979   0.691   0.833
 7417TIP3   OH222191   6.105   4.924   0.565
 7417TIP3    H122192   6.156   4.989   0.614
 7417TIP3    H222193   6.110   4.845   0.618
 7418TIP3   OH222194   3.842   4.922   5.818
 7418TIP3    H122195   3.912   4.859   5.833
 7418TIP3    H222196   3.791   4.885   5.746
 7419TIP3   OH222197   2.429   3.273   3.690
 7419TIP3    H122198   2.418   3.192   3.641
 7419TIP3    H222199   2.423   3.342   3.625
 7420TIP3   OH222200   6.274   6.598   4.808
 7420TIP3    H122201   6.338   6.665   4.784
 7420TIP3    H222202   6.271   6.539   4.733
 7421TIP3   OH222203   3.947   4.318   3.859
 7421TIP3    H122204   3.957   4.367   3.777
 7421TIP3    H222205   4.032   4.277   3.873
 7422TIP3   OH222206   6.951   2.822   3.589
 7422TIP3    H122207   6.978   2.818   3.497
 7422TIP3    H222208   7.022   2.867   3.633
 7423TIP3   OH222209   8.139   5.212   6.392
 7423TIP3    H122210   8.175   5.124   6.400
 7423TIP3    H222211   8.098   5.230   6.477
 7424TIP3   OH222212   7.814   5.029   1.932
 7424TIP3    H122213   7.820   4.937   1.904
 7424TIP3    H222214   7.788   5.076   1.853
 7425TIP3   OH222215   4.671   3.777   5.920
 7425TIP3    H122216   4.682   3.755   6.012
 7425TIP3    H222217   4.738   3.844   5.903
 7426TIP3   OH222218   2.366   7.913   0.734
 7426TIP3    H122219   2.394   7.900   0.644
 7426TIP3    H222220   2.270   7.914   0.730
 7427TIP3   OH222221   3.307   0.276   3.814
 7427TIP3    H122222   3.309   0.196   3.762
 7427TIP3    H222223   3.259   0.252   3.893
 7428TIP3   OH222224   7.614   7.417   2.776
 7428TIP3    H122225   7.671   7.418   2.853
 7428TIP3    H222226   7.532   7.455   2.805
 7429TIP3   OH222227   3.181   2.193   6.849
 7429TIP3    H122228   3.161   2.266   6.791
 7429TIP3    H222229   3.112   2.128   6.831
 7430TIP3   OH222230   6.589   2.113   2.457
 7430TIP3    H122231   6.628   2.073   2.534
 7430TIP3    H222232   6.603   2.207   2.469
 7431TIP3   OH222233   1.631   1.991   3.964
 7431TIP3    H122234   1.600   1.927   4.029
 7431TIP3    H222235   1.591   2.074   3.990
 7432TIP3   OH222236   2.821   0.961   0.762
 7432TIP3    H122237   2.738   0.940   0.719
 7432TIP3    H222238   2.812   0.925   0.850
 7433TIP3   OH222239   3.140   5.571   0.945
 7433TIP3    H122240   3.117   5.652   0.900
 7433TIP3    H222241   3.063   5.548   0.996
 7434TIP3   OH222242   5.769   6.138   1.419
 7434TIP3    H122243   5.795   6.229   1.405
 7434TIP3    H222244   5.674   6.143   1.434
 7435TIP3   OH222245   0.300   7.125   5.074
 7435TIP3    H122246   0.234   7.142   5.141
 7435TIP3    H222247   0.267   7.170   4.996
 7436TIP3   OH222248   3.128   3.946   3.021
 7436TIP3    H122249   3.088   3.960   2.935
 7436TIP3    H222250   3.082   4.007   3.078
 7437TIP3   OH222251   2.956   7.343   5.355
 7437TIP3    H122252   2.864   7.317   5.361
 7437TIP3    H222253   2.988   7.338   5.445
 7438TIP3   OH222254   4.133   5.021   1.895
 7438TIP3    H122255   4.147   5.036   1.988
 7438TIP3    H222256   4.039   5.008   1.887
 7439TIP3   OH222257   6.219   5.091   5.382
 7439TIP3    H122258   6.191   5.020   5.440
 7439TIP3    H222259   6.308   5.066   5.356
 7440TIP3   OH222260   7.697   0.684   6.233
 7440TIP3    H122261   7.655   0.727   6.158
 7440TIP3    H222262   7.698   0.752   6.301
 7441TIP3   OH222263   7.600   1.010   6.221
 7441TIP3    H122264   7.604   0.959   6.140
 7441TIP3    H222265   7.564   1.094   6.196
 7442TIP3   OH222266   3.174   5.578   0.127
 7442TIP3    H122267   3.262   5.550   0.155
 7442TIP3    H222268   3.130   5.602   0.208
 7443TIP3   OH222269   3.681   0.075   3.703
 7443TIP3    H122270   3.650   0.160   3.671
 7443TIP3    H222271   3.667   0.079   3.798
 7444TIP3   OH222272   7.215   5.768   1.342
 7444TIP3    H122273   7.273   5.816   1.283
 7444TIP3    H222274   7.127   5.799   1.320
 7445TIP3   OH222275   0.860   7.197   4.507
 7445TIP3    H122276   0.866   7.287   4.538
 7445TIP3    H222277   0.866   7.204   4.411
 7446TIP3   OH222278   0.226   3.354   0.954
 7446TIP3    H122279   0.205   3.401   1.035
 7446TIP3    H222280   0.150   3.368   0.897
 7447TIP3   OH222281   0.000   3.420   4.897
 7447TIP3    H122282  -0.060   3.355   4.933
 7447TIP3    H222283   0.086   3.393   4.928
 7448TIP3   OH222284   4.269   0.506   0.107
 7448TIP3    H122285   4.353   0.501   0.062
 7448TIP3    H222286   4.249   0.599   0.110
 7449TIP3   OH222287   5.381   5.481   0.942
 7449TIP3    H122288   5.416   5.519   0.862
 7449TIP3    H222289   5.448   5.498   1.009
 7450TIP3   OH222290   0.321   3.474   2.137
 7450TIP3    H122291   0.311   3.510   2.225
 7450TIP3    H222292   0.396   3.415   2.143
 7451TIP3   OH222293   0.161   2.382   5.335
 7451TIP3    H122294   0.085   2.324   5.343
 7451TIP3    H222295   0.229   2.338   5.387
 7452TIP3   OH222296   0.891   0.697   2.106
 7452TIP3    H122297   0.817   0.700   2.167
 7452TIP3    H222298   0.935   0.615   2.126
 7453TIP3   OH222299   3.025   1.566   4.192
 7453TIP3    H122300   3.004   1.659   4.191
 7453TIP3    H222301   3.121   1.563   4.199
 7454TIP3   OH222302   4.032   5.962   1.159
 7454TIP3    H122303   3.986   5.930   1.236
 7454TIP3    H222304   4.036   6.057   1.171
 7455TIP3   OH222305   4.025   4.186   2.739
 7455TIP3    H122306   4.069   4.270   2.749
 7455TIP3    H222307   3.966   4.181   2.814
 7456TIP3   OH222308   2.473   6.906   4.200
 7456TIP3    H122309   2.516   6.936   4.281
 7456TIP3    H222310   2.543   6.903   4.135
 7457TIP3   OH222311   7.708   4.221   4.186
 7457TIP3    H122312   7.698   4.212   4.091
 7457TIP3    H222313   7.715   4.131   4.217
 7458TIP3   OH222314   0.401   7.316   3.030
 7458TIP3    H122315   0.344   7.342   2.958
 7458TIP3    H222316   0.363   7.233   3.061
 7459TIP3   OH222317   5.410   3.701   4.512
 7459TIP3    H122318   5.373   3.776   4.466
 7459TIP3    H222319   5.481   3.738   4.564
 7460TIP3   OH222320   1.647   6.273   4.188
 7460TIP3    H122321   1.555   6.301   4.193
 7460TIP3    H222322   1.684   6.296   4.273
 7461TIP3   OH222323   3.487   5.066   0.174
 7461TIP3    H122324   3.506   5.140   0.232
 7461TIP3    H222325   3.397   5.080   0.145
 7462TIP3   OH222326   3.449   6.903   3.436
 7462TIP3    H122327   3.435   6.813   3.462
 7462TIP3    H222328   3.483   6.897   3.346
 7463TIP3   OH222329   6.878   1.781   6.460
 7463TIP3    H122330   6.878   1.840   6.385
 7463TIP3    H222331   6.896   1.694   6.422
 7464TIP3   OH222332   7.091   7.611   2.933
 7464TIP3    H122333   7.012   7.649   2.970
 7464TIP3    H222334   7.149   7.685   2.917
 7465TIP3   OH222335   1.613   0.011   5.216
 7465TIP3    H122336   1.705  -0.010   5.201
 7465TIP3    H222337   1.615   0.099   5.253
 7466TIP3   OH222338   5.553   6.203   3.785
 7466TIP3    H122339   5.551   6.118   3.742
 7466TIP3    H222340   5.520   6.264   3.718
 7467TIP3   OH222341   6.892   2.611   6.774
 7467TIP3    H122342   6.879   2.590   6.866
 7467TIP3    H222343   6.870   2.704   6.767
 7468TIP3   OH222344   0.174   0.061   3.634
 7468TIP3    H122345   0.237   0.040   3.704
 7468TIP3    H222346   0.223   0.049   3.553
 7469TIP3   OH222347   4.328   0.132   3.515
 7469TIP3    H122348   4.386   0.202   3.545
 7469TIP3    H222349   4.378   0.052   3.529
 7470TIP3   OH222350   3.855   7.664   0.770
 7470TIP3    H122351   3.782   7.703   0.818
 7470TIP3    H222352   3.815   7.629   0.690
 7471TIP3   OH222353   7.861   2.646   3.865
 7471TIP3    H122354   7.905   2.606   3.940
 7471TIP3    H222355   7.922   2.636   3.793
 7472TIP3   OH222356   5.275   3.299   3.067
 7472TIP3    H122357   5.260   3.267   3.157
 7472TIP3    H222358   5.370   3.298   3.057
 7473TIP3   OH222359   7.931   0.281   6.536
 7473TIP3    H122360   7.949   0.283   6.630
 7473TIP3    H222361   7.843   0.246   6.529
 7474TIP3   OH222362   1.337   0.352   3.412
 7474TIP3    H122363   1.386   0.434   3.403
 7474TIP3    H222364   1.327   0.320   3.322
 7475TIP3   OH222365   2.015   5.273   6.605
 7475TIP3    H122366   2.103   5.312   6.610
 7475TIP3    H222367   1.987   5.263   6.696
 7476TIP3   OH222368   5.071   1.710   6.249
 7476TIP3    H122369   5.044   1.798   6.221
 7476TIP3    H222370   5.138   1.684   6.186
 7477TIP3   OH222371   2.964   4.527   3.244
 7477TIP3    H122372   3.011   4.603   3.209
 7477TIP3    H222373   2.988   4.524   3.337
 7478TIP3   OH222374   4.435   2.860   6.322
 7478TIP3    H122375   4.458   2.770   6.298
 7478TIP3    H222376   4.373   2.888   6.254
 7479TIP3   OH222377   7.287   0.795   6.087
 7479TIP3    H122378   7.375   0.756   6.084
 7479TIP3    H222379   7.261   0.788   6.179
 7480TIP3   OH222380   8.018   4.669   1.347
 7480TIP3    H122381   8.069   4.746   1.373
 7480TIP3    H222382   8.011   4.676   1.252
 7481TIP3   OH222383   7.186   2.977   0.176
 7481TIP3    H122384   7.237   2.988   0.256
 7481TIP3    H222385   7.144   2.891   0.186
 7482TIP3   OH222386   2.181   3.822   2.888
 7482TIP3    H122387   2.129   3.741   2.891
 7482TIP3    H222388   2.118   3.891   2.909
 7483TIP3   OH222389   6.012   6.916   2.709
 7483TIP3    H122390   5.970   6.974   2.646
 7483TIP3    H222391   6.038   6.973   2.781
 7484TIP3   OH222392   6.813   4.934   3.715
 7484TIP3    H122393   6.770   4.909   3.797
 7484TIP3    H222394   6.817   5.029   3.717
 7485TIP3   OH222395   0.359   0.056   0.781
 7485TIP3    H122396   0.297   0.098   0.721
 7485TIP3    H222397   0.442   0.057   0.733
 7486TIP3   OH222398   1.908   1.475   6.257
 7486TIP3    H122399   1.892   1.398   6.202
 7486TIP3    H222400   1.827   1.487   6.307
 7487TIP3   OH222401   5.666   5.279   4.521
 7487TIP3    H122402   5.666   5.184   4.531
 7487TIP3    H222403   5.573   5.303   4.515
 7488TIP3   OH222404   5.173   4.391   0.273
 7488TIP3    H122405   5.108   4.447   0.231
 7488TIP3    H222406   5.128   4.308   0.287
 7489TIP3   OH222407   8.115   2.100   3.664
 7489TIP3    H122408   8.031   2.135   3.695
 7489TIP3    H222409   8.133   2.025   3.721
 7490TIP3   OH222410   7.639   2.274   3.353
 7490TIP3    H122411   7.625   2.241   3.442
 7490TIP3    H222412   7.667   2.365   3.366
 7491TIP3   OH222413   0.618   3.451   0.108
 7491TIP3    H122414   0.630   3.356   0.106
 7491TIP3    H222415   0.525   3.462   0.129
 7492TIP3   OH222416   3.618   4.028   4.954
 7492TIP3    H122417   3.670   4.102   4.984
 7492TIP3    H222418   3.557   4.011   5.026
 7493TIP3   OH222419   2.215   6.435   1.841
 7493TIP3    H122420   2.146   6.399   1.897
 7493TIP3    H222421   2.268   6.359   1.817
 7494TIP3   OH222422   7.890   3.184   3.252
 7494TIP3    H122423   7.804   3.146   3.233
 7494TIP3    H222424   7.951   3.111   3.243
 7495TIP3   OH222425   6.000   7.429   6.353
 7495TIP3    H122426   5.944   7.373   6.298
 7495TIP3    H222427   5.979   7.403   6.442
 7496TIP3   OH222428   1.452   7.575   3.386
 7496TIP3    H122429   1.411   7.583   3.299
 7496TIP3    H222430   1.430   7.658   3.430
 7497TIP3   OH222431   2.964   0.303   3.392
 7497TIP3    H122432   2.888   0.337   3.345
 7497TIP3    H222433   2.930   0.232   3.447
 7498TIP3   OH222434   2.415   1.801   6.664
 7498TIP3    H122435   2.330   1.765   6.639
 7498TIP3    H222436   2.427   1.773   6.755
 7499TIP3   OH222437   0.903   3.026   0.713
 7499TIP3    H122438   0.814   3.041   0.746
 7499TIP3    H222439   0.891   2.968   0.638
 7500TIP3   OH222440   1.239   3.518   5.963
 7500TIP3    H122441   1.233   3.454   5.892
 7500TIP3    H222442   1.206   3.471   6.040
 7501TIP3   OH222443   2.223   0.856   4.286
 7501TIP3    H122444   2.187   0.924   4.229
 7501TIP3    H222445   2.202   0.774   4.240
 7502TIP3   OH222446   7.254   5.033   6.396
 7502TIP3    H122447   7.223   5.081   6.473
 7502TIP3    H222448   7.267   5.100   6.329
 7503TIP3   OH222449   0.807   5.866   5.300
 7503TIP3    H122450   0.827   5.905   5.215
 7503TIP3    H222451   0.858   5.785   5.301
 7504TIP3   OH222452   7.674   3.032   3.220
 7504TIP3    H122453   7.651   2.942   3.241
 7504TIP3    H222454   7.616   3.055   3.147
 7505TIP3   OH222455   4.049   0.367   6.815
 7505TIP3    H122456   4.057   0.421   6.736
 7505TIP3    H222457   3.957   0.340   6.816
 7506TIP3   OH222458   0.869   4.429   6.403
 7506TIP3    H122459   0.885   4.376   6.325
 7506TIP3    H222460   0.957   4.455   6.432
 7507TIP3   OH222461   4.038   3.101   5.251
 7507TIP3    H122462   3.995   3.122   5.333
 7507TIP3    H222463   3.975   3.127   5.183
 7508TIP3   OH222464   8.353   6.766   5.105
 7508TIP3    H122465   8.397   6.729   5.182
 7508TIP3    H222466   8.413   6.750   5.033
 7509TIP3   OH222467   6.893   4.606   2.175
 7509TIP3    H122468   6.958   4.676   2.170
 7509TIP3    H222469   6.943   4.526   2.154
 7510TIP3   OH222470   3.264   3.947   0.177
 7510TIP3    H122471   3.270   4.010   0.249
 7510TIP3    H222472   3.171   3.943   0.156
 7511TIP3   OH222473   0.323   5.693   5.710
 7511TIP3    H122474   0.304   5.777   5.668
 7511TIP3    H222475   0.315   5.712   5.804
 7512TIP3   OH222476   3.267   4.436   4.616
 7512TIP3    H122477   3.297   4.425   4.706
 7512TIP3    H222478   3.238   4.527   4.611
 7513TIP3   OH222479   1.200   2.693   4.577
 7513TIP3    H122480   1.226   2.755   4.508
 7513TIP3    H222481   1.163   2.748   4.646
 7514TIP3   OH222482   4.485   2.854   5.496
 7514TIP3    H122483   4.486   2.763   5.527
 7514TIP3    H222484   4.400   2.864   5.454
 7515TIP3   OH222485   2.358   6.959   3.926
 7515TIP3    H122486   2.368   6.973   4.021
 7515TIP3    H222487   2.287   7.018   3.901
 7516TIP3   OH222488   7.139   4.611   4.850
 7516TIP3    H122489   7.148   4.516   4.846
 7516TIP3    H222490   7.191   4.637   4.926
 7517TIP3   OH222491  -0.003   3.972   6.342
 7517TIP3    H122492  -0.014   3.992   6.435
 7517TIP3    H222493   0.038   4.050   6.305
 7518TIP3   OH222494   5.627   6.931   1.011
 7518TIP3    H122495   5.643   6.951   0.919
 7518TIP3    H222496   5.555   6.868   1.010
 7519TIP3   OH222497   7.225   4.887   2.087
 7519TIP3    H122498   7.167   4.892   2.163
 7519TIP3    H222499   7.267   4.972   2.082
 7520TIP3   OH222500   7.870   3.171   5.528
 7520TIP3    H122501   7.779   3.145   5.541
 7520TIP3    H222502   7.920   3.107   5.579
 7521TIP3   OH222503   2.694   6.914   4.030
 7521TIP3    H122504   2.770   6.888   4.083
 7521TIP3    H222505   2.730   6.973   3.964
 7522TIP3   OH222506   3.741   3.151   0.370
 7522TIP3    H122507   3.783   3.114   0.447
 7522TIP3    H222508   3.813   3.171   0.310
 7523TIP3   OH222509   6.738   1.800   6.026
 7523TIP3    H122510   6.804   1.732   6.015
 7523TIP3    H222511   6.660   1.766   5.982
 7524TIP3   OH222512   4.309   3.584   4.774
 7524TIP3    H122513   4.265   3.660   4.812
 7524TIP3    H222514   4.345   3.537   4.849
 7525TIP3   OH222515   5.157   2.331   2.290
 7525TIP3    H122516   5.155   2.421   2.324
 7525TIP3    H222517   5.235   2.328   2.236
 7526TIP3   OH222518   2.641   3.273   3.390
 7526TIP3    H122519   2.703   3.345   3.377
 7526TIP3    H222520   2.559   3.316   3.417
 7527TIP3   OH222521   4.174   5.598   4.697
 7527TIP3    H122522   4.235   5.527   4.679
 7527TIP3    H222523   4.140   5.623   4.611
 7528TIP3   OH222524   1.279   2.163   3.045
 7528TIP3    H122525   1.252   2.234   3.103
 7528TIP3    H222526   1.349   2.201   2.992
 7529TIP3   OH222527   8.291   4.113   5.066
 7529TIP3    H122528   8.291   4.051   5.139
 7529TIP3    H222529   8.296   4.058   4.988
 7530TIP3   OH222530   3.207   6.953   6.372
 7530TIP3    H122531   3.123   6.960   6.326
 7530TIP3    H222532   3.207   7.026   6.434
 7531TIP3   OH222533   0.410   2.114   3.645
 7531TIP3    H122534   0.470   2.060   3.696
 7531TIP3    H222535   0.434   2.204   3.668
 7532TIP3   OH222536   6.461   7.314   5.354
 7532TIP3    H122537   6.386   7.370   5.335
 7532TIP3    H222538   6.529   7.343   5.293
 7533TIP3   OH222539   4.033   0.271   1.678
 7533TIP3    H122540   3.997   0.325   1.607
 7533TIP3    H222541   3.961   0.213   1.703
 7534TIP3   OH222542   1.234   1.434   4.866
 7534TIP3    H122543   1.314   1.458   4.912
 7534TIP3    H222544   1.257   1.356   4.816
 7535TIP3   OH222545   3.204   1.194   0.103
 7535TIP3    H122546   3.194   1.287   0.084
 7535TIP3    H222547   3.140   1.176   0.172
 7536TIP3   OH222548   6.502   2.385   1.387
 7536TIP3    H122549   6.562   2.353   1.320
 7536TIP3    H222550   6.558   2.431   1.449
 7537TIP3   OH222551   4.294   3.162   6.279
 7537TIP3    H122552   4.307   3.146   6.186
 7537TIP3    H222553   4.224   3.101   6.305
 7538TIP3   OH222554   7.502   5.581   1.084
 7538TIP3    H122555   7.436   5.650   1.077
 7538TIP3    H222556   7.580   5.617   1.043
 7539TIP3   OH222557   2.438   1.851   1.894
 7539TIP3    H122558   2.356   1.802   1.881
 7539TIP3    H222559   2.484   1.802   1.962
 7540TIP3   OH222560   8.119   6.212   6.045
 7540TIP3    H122561   8.096   6.201   5.953
 7540TIP3    H222562   8.194   6.154   6.058
 7541TIP3   OH222563   4.335   4.538   2.106
 7541TIP3    H122564   4.369   4.623   2.079
 7541TIP3    H222565   4.394   4.508   2.175
 7542TIP3   OH222566   6.023   6.561   4.042
 7542TIP3    H122567   6.055   6.515   4.119
 7542TIP3    H222568   5.942   6.515   4.018
 7543TIP3   OH222569   0.767   0.606   5.301
 7543TIP3    H122570   0.787   0.560   5.382
 7543TIP3    H222571   0.671   0.601   5.293
 7544TIP3   OH222572   5.156   1.675   3.618
 7544TIP3    H122573   5.229   1.613   3.620
 7544TIP3    H222574   5.139   1.696   3.710
 7545TIP3   OH222575   1.834   1.558   5.849
 7545TIP3    H122576   1.909   1.530   5.796
 7545TIP3    H222577   1.817   1.648   5.821
 7546TIP3   OH222578   5.564   7.173   1.157
 7546TIP3    H122579   5.580   7.095   1.104
 7546TIP3    H222580   5.482   7.154   1.203
 7547TIP3   OH222581   3.285   1.205   5.777
 7547TIP3    H122582   3.277   1.117   5.815
 7547TIP3    H222583   3.338   1.254   5.839
 7548TIP3   OH222584   4.763   5.736   6.372
 7548TIP3    H122585   4.697   5.698   6.314
 7548TIP3    H222586   4.770   5.674   6.445
 7549TIP3   OH222587   0.901   2.725   6.191
 7549TIP3    H122588   0.985   2.686   6.216
 7549TIP3    H222589   0.837   2.684   6.248
 7550TIP3   OH222590   4.044   1.223   4.124
 7550TIP3    H122591   4.082   1.136   4.122
 7550TIP3    H222592   3.956   1.211   4.160
 7551TIP3   OH222593   2.397   5.760   1.348
 7551TIP3    H122594   2.403   5.844   1.395
 7551TIP3    H222595   2.354   5.782   1.265
 7552TIP3   OH222596   1.443   6.291   2.391
 7552TIP3    H122597   1.358   6.298   2.347
 7552TIP3    H222598   1.503   6.339   2.334
 7553TIP3   OH222599   1.561   3.258   2.115
 7553TIP3    H122600   1.546   3.171   2.152
 7553TIP3    H222601   1.656   3.268   2.114
 7554TIP3   OH222602   8.396   1.726   1.621
 7554TIP3    H122603   8.302   1.741   1.635
 7554TIP3    H222604   8.437   1.754   1.704
 7555TIP3   OH222605   3.576   6.924   5.604
 7555TIP3    H122606   3.559   7.012   5.571
 7555TIP3    H222607   3.527   6.919   5.686
 7556TIP3   OH222608   7.972   2.468   5.034
 7556TIP3    H122609   7.965   2.516   5.117
 7556TIP3    H222610   7.900   2.503   4.981
 7557TIP3   OH222611   4.358   0.136   1.259
 7557TIP3    H122612   4.282   0.183   1.224
 7557TIP3    H222613   4.416   0.124   1.184
 7558TIP3   OH222614   0.721   4.254   3.468
 7558TIP3    H122615   0.722   4.262   3.564
 7558TIP3    H222616   0.690   4.340   3.438
 7559TIP3   OH222617   2.912   6.478   2.661
 7559TIP3    H122618   2.940   6.569   2.667
 7559TIP3    H222619   2.888   6.466   2.569
 7560TIP3   OH222620   0.170   6.156   4.695
 7560TIP3    H122621   0.225   6.221   4.738
 7560TIP3    H222622   0.176   6.176   4.602
 7561TIP3   OH222623   3.868   0.010   4.414
 7561TIP3    H122624   3.858  -0.075   4.370
 7561TIP3    H222625   3.807   0.068   4.368
 7562TIP3   OH222626   2.593   7.331   6.002
 7562TIP3    H122627   2.569   7.325   6.095
 7562TIP3    H222628   2.641   7.413   5.995
 7563TIP3   OH222629   5.911   2.624   2.912
 7563TIP3    H122630   5.852   2.594   2.843
 7563TIP3    H222631   5.960   2.545   2.937
 7564TIP3   OH222632   4.642   2.245   2.880
 7564TIP3    H122633   4.721   2.283   2.841
 7564TIP3    H222634   4.572   2.305   2.857
 7565TIP3   OH222635   2.293   3.556   3.120
 7565TIP3    H122636   2.286   3.462   3.109
 7565TIP3    H222637   2.205   3.585   3.146
 7566TIP3   OH222638   0.327   0.982   2.887
 7566TIP3    H122639   0.333   0.896   2.929
 7566TIP3    H222640   0.331   1.044   2.959
 7567TIP3   OH222641   6.966   2.291   6.865
 7567TIP3    H122642   6.960   2.205   6.824
 7567TIP3    H222643   7.060   2.309   6.871
 7568TIP3   OH222644   7.961   7.617   4.446
 7568TIP3    H122645   8.006   7.621   4.530
 7568TIP3    H222646   8.022   7.656   4.384
 7569TIP3   OH222647   2.223   6.995   2.615
 7569TIP3    H122648   2.133   7.027   2.627
 7569TIP3    H222649   2.253   6.975   2.704
 7570TIP3   OH222650   6.562   5.575   2.719
 7570TIP3    H122651   6.591   5.650   2.667
 7570TIP3    H222652   6.631   5.562   2.784
 7571TIP3   OH222653   4.161   4.400   2.788
 7571TIP3    H122654   4.208   4.454   2.724
 7571TIP3    H222655   4.128   4.462   2.853
 7572TIP3   OH222656   6.753   6.241   0.381
 7572TIP3    H122657   6.698   6.299   0.434
 7572TIP3    H222658   6.820   6.210   0.442
 7573TIP3   OH222659   1.562   1.054   6.129
 7573TIP3    H122660   1.481   1.075   6.175
 7573TIP3    H222661   1.572   1.123   6.064
 7574TIP3   OH222662   7.331   3.718   2.153
 7574TIP3    H122663   7.236   3.719   2.160
 7574TIP3    H222664   7.349   3.734   2.061
 7575TIP3   OH222665   7.418   7.748   3.924
 7575TIP3    H122666   7.340   7.697   3.945
 7575TIP3    H222667   7.483   7.683   3.898
 7576TIP3   OH222668   2.625   6.772   5.412
 7576TIP3    H122669   2.554   6.791   5.350
 7576TIP3    H222670   2.698   6.827   5.383
 7577TIP3   OH222671   6.021   6.397   0.785
 7577TIP3    H122672   5.959   6.382   0.856
 7577TIP3    H222673   6.107   6.382   0.826
 7578TIP3   OH222674   7.602   4.336   6.342
 7578TIP3    H122675   7.521   4.373   6.308
 7578TIP3    H222676   7.640   4.288   6.268
 7579TIP3   OH222677   4.320   7.401   5.134
 7579TIP3    H122678   4.410   7.367   5.139
 7579TIP3    H222679   4.307   7.443   5.219
 7580TIP3   OH222680   1.651   5.493   0.351
 7580TIP3    H122681   1.732   5.444   0.366
 7580TIP3    H222682   1.678   5.568   0.299
 7581TIP3   OH222683   7.432   3.947   1.157
 7581TIP3    H122684   7.505   3.885   1.160
 7581TIP3    H222685   7.435   3.983   1.068
 7582TIP3   OH222686   5.381   3.055   2.992
 7582TIP3    H122687   5.474   3.052   3.014
 7582TIP3    H222688   5.336   3.067   3.075
 7583TIP3   OH222689   2.593   0.058   6.529
 7583TIP3    H122690   2.582  -0.033   6.502
 7583TIP3    H222691   2.636   0.053   6.614
 7584TIP3   OH222692   0.939   3.439   0.566
 7584TIP3    H122693   0.932   3.362   0.510
 7584TIP3    H222694   0.875   3.501   0.529
 7585TIP3   OH222695   6.668   3.351   2.203
 7585TIP3    H122696   6.738   3.317   2.148
 7585TIP3    H222697   6.638   3.275   2.253
 7586TIP3   OH222698   1.620   1.396   5.743
 7586TIP3    H122699   1.692   1.435   5.793
 7586TIP3    H222700   1.652   1.392   5.653
 7587TIP3   OH222701   2.871   0.829   1.807
 7587TIP3    H122702   2.796   0.822   1.748
 7587TIP3    H222703   2.923   0.751   1.788
 7588TIP3   OH222704   4.627   5.430   1.449
 7588TIP3    H122705   4.692   5.376   1.494
 7588TIP3    H222706   4.543   5.398   1.480
 7589TIP3   OH222707   5.732   2.060   4.772
 7589TIP3    H122708   5.734   1.971   4.808
 7589TIP3    H222709   5.822   2.078   4.745
 7590TIP3   OH222710   2.073   5.579   1.064
 7590TIP3    H122711   2.053   5.502   1.117
 7590TIP3    H222712   2.036   5.652   1.114
 7591TIP3   OH222713   6.114   4.806   3.171
 7591TIP3    H122714   6.170   4.876   3.203
 7591TIP3    H222715   6.154   4.779   3.088
 7592TIP3   OH222716   1.463   4.041   4.043
 7592TIP3    H122717   1.432   3.951   4.039
 7592TIP3    H222718   1.461   4.063   4.136
 7593TIP3   OH222719   6.990   2.857   6.366
 7593TIP3    H122720   6.934   2.907   6.426
 7593TIP3    H222721   7.045   2.923   6.324
 7594TIP3   OH222722   3.401   3.636   5.817
 7594TIP3    H122723   3.435   3.665   5.902
 7594TIP3    H222724   3.325   3.692   5.801
 7595TIP3   OH222725   0.258   5.997   2.906
 7595TIP3    H122726   0.170   6.019   2.875
 7595TIP3    H222727   0.302   6.082   2.915
 7596TIP3   OH222728   2.044   2.263   5.705
 7596TIP3    H122729   2.065   2.257   5.612
 7596TIP3    H222730   2.080   2.182   5.743
 7597TIP3   OH222731   4.695   3.634   1.597
 7597TIP3    H122732   4.707   3.722   1.634
 7597TIP3    H222733   4.649   3.586   1.665
 7598TIP3   OH222734   4.491   4.021   3.118
 7598TIP3    H122735   4.580   3.985   3.123
 7598TIP3    H222736   4.493   4.079   3.043
 7599TIP3   OH222737   2.394   1.219   4.971
 7599TIP3    H122738   2.370   1.217   5.063
 7599TIP3    H222739   2.342   1.150   4.931
 7600TIP3   OH222740   3.807   0.093   5.545
 7600TIP3    H122741   3.830   0.144   5.467
 7600TIP3    H222742   3.863   0.016   5.541
 7601TIP3   OH222743   2.334   4.252   5.529
 7601TIP3    H122744   2.353   4.289   5.615
 7601TIP3    H222745   2.288   4.170   5.548
 7602TIP3   OH222746   1.995   0.067   3.907
 7602TIP3    H122747   1.951  -0.018   3.905
 7602TIP3    H222748   1.942   0.120   3.966
 7603TIP3   OH222749   4.529   1.654   5.720
 7603TIP3    H122750   4.569   1.571   5.693
 7603TIP3    H222751   4.602   1.712   5.737
 7604TIP3   OH222752   3.675   5.256   0.121
 7604TIP3    H122753   3.633   5.279   0.037
 7604TIP3    H222754   3.627   5.307   0.186
 7605TIP3   OH222755   5.181   5.580   6.803
 7605TIP3    H122756   5.184   5.621   6.716
 7605TIP3    H222757   5.095   5.537   6.806
 7606TIP3   OH222758   4.742   6.385   1.739
 7606TIP3    H122759   4.759   6.396   1.646
 7606TIP3    H222760   4.658   6.340   1.744
 7607TIP3   OH222761   6.875   4.099   5.100
 7607TIP3    H122762   6.779   4.105   5.098
 7607TIP3    H222763   6.900   4.151   5.176
 7608TIP3   OH222764   7.429   4.299   2.752
 7608TIP3    H122765   7.522   4.322   2.743
 7608TIP3    H222766   7.406   4.327   2.841
 7609TIP3   OH222767   5.148   3.970   2.404
 7609TIP3    H122768   5.074   3.945   2.349
 7609TIP3    H222769   5.187   4.045   2.359
 7610TIP3   OH222770   4.290   3.383   6.689
 7610TIP3    H122771   4.376   3.410   6.722
 7610TIP3    H222772   4.284   3.422   6.602
 7611TIP3   OH222773   6.105   2.421   0.160
 7611TIP3    H122774   6.197   2.431   0.184
 7611TIP3    H222775   6.105   2.352   0.093
 7612TIP3   OH222776   8.094   3.391   0.393
 7612TIP3    H122777   8.000   3.386   0.376
 7612TIP3    H222778   8.109   3.327   0.463
 7613TIP3   OH222779   6.699   2.729   2.288
 7613TIP3    H122780   6.609   2.749   2.312
 7613TIP3    H222781   6.701   2.737   2.192
 7614TIP3   OH222782   5.749   1.404   1.919
 7614TIP3    H122783   5.661   1.388   1.884
 7614TIP3    H222784   5.796   1.445   1.846
 7615TIP3   OH222785   6.554   1.046   1.397
 7615TIP3    H122786   6.635   1.074   1.354
 7615TIP3    H222787   6.500   1.125   1.400
 7616TIP3   OH222788   1.889   7.841   1.119
 7616TIP3    H122789   1.913   7.833   1.211
 7616TIP3    H222790   1.868   7.751   1.092
 7617TIP3   OH222791   4.285   6.641   1.713
 7617TIP3    H122792   4.301   6.620   1.805
 7617TIP3    H222793   4.334   6.722   1.698
 7618TIP3   OH222794   3.058   6.064   0.967
 7618TIP3    H122795   2.966   6.041   0.984
 7618TIP3    H222796   3.060   6.089   0.875
 7619TIP3   OH222797   2.271   1.731   0.881
 7619TIP3    H122798   2.311   1.664   0.936
 7619TIP3    H222799   2.278   1.696   0.792
 7620TIP3   OH222800   7.128   3.875   1.101
 7620TIP3    H122801   7.092   3.795   1.139
 7620TIP3    H222802   7.138   3.856   1.008
 7621TIP3   OH222803   6.675   1.374   6.065
 7621TIP3    H122804   6.708   1.287   6.087
 7621TIP3    H222805   6.703   1.430   6.138
 7622TIP3   OH222806   0.712   6.798   5.550
 7622TIP3    H122807   0.778   6.863   5.528
 7622TIP3    H222808   0.730   6.725   5.491
 7623TIP3   OH222809   0.134   5.674   3.705
 7623TIP3    H122810   0.085   5.748   3.669
 7623TIP3    H222811   0.168   5.706   3.789
 7624TIP3   OH222812   4.293   0.309   2.960
 7624TIP3    H122813   4.227   0.248   2.993
 7624TIP3    H222814   4.373   0.286   3.007
 7625TIP3   OH222815   7.905   3.963   3.590
 7625TIP3    H122816   7.977   3.920   3.543
 7625TIP3    H222817   7.937   4.052   3.606
 7626TIP3   OH222818   8.001   2.221   4.749
 7626TIP3    H122819   7.975   2.217   4.841
 7626TIP3    H222820   7.943   2.158   4.705
 7627TIP3   OH222821   0.923   4.454   5.961
 7627TIP3    H122822   0.922   4.548   5.976
 7627TIP3    H222823   0.927   4.444   5.866
 7628TIP3   OH222824   7.155   7.338   4.329
 7628TIP3    H122825   7.083   7.384   4.372
 7628TIP3    H222826   7.162   7.255   4.376
 7629TIP3   OH222827   7.631   7.839   5.972
 7629TIP3    H122828   7.700   7.863   6.034
 7629TIP3    H222829   7.665   7.867   5.887
 7630TIP3   OH222830   5.298   2.699   5.631
 7630TIP3    H122831   5.231   2.755   5.669
 7630TIP3    H222832   5.281   2.701   5.537
 7631TIP3   OH222833   4.340   1.915   6.123
 7631TIP3    H122834   4.334   1.827   6.159
 7631TIP3    H222835   4.351   1.902   6.029
 7632TIP3   OH222836   5.928   1.884   1.032
 7632TIP3    H122837   5.884   1.943   0.970
 7632TIP3    H222838   5.981   1.942   1.086
 7633TIP3   OH222839   6.530   2.807   0.078
 7633TIP3    H122840   6.486   2.753   0.013
 7633TIP3    H222841   6.607   2.756   0.105
 7634TIP3   OH222842   3.083   2.628   2.671
 7634TIP3    H122843   2.990   2.631   2.648
 7634TIP3    H222844   3.091   2.688   2.746
 7635TIP3   OH222845   1.406  -0.006   0.758
 7635TIP3    H122846   1.456   0.074   0.771
 7635TIP3    H222847   1.382  -0.005   0.665
 7636TIP3   OH222848   7.218   0.300   1.448
 7636TIP3    H122849   7.235   0.334   1.361
 7636TIP3    H222850   7.281   0.229   1.459
 7637TIP3   OH222851   7.636   1.496   6.198
 7637TIP3    H122852   7.729   1.481   6.217
 7637TIP3    H222853   7.601   1.538   6.276
 7638TIP3   OH222854   5.451   0.574   5.970
 7638TIP3    H122855   5.430   0.538   6.056
 7638TIP3    H222856   5.411   0.661   5.969
 7639TIP3   OH222857   5.294   6.150   2.006
 7639TIP3    H122858   5.382   6.114   1.998
 7639TIP3    H222859   5.238   6.090   1.957
 7640TIP3   OH222860   2.795   0.081   3.176
 7640TIP3    H122861   2.700   0.078   3.163
 7640TIP3    H222862   2.812   0.169   3.209
 7641TIP3   OH222863   5.979   6.560   6.208
 7641TIP3    H122864   5.899   6.529   6.164
 7641TIP3    H222865   5.948   6.591   6.293
 7642TIP3   OH222866   3.979   4.635   3.430
 7642TIP3    H122867   3.992   4.729   3.417
 7642TIP3    H222868   3.887   4.620   3.409
 7643TIP3   OH222869   6.840   2.072   3.719
 7643TIP3    H122870   6.845   2.031   3.805
 7643TIP3    H222871   6.931   2.091   3.696
 7644TIP3   OH222872   4.709   1.489   6.815
 7644TIP3    H122873   4.712   1.580   6.845
 7644TIP3    H222874   4.620   1.460   6.832
 7645TIP3   OH222875   1.727   4.846   3.582
 7645TIP3    H122876   1.764   4.932   3.603
 7645TIP3    H222877   1.711   4.805   3.667
 7646TIP3   OH222878   5.021   0.185   1.147
 7646TIP3    H122879   4.951   0.162   1.086
 7646TIP3    H222880   5.091   0.220   1.092
 7647TIP3   OH222881   7.832   2.590   5.641
 7647TIP3    H122882   7.817   2.625   5.728
 7647TIP3    H222883   7.872   2.504   5.655
 7648TIP3   OH222884   3.052   1.579   6.425
 7648TIP3    H122885   3.045   1.531   6.343
 7648TIP3    H222886   2.961   1.590   6.454
 7649TIP3   OH222887   4.106   1.520   1.020
 7649TIP3    H122888   4.181   1.505   1.078
 7649TIP3    H222889   4.096   1.615   1.017
 7650TIP3   OH222890   7.401   6.606   0.475
 7650TIP3    H122891   7.382   6.661   0.399
 7650TIP3    H222892   7.409   6.517   0.440
 7651TIP3   OH222893   1.042   1.190   3.244
 7651TIP3    H122894   1.079   1.107   3.214
 7651TIP3    H222895   1.095   1.214   3.320
 7652TIP3   OH222896   4.993   2.735   4.944
 7652TIP3    H122897   5.058   2.763   5.009
 7652TIP3    H222898   5.044   2.719   4.865
 7653TIP3   OH222899   1.197   3.800   3.651
 7653TIP3    H122900   1.186   3.747   3.572
 7653TIP3    H222901   1.122   3.778   3.706
 7654TIP3   OH222902   3.666   1.865   5.061
 7654TIP3    H122903   3.588   1.814   5.042
 7654TIP3    H222904   3.652   1.899   5.150
 7655TIP3   OH222905   1.449   1.562   2.187
 7655TIP3    H122906   1.418   1.652   2.181
 7655TIP3    H222907   1.515   1.563   2.256
 7656TIP3   OH222908   5.187   3.309   3.367
 7656TIP3    H122909   5.096   3.287   3.347
 7656TIP3    H222910   5.226   3.226   3.396
 7657TIP3   OH222911   5.881   4.694   1.432
 7657TIP3    H122912   5.853   4.604   1.415
 7657TIP3    H222913   5.800   4.745   1.429
 7658TIP3   OH222914   7.480   6.462   4.878
 7658TIP3    H122915   7.391   6.442   4.907
 7658TIP3    H222916   7.472   6.544   4.830
 7659TIP3   OH222917   1.465   6.380   3.578
 7659TIP3    H122918   1.490   6.316   3.644
 7659TIP3    H222919   1.393   6.339   3.529
 7660TIP3   OH222920   4.090   6.396   1.879
 7660TIP3    H122921   4.091   6.301   1.890
 7660TIP3    H222922   4.013   6.425   1.927
 7661TIP3   OH222923   7.614   5.400   3.259
 7661TIP3    H122924   7.542   5.358   3.212
 7661TIP3    H222925   7.582   5.489   3.276
 7662TIP3   OH222926   3.957   4.508   5.154
 7662TIP3    H122927   3.883   4.454   5.183
 7662TIP3    H222928   3.935   4.532   5.064
 7663TIP3   OH222929   4.903   5.552   2.595
 7663TIP3    H122930   4.948   5.636   2.593
 7663TIP3    H222931   4.878   5.535   2.504
 7664TIP3   OH222932   1.687   3.475   4.170
 7664TIP3    H122933   1.709   3.382   4.172
 7664TIP3    H222934   1.684   3.497   4.076
 7665TIP3   OH222935   4.514   2.742   0.900
 7665TIP3    H122936   4.500   2.776   0.988
 7665TIP3    H222937   4.565   2.810   0.856
 7666TIP3   OH222938   3.484   2.238   6.723
 7666TIP3    H122939   3.486   2.259   6.817
 7666TIP3    H222940   3.435   2.156   6.718
 7667TIP3   OH222941   6.249   0.217   0.384
 7667TIP3    H122942   6.256   0.146   0.448
 7667TIP3    H222943   6.175   0.193   0.329
 7668TIP3   OH222944   2.709   4.999   3.368
 7668TIP3    H122945   2.701   5.020   3.275
 7668TIP3    H222946   2.718   4.904   3.370
 7669TIP3   OH222947   0.565   7.463   2.846
 7669TIP3    H122948   0.647   7.426   2.812
 7669TIP3    H222949   0.534   7.399   2.910
 7670TIP3   OH222950   0.327   2.322   1.166
 7670TIP3    H122951   0.289   2.251   1.217
 7670TIP3    H222952   0.349   2.282   1.082
 7671TIP3   OH222953   5.590   0.098   3.085
 7671TIP3    H122954   5.616   0.014   3.047
 7671TIP3    H222955   5.595   0.085   3.179
 7672TIP3   OH222956   5.479   5.781   6.146
 7672TIP3    H122957   5.548   5.717   6.130
 7672TIP3    H222958   5.499   5.853   6.087
 7673TIP3   OH222959   3.720   7.201   4.442
 7673TIP3    H122960   3.786   7.257   4.483
 7673TIP3    H222961   3.770   7.133   4.396
 7674TIP3   OH222962   3.857   2.592   1.931
 7674TIP3    H122963   3.860   2.609   2.025
 7674TIP3    H222964   3.934   2.538   1.914
 7675TIP3   OH222965   8.263   2.686   4.916
 7675TIP3    H122966   8.352   2.656   4.899
 7675TIP3    H222967   8.206   2.617   4.882
 7676TIP3   OH222968   0.046   4.796   5.305
 7676TIP3    H122969   0.025   4.863   5.240
 7676TIP3    H222970   0.139   4.808   5.322
 7677TIP3   OH222971   3.246   1.909   1.642
 7677TIP3    H122972   3.196   1.937   1.566
 7677TIP3    H222973   3.201   1.949   1.716
 7678TIP3   OH222974   0.007   2.616   1.147
 7678TIP3    H122975   0.098   2.587   1.135
 7678TIP3    H222976   0.010   2.670   1.226
 7679TIP3   OH222977   4.008   2.220   4.972
 7679TIP3    H122978   3.943   2.175   4.918
 7679TIP3    H222979   3.989   2.313   4.960
 7680TIP3   OH222980   1.089   4.749   1.034
 7680TIP3    H122981   1.055   4.668   1.071
 7680TIP3    H222982   1.103   4.807   1.109
 7681TIP3   OH222983   6.226   7.004   0.537
 7681TIP3    H122984   6.181   7.088   0.547
 7681TIP3    H222985   6.319   7.026   0.537
 7682TIP3   OH222986   5.054   4.809   2.174
 7682TIP3    H122987   5.028   4.795   2.265
 7682TIP3    H222988   5.146   4.835   2.179
 7683TIP3   OH222989   4.215   5.191   1.414
 7683TIP3    H122990   4.278   5.167   1.481
 7683TIP3    H222991   4.131   5.195   1.460
 7684TIP3   OH222992   5.323   7.045   2.478
 7684TIP3    H122993   5.317   7.031   2.572
 7684TIP3    H222994   5.276   7.128   2.463
 7685TIP3   OH222995   5.143   0.118   5.225
 7685TIP3    H122996   5.184   0.193   5.181
 7685TIP3    H222997   5.079   0.158   5.284
 7686TIP3   OH222998   2.734   7.607   5.969
 7686TIP3    H122999   2.774   7.693   5.980
 7686TIP3    H223000   2.662   7.605   6.032
 7687TIP3   OH223001   7.399   1.650   2.759
 7687TIP3    H123002   7.328   1.587   2.754
 7687TIP3    H223003   7.363   1.724   2.809
 7688TIP3   OH223004   6.448   3.507   4.193
 7688TIP3    H123005   6.510   3.507   4.265
 7688TIP3    H223006   6.365   3.533   4.232
 7689TIP3   OH223007   6.558   5.860   0.683
 7689TIP3    H123008   6.617   5.853   0.758
 7689TIP3    H223009   6.501   5.783   0.690
 7690TIP3   OH223010   0.764   3.870   1.761
 7690TIP3    H123011   0.733   3.955   1.791
 7690TIP3    H223012   0.809   3.888   1.679
 7691TIP3   OH223013   5.677   1.805   6.249
 7691TIP3    H123014   5.730   1.885   6.247
 7691TIP3    H223015   5.691   1.770   6.337
 7692TIP3   OH223016   3.529   7.185   5.530
 7692TIP3    H123017   3.467   7.212   5.599
 7692TIP3    H223018   3.579   7.264   5.511
 7693TIP3   OH223019   6.362   3.799   2.715
 7693TIP3    H123020   6.454   3.804   2.738
 7693TIP3    H223021   6.337   3.708   2.731
 7694TIP3   OH223022   7.119   4.851   6.873
 7694TIP3    H123023   7.208   4.818   6.875
 7694TIP3    H223024   7.074   4.796   6.809
 7695TIP3   OH223025   5.399   0.266   1.423
 7695TIP3    H123026   5.470   0.218   1.382
 7695TIP3    H223027   5.421   0.358   1.408
 7696TIP3   OH223028   7.007   5.056   3.916
 7696TIP3    H123029   7.097   5.080   3.938
 7696TIP3    H223030   6.959   5.065   3.999
 7697TIP3   OH223031   1.981   3.987   1.239
 7697TIP3    H123032   2.041   3.960   1.308
 7697TIP3    H223033   1.927   3.910   1.223
 7698TIP3   OH223034   5.628   4.547   6.779
 7698TIP3    H123035   5.597   4.586   6.697
 7698TIP3    H223036   5.620   4.453   6.764
 7699TIP3   OH223037   5.939   3.621   0.043
 7699TIP3    H123038   5.997   3.646   0.115
 7699TIP3    H223039   5.961   3.682  -0.027
 7700TIP3   OH223040   5.116   4.844   4.451
 7700TIP3    H123041   5.050   4.896   4.496
 7700TIP3    H223042   5.098   4.754   4.479
 7701TIP3   OH223043   3.628   7.432   5.465
 7701TIP3    H123044   3.544   7.447   5.422
 7701TIP3    H223045   3.693   7.465   5.403
 7702TIP3   OH223046   0.706   7.684   1.316
 7702TIP3    H123047   0.650   7.761   1.311
 7702TIP3    H223048   0.646   7.610   1.311
 7703TIP3   OH223049   6.166   3.554   4.230
 7703TIP3    H123050   6.093   3.499   4.257
 7703TIP3    H223051   6.141   3.643   4.255
 7704TIP3   OH223052   3.218   7.117   6.851
 7704TIP3    H123053   3.273   7.097   6.776
 7704TIP3    H223054   3.246   7.055   6.919
 7705TIP3   OH223055   7.712   0.181   5.280
 7705TIP3    H123056   7.711   0.267   5.324
 7705TIP3    H223057   7.802   0.171   5.250
 7706TIP3   OH223058   0.188   0.781   3.704
 7706TIP3    H123059   0.125   0.822   3.645
 7706TIP3    H223060   0.235   0.855   3.744
 7707TIP3   OH223061   5.032   5.868   1.255
 7707TIP3    H123062   5.094   5.939   1.269
 7707TIP3    H223063   5.002   5.845   1.343
 7708TIP3   OH223064   6.940   1.510   2.318
 7708TIP3    H123065   6.982   1.424   2.311
 7708TIP3    H223066   6.969   1.543   2.403
 7709TIP3   OH223067   4.363   4.158   6.732
 7709TIP3    H123068   4.394   4.099   6.663
 7709TIP3    H223069   4.442   4.178   6.783
 7710TIP3   OH223070   2.398   7.412   4.977
 7710TIP3    H123071   2.410   7.371   4.891
 7710TIP3    H223072   2.395   7.339   5.038
 7711TIP3   OH223073   6.881   4.485   3.260
 7711TIP3    H123074   6.926   4.569   3.251
 7711TIP3    H223075   6.942   4.430   3.309
 7712TIP3   OH223076   8.162   2.218   5.986
 7712TIP3    H123077   8.220   2.221   6.061
 7712TIP3    H223078   8.217   2.240   5.911
 7713TIP3   OH223079   8.365   1.173   1.329
 7713TIP3    H123080   8.425   1.164   1.256
 7713TIP3    H223081   8.283   1.203   1.289
 7714TIP3   OH223082   7.131   4.166   1.207
 7714TIP3    H123083   7.132   4.217   1.287
 7714TIP3    H223084   7.198   4.207   1.151
 7715TIP3   OH223085   4.213   7.289   3.953
 7715TIP3    H123086   4.150   7.234   3.997
 7715TIP3    H223087   4.261   7.230   3.895
 7716TIP3   OH223088   0.885   4.635   1.173
 7716TIP3    H123089   0.871   4.619   1.267
 7716TIP3    H223090   0.840   4.718   1.156
 7717TIP3   OH223091   7.593   5.146   6.237
 7717TIP3    H123092   7.509   5.102   6.250
 7717TIP3    H223093   7.646   5.120   6.312
 7718TIP3   OH223094   2.686   2.556   6.192
 7718TIP3    H123095   2.705   2.467   6.162
 7718TIP3    H223096   2.592   2.566   6.180
 7719TIP3   OH223097   7.089   0.092   0.008
 7719TIP3    H123098   7.180   0.089   0.037
 7719TIP3    H223099   7.056   0.003   0.025
 7720TIP3   OH223100   1.787   1.632   2.566
 7720TIP3    H123101   1.830   1.557   2.525
 7720TIP3    H223102   1.718   1.657   2.503
 7721TIP3   OH223103   5.390   5.059   2.979
 7721TIP3    H123104   5.426   4.974   2.952
 7721TIP3    H223105   5.447   5.089   3.049
 7722TIP3   OH223106   5.546   2.040   4.553
 7722TIP3    H123107   5.612   2.036   4.622
 7722TIP3    H223108   5.591   2.007   4.475
 7723TIP3   OH223109   5.109   6.716   4.467
 7723TIP3    H123110   5.063   6.791   4.505
 7723TIP3    H223111   5.080   6.715   4.375
 7724TIP3   OH223112   1.349   0.587   4.924
 7724TIP3    H123113   1.286   0.544   4.866
 7724TIP3    H223114   1.432   0.581   4.878
 7725TIP3   OH223115   2.070   7.446   4.083
 7725TIP3    H123116   2.073   7.357   4.117
 7725TIP3    H223117   1.992   7.485   4.124
 7726TIP3   OH223118   5.274   0.096   0.306
 7726TIP3    H123119   5.366   0.120   0.314
 7726TIP3    H223120   5.249   0.123   0.218
 7727TIP3   OH223121   6.441   1.989   2.812
 7727TIP3    H123122   6.350   2.017   2.820
 7727TIP3    H223123   6.492   2.070   2.821
 7728TIP3   OH223124   7.302   5.926   6.181
 7728TIP3    H123125   7.367   5.861   6.157
 7728TIP3    H223126   7.326   6.004   6.131
 7729TIP3   OH223127   1.781   0.219   5.632
 7729TIP3    H123128   1.765   0.135   5.589
 7729TIP3    H223129   1.732   0.282   5.580
 7730TIP3   OH223130   5.824   2.041   6.255
 7730TIP3    H123131   5.920   2.048   6.256
 7730TIP3    H223132   5.794   2.106   6.318
 7731TIP3   OH223133   4.994   7.344   0.854
 7731TIP3    H123134   5.067   7.354   0.792
 7731TIP3    H223135   4.955   7.260   0.831
 7732TIP3   OH223136   2.479   4.858   1.756
 7732TIP3    H123137   2.566   4.836   1.722
 7732TIP3    H223138   2.433   4.775   1.758
 7733TIP3   OH223139   5.386   2.857   4.088
 7733TIP3    H123140   5.391   2.907   4.007
 7733TIP3    H223141   5.350   2.772   4.061
 7734TIP3   OH223142   6.724   5.552   2.261
 7734TIP3    H123143   6.783   5.518   2.194
 7734TIP3    H223144   6.731   5.647   2.255
 7735TIP3   OH223145   1.497   4.387   5.725
 7735TIP3    H123146   1.442   4.349   5.658
 7735TIP3    H223147   1.439   4.400   5.800
 7736TIP3   OH223148   2.284   3.638   1.298
 7736TIP3    H123149   2.247   3.588   1.371
 7736TIP3    H223150   2.240   3.604   1.220
 7737TIP3   OH223151   1.734   3.256   3.849
 7737TIP3    H123152   1.724   3.161   3.859
 7737TIP3    H223153   1.828   3.272   3.862
 7738TIP3   OH223154   8.222   3.626   0.414
 7738TIP3    H123155   8.269   3.644   0.332
 7738TIP3    H223156   8.191   3.536   0.404
 7739TIP3   OH223157   5.762   6.895   0.059
 7739TIP3    H123158   5.809   6.821   0.099
 7739TIP3    H223159   5.731   6.860  -0.025
 7740TIP3   OH223160   5.397   2.919   2.148
 7740TIP3    H123161   5.324   2.894   2.204
 7740TIP3    H223162   5.440   2.991   2.194
 7741TIP3   OH223163   3.088   5.505   6.391
 7741TIP3    H123164   3.031   5.491   6.315
 7741TIP3    H223165   3.054   5.585   6.432
 7742TIP3   OH223166   0.257   0.048   6.379
 7742TIP3    H123167   0.274   0.060   6.285
 7742TIP3    H223168   0.228  -0.043   6.386
 7743TIP3   OH223169   0.526   3.965   5.066
 7743TIP3    H123170   0.440   3.937   5.099
 7743TIP3    H223171   0.578   3.981   5.144
 7744TIP3   OH223172   1.898   7.871   1.398
 7744TIP3    H123173   1.973   7.849   1.453
 7744TIP3    H223174   1.919   7.958   1.364
 7745TIP3   OH223175   1.152   3.129   5.111
 7745TIP3    H123176   1.185   3.082   5.187
 7745TIP3    H223177   1.223   3.123   5.047
 7746TIP3   OH223178   7.238   7.513   4.704
 7746TIP3    H123179   7.170   7.515   4.636
 7746TIP3    H223180   7.215   7.438   4.759
 7747TIP3   OH223181   8.247   6.330   1.795
 7747TIP3    H123182   8.182   6.382   1.842
 7747TIP3    H223183   8.330   6.374   1.812
 7748TIP3   OH223184   4.545   1.010   5.270
 7748TIP3    H123185   4.488   1.087   5.271
 7748TIP3    H223186   4.512   0.955   5.341
 7749TIP3   OH223187   2.216   4.238   3.894
 7749TIP3    H123188   2.306   4.222   3.865
 7749TIP3    H223189   2.224   4.253   3.988
 7750TIP3   OH223190   4.452   1.900   3.724
 7750TIP3    H123191   4.539   1.909   3.687
 7750TIP3    H223192   4.451   1.959   3.799
 7751TIP3   OH223193   2.951   2.052   6.523
 7751TIP3    H123194   2.960   2.140   6.559
 7751TIP3    H223195   3.010   1.998   6.575
 7752TIP3   OH223196   6.664   4.277   3.223
 7752TIP3    H123197   6.713   4.351   3.259
 7752TIP3    H223198   6.596   4.260   3.288
 7753TIP3   OH223199   0.181   4.689   0.271
 7753TIP3    H123200   0.250   4.686   0.204
 7753TIP3    H223201   0.225   4.660   0.351
 7754TIP3   OH223202   8.128   5.365   6.665
 7754TIP3    H123203   8.093   5.299   6.725
 7754TIP3    H223204   8.071   5.441   6.676
 7755TIP3   OH223205   4.607   2.066   3.935
 7755TIP3    H123206   4.517   2.098   3.938
 7755TIP3    H223207   4.621   2.027   4.021
 7756TIP3   OH223208   5.337   4.219   1.396
 7756TIP3    H123209   5.355   4.154   1.327
 7756TIP3    H223210   5.242   4.215   1.408
 7757TIP3   OH223211   2.826   3.952   2.400
 7757TIP3    H123212   2.885   4.011   2.353
 7757TIP3    H223213   2.750   3.943   2.343
 7758TIP3   OH223214   7.344   1.294   4.194
 7758TIP3    H123215   7.363   1.253   4.110
 7758TIP3    H223216   7.347   1.222   4.257
 7759TIP3   OH223217   5.334   0.976   1.056
 7759TIP3    H123218   5.374   1.061   1.072
 7759TIP3    H223219   5.244   0.996   1.029
 7760TIP3   OH223220   2.262   2.946   0.297
 7760TIP3    H123221   2.332   3.009   0.314
 7760TIP3    H223222   2.285   2.906   0.213
 7761TIP3   OH223223   3.218   0.958   6.226
 7761TIP3    H123224   3.217   0.969   6.321
 7761TIP3    H223225   3.176   0.873   6.212
 7762TIP3   OH223226   8.022   1.582   0.586
 7762TIP3    H123227   7.929   1.582   0.564
 7762TIP3    H223228   8.037   1.667   0.625
 7763TIP3   OH223229   4.510   1.518   6.582
 7763TIP3    H123230   4.591   1.468   6.599
 7763TIP3    H223231   4.468   1.523   6.668
 7764TIP3   OH223232   6.218   0.646   3.057
 7764TIP3    H123233   6.313   0.645   3.066
 7764TIP3    H223234   6.198   0.565   3.009
 7765TIP3   OH223235   3.805   6.478   1.564
 7765TIP3    H123236   3.763   6.563   1.550
 7765TIP3    H223237   3.779   6.426   1.488
 7766TIP3   OH223238   0.473   2.076   0.719
 7766TIP3    H123239   0.402   2.015   0.699
 7766TIP3    H223240   0.469   2.142   0.650
 7767TIP3   OH223241   3.352   6.927   0.538
 7767TIP3    H123242   3.357   6.847   0.591
 7767TIP3    H223243   3.438   6.932   0.497
 7768TIP3   OH223244   7.503   1.943   1.248
 7768TIP3    H123245   7.471   1.886   1.178
 7768TIP3    H223246   7.512   1.886   1.324
 7769TIP3   OH223247   5.991   2.513   6.668
 7769TIP3    H123248   6.056   2.449   6.642
 7769TIP3    H223249   5.958   2.481   6.752
 7770TIP3   OH223250   4.866   3.203   6.204
 7770TIP3    H123251   4.926   3.268   6.167
 7770TIP3    H223252   4.829   3.246   6.281
 7771TIP3   OH223253   2.017   3.834   4.310
 7771TIP3    H123254   1.981   3.825   4.221
 7771TIP3    H223255   2.041   3.745   4.335
 7772TIP3   OH223256   0.540   3.401   2.411
 7772TIP3    H123257   0.454   3.359   2.403
 7772TIP3    H223258   0.568   3.382   2.500
 7773TIP3   OH223259   4.970   6.648   3.213
 7773TIP3    H123260   4.905   6.630   3.145
 7773TIP3    H223261   4.937   6.600   3.289
 7774TIP3   OH223262   7.414   1.689   3.996
 7774TIP3    H123263   7.448   1.676   4.085
 7774TIP3    H223264   7.492   1.688   3.940
 7775TIP3   OH223265   3.625   5.714   1.434
 7775TIP3    H123266   3.530   5.708   1.436
 7775TIP3    H223267   3.653   5.686   1.521
 7776TIP3   OH223268   5.985   2.079   4.114
 7776TIP3    H123269   6.056   2.027   4.152
 7776TIP3    H223270   6.026   2.162   4.091
 7777TIP3   OH223271   2.991   7.300   2.189
 7777TIP3    H123272   2.978   7.389   2.221
 7777TIP3    H223273   3.059   7.264   2.245
 7778TIP3   OH223274   8.289   6.413   0.333
 7778TIP3    H123275   8.379   6.442   0.319
 7778TIP3    H223276   8.288   6.379   0.423
 7779TIP3   OH223277   2.228   2.772   4.421
 7779TIP3    H123278   2.199   2.771   4.512
 7779TIP3    H223279   2.293   2.842   4.417
 7780TIP3   OH223280   8.143   1.767   2.342
 7780TIP3    H123281   8.128   1.861   2.331
 7780TIP3    H223282   8.064   1.726   2.308
 7781TIP3   OH223283   7.464   6.782   1.408
 7781TIP3    H123284   7.553   6.767   1.439
 7781TIP3    H223285   7.449   6.875   1.423
 7782TIP3   OH223286   1.420   5.223   3.159
 7782TIP3    H123287   1.457   5.305   3.192
 7782TIP3    H223288   1.485   5.157   3.179
 7783TIP3   OH223289   5.923   5.832   0.921
 7783TIP3    H123290   6.015   5.813   0.939
 7783TIP3    H223291   5.908   5.918   0.960
 7784TIP3   OH223292   0.501   1.166   5.654
 7784TIP3    H123293   0.562   1.093   5.645
 7784TIP3    H223294   0.550   1.242   5.622
 7785TIP3   OH223295   7.995   2.524   3.634
 7785TIP3    H123296   7.982   2.450   3.575
 7785TIP3    H223297   8.088   2.544   3.627
 7786TIP3   OH223298   4.075   2.429   1.876
 7786TIP3    H123299   4.145   2.483   1.838
 7786TIP3    H223300   4.059   2.362   1.810
 7787TIP3   OH223301   2.901   4.942   4.304
 7787TIP3    H123302   2.844   4.921   4.378
 7787TIP3    H223303   2.981   4.894   4.320
 7788TIP3   OH223304   4.487   3.267   2.191
 7788TIP3    H123305   4.398   3.274   2.157
 7788TIP3    H223306   4.481   3.300   2.281
 7789TIP3   OH223307   3.527   3.160   6.867
 7789TIP3    H123308   3.461   3.108   6.822
 7789TIP3    H223309   3.526   3.245   6.822
 7790TIP3   OH223310   6.042   3.533   0.653
 7790TIP3    H123311   6.100   3.477   0.704
 7790TIP3    H223312   5.979   3.566   0.718
 7791TIP3   OH223313   8.254   5.710   4.073
 7791TIP3    H123314   8.348   5.704   4.092
 7791TIP3    H223315   8.238   5.804   4.059
 7792TIP3   OH223316   8.350   6.397   6.035
 7792TIP3    H123317   8.415   6.327   6.047
 7792TIP3    H223318   8.266   6.352   6.037
 7793TIP3   OH223319   4.579   2.080   4.758
 7793TIP3    H123320   4.593   2.026   4.680
 7793TIP3    H223321   4.506   2.137   4.735
 7794TIP3   OH223322   4.064   3.472   5.318
 7794TIP3    H123323   3.971   3.480   5.294
 7794TIP3    H223324   4.064   3.472   5.414
 7795TIP3   OH223325   2.891   3.297   1.024
 7795TIP3    H123326   2.942   3.251   0.957
 7795TIP3    H223327   2.958   3.334   1.083
 7796TIP3   OH223328   3.441   0.460   2.118
 7796TIP3    H123329   3.433   0.380   2.067
 7796TIP3    H223330   3.486   0.433   2.198
 7797TIP3   OH223331   6.116   1.679   4.389
 7797TIP3    H123332   6.023   1.691   4.408
 7797TIP3    H223333   6.137   1.750   4.328
 7798TIP3   OH223334   4.776   1.772   0.546
 7798TIP3    H123335   4.739   1.726   0.470
 7798TIP3    H223336   4.794   1.703   0.609
 7799TIP3   OH223337   5.188   5.725   0.981
 7799TIP3    H123338   5.231   5.726   0.896
 7799TIP3    H223339   5.251   5.765   1.041
 7800TIP3   OH223340   4.675   4.442   1.713
 7800TIP3    H123341   4.640   4.526   1.685
 7800TIP3    H223342   4.604   4.380   1.695
 7801TIP3   OH223343   1.898   0.746   0.027
 7801TIP3    H123344   1.901   0.815   0.093
 7801TIP3    H223345   1.989   0.719   0.015
 7802TIP3   OH223346   2.122   4.958   4.980
 7802TIP3    H123347   2.162   5.035   4.941
 7802TIP3    H223348   2.180   4.935   5.053
 7803TIP3   OH223349   6.658   2.736   2.991
 7803TIP3    H123350   6.626   2.826   2.990
 7803TIP3    H223351   6.623   2.699   3.072
 7804TIP3   OH223352   0.866   5.025   5.352
 7804TIP3    H123353   0.901   4.945   5.390
 7804TIP3    H223354   0.795   4.996   5.295
 7805TIP3   OH223355   6.194   4.133   4.670
 7805TIP3    H123356   6.210   4.150   4.763
 7805TIP3    H223357   6.221   4.042   4.658
 7806TIP3   OH223358   6.206   1.853   0.028
 7806TIP3    H123359   6.166   1.920   0.084
 7806TIP3    H223360   6.282   1.896  -0.011
 7807TIP3   OH223361   7.465   2.949   4.584
 7807TIP3    H123362   7.513   2.873   4.617
 7807TIP3    H223363   7.508   3.024   4.625
 7808TIP3   OH223364   3.382   3.506   2.766
 7808TIP3    H123365   3.363   3.422   2.809
 7808TIP3    H223366   3.303   3.558   2.781
 7809TIP3   OH223367   7.879   5.636   3.189
 7809TIP3    H123368   7.810   5.699   3.166
 7809TIP3    H223369   7.878   5.572   3.117
 7810TIP3   OH223370   3.517   2.580   3.336
 7810TIP3    H123371   3.601   2.618   3.311
 7810TIP3    H223372   3.505   2.506   3.276
 7811TIP3   OH223373   4.547   0.228   2.149
 7811TIP3    H123374   4.580   0.293   2.211
 7811TIP3    H223375   4.611   0.157   2.153
 7812TIP3   OH223376   1.301   3.248   5.377
 7812TIP3    H123377   1.359   3.201   5.317
 7812TIP3    H223378   1.295   3.191   5.454
 7813TIP3   OH223379   3.635   6.605   3.921
 7813TIP3    H123380   3.572   6.622   3.851
 7813TIP3    H223381   3.637   6.686   3.972
 7814TIP3   OH223382   5.093   0.429   3.587
 7814TIP3    H123383   5.147   0.505   3.608
 7814TIP3    H223384   5.142   0.354   3.622
 7815TIP3   OH223385   7.450   6.708   4.798
 7815TIP3    H123386   7.523   6.762   4.828
 7815TIP3    H223387   7.374   6.742   4.845
 7816TIP3   OH223388   7.989   6.821   2.911
 7816TIP3    H123389   7.918   6.809   2.974
 7816TIP3    H223390   7.948   6.807   2.826
 7817TIP3   OH223391   3.132   2.815   5.778
 7817TIP3    H123392   3.139   2.803   5.683
 7817TIP3    H223393   3.218   2.789   5.811
 7818TIP3   OH223394   7.440   0.637   5.902
 7818TIP3    H123395   7.347   0.615   5.890
 7818TIP3    H223396   7.482   0.554   5.924
 7819TIP3   OH223397   6.794   7.448   0.870
 7819TIP3    H123398   6.858   7.377   0.872
 7819TIP3    H223399   6.718   7.413   0.917
 7820TIP3   OH223400   7.222   4.345   4.839
 7820TIP3    H123401   7.313   4.335   4.812
 7820TIP3    H223402   7.171   4.301   4.771
 7821TIP3   OH223403   5.574   0.799   1.190
 7821TIP3    H123404   5.543   0.777   1.278
 7821TIP3    H223405   5.507   0.858   1.155
 7822TIP3   OH223406   5.619   1.112   1.735
 7822TIP3    H123407   5.701   1.094   1.781
 7822TIP3    H223408   5.551   1.102   1.801
 7823TIP3   OH223409   1.316   4.063   4.662
 7823TIP3    H123410   1.367   4.125   4.609
 7823TIP3    H223411   1.231   4.106   4.671
 7824TIP3   OH223412   5.326   7.629   3.381
 7824TIP3    H123413   5.307   7.587   3.464
 7824TIP3    H223414   5.415   7.663   3.390
 7825TIP3   OH223415   6.110   5.848   6.170
 7825TIP3    H123416   6.161   5.838   6.090
 7825TIP3    H223417   6.157   5.797   6.236
 7826TIP3   OH223418   6.922   1.214   0.041
 7826TIP3    H123419   6.962   1.266   0.111
 7826TIP3    H223420   6.854   1.164   0.086
 7827TIP3   OH223421   2.779   7.344   0.580
 7827TIP3    H123422   2.755   7.302   0.662
 7827TIP3    H223423   2.700   7.389   0.552
 7828TIP3   OH223424   2.594   7.579   4.287
 7828TIP3    H123425   2.513   7.629   4.283
 7828TIP3    H223426   2.649   7.617   4.218
 7829TIP3   OH223427   6.772   7.599   6.790
 7829TIP3    H123428   6.834   7.660   6.830
 7829TIP3    H223429   6.687   7.622   6.828
 7830TIP3   OH223430   2.723   6.076   0.664
 7830TIP3    H123431   2.695   6.134   0.593
 7830TIP3    H223432   2.730   5.990   0.623
 7831TIP3   OH223433   7.537   1.260   1.735
 7831TIP3    H123434   7.456   1.255   1.787
 7831TIP3    H223435   7.569   1.349   1.750
 7832TIP3   OH223436   4.324   6.430   1.203
 7832TIP3    H123437   4.411   6.463   1.181
 7832TIP3    H223438   4.308   6.460   1.292
 7833TIP3   OH223439   2.429   7.174   2.503
 7833TIP3    H123440   2.415   7.251   2.558
 7833TIP3    H223441   2.355   7.116   2.523
 7834TIP3   OH223442   1.541   2.082   5.437
 7834TIP3    H123443   1.558   2.133   5.357
 7834TIP3    H223444   1.612   2.107   5.497
 7835TIP3   OH223445   2.611   0.656   0.795
 7835TIP3    H123446   2.628   0.728   0.856
 7835TIP3    H223447   2.541   0.605   0.836
 7836TIP3   OH223448   3.419   5.991   1.333
 7836TIP3    H123449   3.499   5.981   1.281
 7836TIP3    H223450   3.349   5.959   1.275
 7837TIP3   OH223451   2.413   7.460   3.983
 7837TIP3    H123452   2.419   7.444   4.077
 7837TIP3    H223453   2.469   7.393   3.943
 7838TIP3   OH223454   2.518   1.426   6.799
 7838TIP3    H123455   2.523   1.514   6.837
 7838TIP3    H223456   2.425   1.414   6.780
 7839TIP3   OH223457   3.037   7.628   5.888
 7839TIP3    H123458   2.997   7.665   5.967
 7839TIP3    H223459   2.985   7.662   5.816
 7840TIP3   OH223460   2.398   6.878   5.895
 7840TIP3    H123461   2.482   6.835   5.882
 7840TIP3    H223462   2.413   6.969   5.868
 7841TIP3   OH223463   7.902   1.146   3.230
 7841TIP3    H123464   7.860   1.104   3.155
 7841TIP3    H223465   7.912   1.238   3.204
 7842TIP3   OH223466   0.878   6.576   2.431
 7842TIP3    H123467   0.845   6.486   2.440
 7842TIP3    H223468   0.957   6.567   2.378
 7843TIP3   OH223469   0.691   3.551   6.011
 7843TIP3    H123470   0.777   3.588   6.032
 7843TIP3    H223471   0.660   3.514   6.093
 7844TIP3   OH223472   2.052   6.372   4.255
 7844TIP3    H123473   2.058   6.438   4.186
 7844TIP3    H223474   2.097   6.411   4.330
 7845TIP3   OH223475   1.006   2.056   0.348
 7845TIP3    H123476   0.921   2.098   0.357
 7845TIP3    H223477   1.034   2.038   0.438
 7846TIP3   OH223478   3.173   4.139   3.259
 7846TIP3    H123479   3.080   4.147   3.237
 7846TIP3    H223480   3.177   4.160   3.352
 7847TIP3   OH223481   0.514   5.485   4.516
 7847TIP3    H123482   0.422   5.458   4.525
 7847TIP3    H223483   0.559   5.439   4.587
 7848TIP3   OH223484   4.515   1.918   4.541
 7848TIP3    H123485   4.498   1.842   4.596
 7848TIP3    H223486   4.535   1.881   4.454
 7849TIP3   OH223487   0.295   2.469   0.529
 7849TIP3    H123488   0.275   2.521   0.451
 7849TIP3    H223489   0.213   2.467   0.578
 7850TIP3   OH223490   5.202   5.968   0.534
 7850TIP3    H123491   5.284   5.989   0.488
 7850TIP3    H223492   5.223   5.983   0.626
 7851TIP3   OH223493   5.632   6.657   6.626
 7851TIP3    H123494   5.558   6.604   6.597
 7851TIP3    H223495   5.705   6.628   6.570
 7852TIP3   OH223496   2.658   0.778   4.515
 7852TIP3    H123497   2.650   0.799   4.608
 7852TIP3    H223498   2.585   0.719   4.497
 7853TIP3   OH223499   5.670   7.467   6.406
 7853TIP3    H123500   5.575   7.475   6.414
 7853TIP3    H223501   5.689   7.376   6.431
 7854TIP3   OH223502   2.632   6.417   0.555
 7854TIP3    H123503   2.707   6.359   0.554
 7854TIP3    H223504   2.556   6.359   0.558
 7855TIP3   OH223505   3.990   5.957   3.914
 7855TIP3    H123506   4.047   5.937   3.988
 7855TIP3    H223507   3.927   6.021   3.947
 7856TIP3   OH223508   1.614   5.940   2.625
 7856TIP3    H123509   1.531   5.971   2.587
 7856TIP3    H223510   1.625   5.852   2.590
 7857TIP3   OH223511   1.710   3.751   3.286
 7857TIP3    H123512   1.797   3.725   3.315
 7857TIP3    H223513   1.724   3.832   3.237
 7858TIP3   OH223514   5.521   5.941   5.921
 7858TIP3    H123515   5.561   6.023   5.948
 7858TIP3    H223516   5.529   5.940   5.826
 7859TIP3   OH223517   0.424   7.247   2.180
 7859TIP3    H123518   0.506   7.276   2.141
 7859TIP3    H223519   0.445   7.161   2.219
 7860TIP3   OH223520   2.467   6.555   5.706
 7860TIP3    H123521   2.487   6.579   5.797
 7860TIP3    H223522   2.552   6.554   5.662
 7861TIP3   OH223523   1.703   7.043   2.536
 7861TIP3    H123524   1.708   7.137   2.554
 7861TIP3    H223525   1.696   7.003   2.623
 7862TIP3   OH223526   6.210   0.826   4.551
 7862TIP3    H123527   6.158   0.772   4.492
 7862TIP3    H223528   6.244   0.896   4.496
 7863TIP3   OH223529   2.907   4.143   3.143
 7863TIP3    H123530   2.831   4.196   3.168
 7863TIP3    H223531   2.892   4.124   3.050
 7864TIP3   OH223532   4.490   0.243   6.844
 7864TIP3    H123533   4.484   0.177   6.775
 7864TIP3    H223534   4.404   0.285   6.844
 7865TIP3   OH223535   2.745   5.449   3.484
 7865TIP3    H123536   2.801   5.376   3.458
 7865TIP3    H223537   2.675   5.409   3.536
 7866TIP3   OH223538   7.906   7.744   1.395
 7866TIP3    H123539   7.822   7.786   1.413
 7866TIP3    H223540   7.968   7.790   1.452
 7867TIP3   OH223541   5.697   5.167   4.886
 7867TIP3    H123542   5.779   5.159   4.837
 7867TIP3    H223543   5.673   5.260   4.878
 7868TIP3   OH223544   3.334   6.089   0.654
 7868TIP3    H123545   3.366   6.079   0.565
 7868TIP3    H223546   3.412   6.112   0.705
 7869TIP3   OH223547   1.079   3.476   4.248
 7869TIP3    H123548   1.008   3.522   4.202
 7869TIP3    H223549   1.037   3.443   4.327
 7870TIP3   OH223550   1.980   7.494   2.327
 7870TIP3    H123551   1.983   7.563   2.260
 7870TIP3    H223552   1.987   7.413   2.277
 7871TIP3   OH223553   6.931   7.738   5.261
 7871TIP3    H123554   6.880   7.667   5.300
 7871TIP3    H223555   6.948   7.708   5.171
 7872TIP3   OH223556   3.692   4.583   0.456
 7872TIP3    H123557   3.765   4.546   0.408
 7872TIP3    H223558   3.728   4.662   0.498
 7873TIP3   OH223559   5.606   4.981   2.445
 7873TIP3    H123560   5.665   4.984   2.370
 7873TIP3    H223561   5.521   5.009   2.411
 7874TIP3   OH223562   4.646   1.173   3.270
 7874TIP3    H123563   4.701   1.162   3.347
 7874TIP3    H223564   4.629   1.267   3.264
 7875TIP3   OH223565   8.220   2.013   6.443
 7875TIP3    H123566   8.149   2.057   6.490
 7875TIP3    H223567   8.285   1.993   6.510
 7876TIP3   OH223568   1.993   3.341   4.057
 7876TIP3    H123569   1.958   3.301   4.137
 7876TIP3    H223570   2.088   3.336   4.068
 7877TIP3   OH223571   3.473   6.384   3.163
 7877TIP3    H123572   3.450   6.412   3.074
 7877TIP3    H223573   3.547   6.325   3.152
 7878TIP3   OH223574   0.102   6.878   3.677
 7878TIP3    H123575   0.079   6.944   3.611
 7878TIP3    H223576   0.019   6.857   3.719
 7879TIP3   OH223577   4.366   4.738   5.928
 7879TIP3    H123578   4.331   4.707   5.844
 7879TIP3    H223579   4.290   4.769   5.976
 7880TIP3   OH223580   6.874   5.219   6.307
 7880TIP3    H123581   6.866   5.308   6.271
 7880TIP3    H223582   6.903   5.165   6.234
 7881TIP3   OH223583   1.220   5.910   0.272
 7881TIP3    H123584   1.147   5.916   0.333
 7881TIP3    H223585   1.258   5.823   0.289
 7882TIP3   OH223586   4.944   7.819   5.059
 7882TIP3    H123587   4.989   7.887   5.010
 7882TIP3    H223588   5.014   7.764   5.094
 7883TIP3   OH223589   2.925   4.699   0.605
 7883TIP3    H123590   2.968   4.667   0.525
 7883TIP3    H223591   2.900   4.789   0.584
 7884TIP3   OH223592   6.463   3.813   5.364
 7884TIP3    H123593   6.415   3.739   5.400
 7884TIP3    H223594   6.406   3.888   5.377
 7885TIP3   OH223595   7.347   0.572   2.740
 7885TIP3    H123596   7.316   0.530   2.660
 7885TIP3    H223597   7.344   0.666   2.722
 7886TIP3   OH223598   3.054   3.286   0.205
 7886TIP3    H123599   3.144   3.315   0.225
 7886TIP3    H223600   3.003   3.367   0.204
 7887TIP3   OH223601   6.075   4.614   3.774
 7887TIP3    H123602   6.092   4.651   3.688
 7887TIP3    H223603   5.990   4.571   3.766
 7888TIP3   OH223604   5.496   6.776   3.266
 7888TIP3    H123605   5.544   6.722   3.204
 7888TIP3    H223606   5.428   6.718   3.301
 7889TIP3   OH223607   1.657   0.289   2.159
 7889TIP3    H123608   1.745   0.311   2.189
 7889TIP3    H223609   1.617   0.243   2.233
 7890TIP3   OH223610   6.327   6.177   4.286
 7890TIP3    H123611   6.302   6.152   4.375
 7890TIP3    H223612   6.406   6.126   4.268
 7891TIP3   OH223613   2.336   0.828   3.632
 7891TIP3    H123614   2.259   0.826   3.575
 7891TIP3    H223615   2.392   0.896   3.593
 7892TIP3   OH223616   3.419   7.677   5.122
 7892TIP3    H123617   3.376   7.688   5.207
 7892TIP3    H223618   3.461   7.592   5.127
 7893TIP3   OH223619   0.567   0.902   5.123
 7893TIP3    H123620   0.566   0.870   5.213
 7893TIP3    H223621   0.644   0.862   5.084
 7894TIP3   OH223622   7.295   7.771   1.686
 7894TIP3    H123623   7.310   7.766   1.780
 7894TIP3    H223624   7.383   7.776   1.649
 7895TIP3   OH223625   0.132   6.197   1.999
 7895TIP3    H123626   0.166   6.248   1.926
 7895TIP3    H223627   0.201   6.200   2.065
 7896TIP3   OH223628   8.006   4.634   4.848
 7896TIP3    H123629   8.079   4.660   4.904
 7896TIP3    H223630   8.035   4.554   4.805
 7897TIP3   OH223631   4.527   6.666   4.437
 7897TIP3    H123632   4.518   6.620   4.520
 7897TIP3    H223633   4.439   6.667   4.400
 7898TIP3   OH223634   6.454   4.778   0.801
 7898TIP3    H123635   6.454   4.808   0.710
 7898TIP3    H223636   6.449   4.682   0.794
 7899TIP3   OH223637   4.266   4.738   4.434
 7899TIP3    H123638   4.329   4.692   4.379
 7899TIP3    H223639   4.263   4.827   4.396
 7900TIP3   OH223640   8.424   4.540   1.998
 7900TIP3    H123641   8.335   4.572   1.985
 7900TIP3    H223642   8.421   4.500   2.085
 7901TIP3   OH223643   3.330   7.056   2.300
 7901TIP3    H123644   3.255   7.014   2.257
 7901TIP3    H223645   3.383   6.983   2.332
 7902TIP3   OH223646   3.472   4.652   6.042
 7902TIP3    H123647   3.455   4.743   6.016
 7902TIP3    H223648   3.474   4.603   5.960
 7903TIP3   OH223649   3.088   3.005   0.263
 7903TIP3    H123650   3.138   2.993   0.344
 7903TIP3    H223651   3.057   3.095   0.267
 7904TIP3   OH223652   6.182   6.702   5.998
 7904TIP3    H123653   6.137   6.739   5.922
 7904TIP3    H223654   6.116   6.648   6.042
 7905TIP3   OH223655   1.844   0.376   2.338
 7905TIP3    H123656   1.888   0.296   2.365
 7905TIP3    H223657   1.804   0.409   2.418
 7906TIP3   OH223658   8.051   7.289   3.062
 7906TIP3    H123659   8.129   7.238   3.084
 7906TIP3    H223660   8.084   7.361   3.008
 7907TIP3   OH223661   2.456   4.995   3.489
 7907TIP3    H123662   2.518   4.926   3.464
 7907TIP3    H223663   2.498   5.076   3.462
 7908TIP3   OH223664   6.203   0.721   0.839
 7908TIP3    H123665   6.202   0.800   0.784
 7908TIP3    H223666   6.265   0.742   0.909
 7909TIP3   OH223667   5.758   0.945   1.508
 7909TIP3    H123668   5.757   0.849   1.511
 7909TIP3    H223669   5.679   0.972   1.553
 7910TIP3   OH223670   4.042   0.568   4.325
 7910TIP3    H123671   4.015   0.479   4.349
 7910TIP3    H223672   4.080   0.559   4.238
 7911TIP3   OH223673   2.321   6.188   1.595
 7911TIP3    H123674   2.303   6.254   1.528
 7911TIP3    H223675   2.246   6.193   1.654
 7912TIP3   OH223676   5.353   7.196   4.584
 7912TIP3    H123677   5.367   7.102   4.576
 7912TIP3    H223678   5.422   7.225   4.644
 7913TIP3   OH223679   5.810   5.009   2.231
 7913TIP3    H123680   5.886   5.029   2.285
 7913TIP3    H223681   5.782   5.094   2.197
 7914TIP3   OH223682   7.803   4.063   0.914
 7914TIP3    H123683   7.799   4.154   0.941
 7914TIP3    H223684   7.805   4.013   0.996
 7915TIP3   OH223685   0.938   2.882   4.267
 7915TIP3    H123686   1.019   2.872   4.317
 7915TIP3    H223687   0.961   2.855   4.178
 7916TIP3   OH223688   6.405   7.287   1.347
 7916TIP3    H123689   6.428   7.368   1.393
 7916TIP3    H223690   6.350   7.239   1.408
 7917TIP3   OH223691   2.066   4.533   6.553
 7917TIP3    H123692   2.062   4.512   6.647
 7917TIP3    H223693   2.060   4.448   6.509
 7918TIP3   OH223694   1.000   1.396   0.735
 7918TIP3    H123695   0.918   1.439   0.712
 7918TIP3    H223696   0.989   1.306   0.705
 7919TIP3   OH223697   1.096   7.538   6.469
 7919TIP3    H123698   1.024   7.598   6.489
 7919TIP3    H223699   1.175   7.587   6.492
 7920TIP3   OH223700   5.093   1.159   2.868
 7920TIP3    H123701   5.002   1.164   2.898
 7920TIP3    H223702   5.108   1.242   2.824
 7921TIP3   OH223703   7.780   5.660   5.612
 7921TIP3    H123704   7.869   5.695   5.618
 7921TIP3    H223705   7.748   5.659   5.702
 7922TIP3   OH223706   6.892   1.519   6.730
 7922TIP3    H123707   6.886   1.614   6.745
 7922TIP3    H223708   6.822   1.501   6.667
 7923TIP3   OH223709   6.467   1.003   5.273
 7923TIP3    H123710   6.484   0.965   5.186
 7923TIP3    H223711   6.545   0.982   5.324
 7924TIP3   OH223712   4.247   7.073   0.584
 7924TIP3    H123713   4.285   6.997   0.540
 7924TIP3    H223714   4.208   7.125   0.514
 7925TIP3   OH223715   8.343   4.383   4.601
 7925TIP3    H123716   8.335   4.429   4.518
 7925TIP3    H223717   8.431   4.344   4.599
 7926TIP3   OH223718   6.274   6.910   5.006
 7926TIP3    H123719   6.271   7.003   5.026
 7926TIP3    H223720   6.367   6.893   4.988
 7927TIP3   OH223721   4.124   5.107   5.304
 7927TIP3    H123722   4.037   5.137   5.330
 7927TIP3    H223723   4.147   5.162   5.228
 7928TIP3   OH223724   6.444   6.243   6.644
 7928TIP3    H123725   6.508   6.284   6.703
 7928TIP3    H223726   6.479   6.259   6.556
 7929TIP3   OH223727   1.258   2.997   4.881
 7929TIP3    H123728   1.229   2.906   4.867
 7929TIP3    H223729   1.200   3.049   4.824
 7930TIP3   OH223730   0.152   7.587   2.124
 7930TIP3    H123731   0.155   7.567   2.217
 7930TIP3    H223732   0.059   7.589   2.103
 7931TIP3   OH223733   4.914   0.131   1.576
 7931TIP3    H123734   4.892   0.218   1.543
 7931TIP3    H223735   4.962   0.148   1.657
 7932TIP3   OH223736   6.541   3.389   1.047
 7932TIP3    H123737   6.489   3.308   1.040
 7932TIP3    H223738   6.544   3.423   0.958
 7933TIP3   OH223739   3.800   4.656   1.322
 7933TIP3    H123740   3.836   4.608   1.247
 7933TIP3    H223741   3.715   4.688   1.292
 7934TIP3   OH223742   3.356   2.414   3.725
 7934TIP3    H123743   3.278   2.465   3.749
 7934TIP3    H223744   3.417   2.479   3.692
 7935TIP3   OH223745   7.888   2.999   2.397
 7935TIP3    H123746   7.863   3.075   2.344
 7935TIP3    H223747   7.913   2.933   2.332
 7936TIP3   OH223748   0.350   7.743   6.665
 7936TIP3    H123749   0.388   7.666   6.621
 7936TIP3    H223750   0.270   7.761   6.615
 7937TIP3   OH223751   7.144   7.215   0.673
 7937TIP3    H123752   7.193   7.291   0.645
 7937TIP3    H223753   7.093   7.189   0.596
 7938TIP3   OH223754   4.934   3.528   1.722
 7938TIP3    H123755   4.866   3.570   1.670
 7938TIP3    H223756   4.978   3.469   1.660
 7939TIP3   OH223757   6.468   2.639   1.579
 7939TIP3    H123758   6.417   2.711   1.542
 7939TIP3    H223759   6.406   2.567   1.589
 7940TIP3   OH223760   6.636   7.696   1.105
 7940TIP3    H123761   6.693   7.720   1.033
 7940TIP3    H223762   6.609   7.607   1.086
 7941TIP3   OH223763   1.079   4.742   4.541
 7941TIP3    H123764   1.164   4.784   4.552
 7941TIP3    H223765   1.064   4.742   4.446
 7942TIP3   OH223766   3.030   5.958   0.452
 7942TIP3    H123767   3.068   5.933   0.368
 7942TIP3    H223768   2.936   5.952   0.439
 7943TIP3   OH223769   1.460   7.331   1.727
 7943TIP3    H123770   1.408   7.315   1.648
 7943TIP3    H223771   1.513   7.408   1.706
 7944TIP3   OH223772   7.379   6.214   1.737
 7944TIP3    H123773   7.398   6.121   1.728
 7944TIP3    H223774   7.463   6.253   1.761
 7945TIP3   OH223775   5.038   6.970   4.543
 7945TIP3    H123776   4.963   6.947   4.598
 7945TIP3    H223777   5.032   7.065   4.531
 7946TIP3   OH223778   6.777   3.953   3.716
 7946TIP3    H123779   6.740   3.868   3.738
 7946TIP3    H223780   6.851   3.933   3.658
 7947TIP3   OH223781   1.399   2.082   2.449
 7947TIP3    H123782   1.370   1.996   2.477
 7947TIP3    H223783   1.319   2.131   2.434
 7948TIP3   OH223784   3.945   7.172   2.523
 7948TIP3    H123785   3.986   7.186   2.608
 7948TIP3    H223786   3.851   7.169   2.541
 7949TIP3   OH223787   3.353   1.896   2.562
 7949TIP3    H123788   3.299   1.939   2.495
 7949TIP3    H223789   3.408   1.835   2.512
 7950TIP3   OH223790   6.989   4.142   1.947
 7950TIP3    H123791   6.976   4.118   2.038
 7950TIP3    H223792   7.066   4.199   1.947
 7951TIP3   OH223793   2.002   1.544   1.974
 7951TIP3    H123794   2.013   1.608   2.045
 7951TIP3    H223795   1.957   1.594   1.905
 7952TIP3   OH223796   5.026   2.757   2.870
 7952TIP3    H123797   5.100   2.809   2.903
 7952TIP3    H223798   5.056   2.723   2.786
 7953TIP3   OH223799   0.906   0.983   4.771
 7953TIP3    H123800   0.846   1.057   4.778
 7953TIP3    H223801   0.892   0.949   4.683
 7954TIP3   OH223802   3.884   4.908   1.995
 7954TIP3    H123803   3.827   4.909   1.918
 7954TIP3    H223804   3.847   4.974   2.054
 7955TIP3   OH223805   7.820   5.333   4.787
 7955TIP3    H123806   7.792   5.267   4.850
 7955TIP3    H223807   7.914   5.318   4.777
 7956TIP3   OH223808   1.057   7.396   0.770
 7956TIP3    H123809   1.022   7.436   0.850
 7956TIP3    H223810   0.990   7.334   0.742
 7957TIP3   OH223811   0.113   6.618   5.299
 7957TIP3    H123812   0.035   6.607   5.354
 7957TIP3    H223813   0.154   6.532   5.297
 7958TIP3   OH223814   0.580   2.742   1.123
 7958TIP3    H123815   0.598   2.650   1.104
 7958TIP3    H223816   0.560   2.744   1.217
 7959TIP3   OH223817   5.036   1.268   2.091
 7959TIP3    H123818   5.100   1.243   2.158
 7959TIP3    H223819   5.075   1.344   2.048
 7960TIP3   OH223820   2.242   5.922   3.476
 7960TIP3    H123821   2.245   5.995   3.414
 7960TIP3    H223822   2.281   5.849   3.429
 7961TIP3   OH223823   7.869   4.694   0.754
 7961TIP3    H123824   7.904   4.772   0.797
 7961TIP3    H223825   7.938   4.667   0.693
 7962TIP3   OH223826   3.106   6.792   3.212
 7962TIP3    H123827   3.073   6.832   3.292
 7962TIP3    H223828   3.077   6.701   3.216
 7963TIP3   OH223829   5.070   5.431   3.367
 7963TIP3    H123830   5.165   5.429   3.352
 7963TIP3    H223831   5.045   5.339   3.370
 7964TIP3   OH223832   0.311   2.561   6.096
 7964TIP3    H123833   0.396   2.605   6.102
 7964TIP3    H223834   0.257   2.605   6.162
 7965TIP3   OH223835   1.166   6.156   0.137
 7965TIP3    H123836   1.238   6.202   0.093
 7965TIP3    H223837   1.209   6.089   0.189
 7966TIP3   OH223838   5.915   1.612   3.749
 7966TIP3    H123839   5.950   1.565   3.673
 7966TIP3    H223840   5.992   1.647   3.794
 7967TIP3   OH223841   6.771   0.032   5.545
 7967TIP3    H123842   6.714  -0.045   5.545
 7967TIP3    H223843   6.737   0.087   5.615
 7968TIP3   OH223844   1.106   1.350   2.049
 7968TIP3    H123845   1.105   1.442   2.021
 7968TIP3    H223846   1.013   1.325   2.049
 7969TIP3   OH223847   0.353   3.773   1.444
 7969TIP3    H123848   0.440   3.750   1.477
 7969TIP3    H223849   0.327   3.850   1.496
 7970TIP3   OH223850   1.198   6.598   6.738
 7970TIP3    H123851   1.109   6.609   6.772
 7970TIP3    H223852   1.251   6.662   6.786
 7971TIP3   OH223853   2.136   1.286   5.950
 7971TIP3    H123854   2.063   1.241   5.907
 7971TIP3    H223855   2.095   1.352   6.005
 7972TIP3   OH223856   8.417   5.426   6.648
 7972TIP3    H123857   8.404   5.501   6.706
 7972TIP3    H223858   8.333   5.380   6.649
 7973TIP3   OH223859   7.886   0.448   6.238
 7973TIP3    H123860   7.881   0.410   6.151
 7973TIP3    H223861   7.811   0.506   6.244
 7974TIP3   OH223862   4.343   6.291   6.690
 7974TIP3    H123863   4.392   6.356   6.741
 7974TIP3    H223864   4.273   6.342   6.649
 7975TIP3   OH223865   2.736   4.447   6.748
 7975TIP3    H123866   2.754   4.478   6.660
 7975TIP3    H223867   2.821   4.418   6.782
 7976TIP3   OH223868   6.291   0.215   3.195
 7976TIP3    H123869   6.224   0.162   3.151
 7976TIP3    H223870   6.244   0.293   3.224
 7977TIP3   OH223871   6.058   6.835   5.781
 7977TIP3    H123872   6.147   6.834   5.747
 7977TIP3    H223873   6.002   6.838   5.703
 7978TIP3   OH223874   7.121   0.870   0.021
 7978TIP3    H123875   7.027   0.869   0.005
 7978TIP3    H223876   7.146   0.962   0.011
 7979TIP3   OH223877   4.801   6.990   5.389
 7979TIP3    H123878   4.823   6.899   5.369
 7979TIP3    H223879   4.713   7.002   5.353
 7980TIP3   OH223880   1.113   7.633   4.249
 7980TIP3    H123881   1.036   7.576   4.254
 7980TIP3    H223882   1.147   7.620   4.160
 7981TIP3   OH223883   7.771   1.682   1.060
 7981TIP3    H123884   7.848   1.675   1.003
 7981TIP3    H223885   7.731   1.765   1.037
 7982TIP3   OH223886   2.843   7.640   1.680
 7982TIP3    H123887   2.834   7.719   1.626
 7982TIP3    H223888   2.933   7.643   1.711
 7983TIP3   OH223889   4.085   5.404   1.256
 7983TIP3    H123890   4.098   5.327   1.311
 7983TIP3    H223891   4.167   5.453   1.263
 7984TIP3   OH223892   3.300   0.151   2.868
 7984TIP3    H123893   3.386   0.111   2.883
 7984TIP3    H223894   3.288   0.210   2.943
 7985TIP3   OH223895   4.476   3.453   5.027
 7985TIP3    H123896   4.476   3.437   5.121
 7985TIP3    H223897   4.546   3.515   5.012
 7986TIP3   OH223898   7.189   3.479   1.002
 7986TIP3    H123899   7.242   3.477   0.923
 7986TIP3    H223900   7.098   3.477   0.971
 7987TIP3   OH223901   6.819   2.662   0.396
 7987TIP3    H123902   6.861   2.593   0.448
 7987TIP3    H223903   6.887   2.729   0.387
 7988TIP3   OH223904   4.674   3.393   4.244
 7988TIP3    H123905   4.699   3.301   4.235
 7988TIP3    H223906   4.712   3.436   4.167
 7989TIP3   OH223907   1.420   3.751   0.405
 7989TIP3    H123908   1.413   3.665   0.364
 7989TIP3    H223909   1.487   3.741   0.472
 7990TIP3   OH223910   3.840   0.851   3.125
 7990TIP3    H123911   3.890   0.923   3.087
 7990TIP3    H223912   3.786   0.818   3.052
 7991TIP3   OH223913   4.678   2.299   5.061
 7991TIP3    H123914   4.764   2.287   5.100
 7991TIP3    H223915   4.616   2.271   5.129
 7992TIP3   OH223916   4.418   3.423   2.964
 7992TIP3    H123917   4.445   3.407   2.874
 7992TIP3    H223918   4.485   3.380   3.017
 7993TIP3   OH223919   6.476   5.135   2.082
 7993TIP3    H123920   6.393   5.181   2.096
 7993TIP3    H223921   6.461   5.047   2.115
 7994TIP3   OH223922   2.397   1.108   5.470
 7994TIP3    H123923   2.382   1.028   5.520
 7994TIP3    H223924   2.386   1.178   5.535
 7995TIP3   OH223925   6.823   4.925   2.090
 7995TIP3    H123926   6.791   4.922   2.000
 7995TIP3    H223927   6.746   4.904   2.143
 7996TIP3   OH223928   3.187   5.034   4.628
 7996TIP3    H123929   3.223   4.982   4.699
 7996TIP3    H223930   3.113   5.080   4.667
 7997TIP3   OH223931   1.248   7.464   2.942
 7997TIP3    H123932   1.277   7.419   3.021
 7997TIP3    H223933   1.152   7.461   2.946
 7998TIP3   OH223934   0.801   1.435   3.545
 7998TIP3    H123935   0.803   1.470   3.456
 7998TIP3    H223936   0.883   1.466   3.585
 7999TIP3   OH223937   7.637   7.697   5.256
 7999TIP3    H123938   7.698   7.694   5.183
 7999TIP3    H223939   7.595   7.783   5.249
 8000TIP3   OH223940   1.359   7.702   5.651
 8000TIP3    H123941   1.317   7.626   5.609
 8000TIP3    H223942   1.452   7.681   5.650
 8001TIP3   OH223943   1.191   2.226   2.297
 8001TIP3    H123944   1.145   2.299   2.340
 8001TIP3    H223945   1.180   2.244   2.203
 8002TIP3   OH223946   2.934   3.953   1.115
 8002TIP3    H123947   2.971   3.869   1.087
 8002TIP3    H223948   2.976   3.971   1.198
 8003TIP3   OH223949   7.301   0.384   4.803
 8003TIP3    H123950   7.372   0.333   4.764
 8003TIP3    H223951   7.331   0.475   4.799
 8004TIP3   OH223952   6.011   0.176   4.352
 8004TIP3    H123953   5.948   0.142   4.288
 8004TIP3    H223954   5.960   0.191   4.431
 8005TIP3   OH223955   7.938   0.028   3.632
 8005TIP3    H123956   7.949  -0.043   3.696
 8005TIP3    H223957   7.952   0.108   3.683
 8006TIP3   OH223958   0.956   7.794   0.573
 8006TIP3    H123959   1.022   7.821   0.508
 8006TIP3    H223960   0.938   7.703   0.552
 8007TIP3   OH223961   6.309   2.279   2.275
 8007TIP3    H123962   6.271   2.196   2.306
 8007TIP3    H223963   6.285   2.342   2.343
 8008TIP3   OH223964   2.799   6.050   6.467
 8008TIP3    H123965   2.819   6.065   6.375
 8008TIP3    H223966   2.782   6.137   6.503
 8009TIP3   OH223967   3.126   3.331   2.443
 8009TIP3    H123968   3.120   3.383   2.523
 8009TIP3    H223969   3.036   3.305   2.424
 8010TIP3   OH223970   8.395   4.150   0.516
 8010TIP3    H123971   8.362   4.108   0.437
 8010TIP3    H223972   8.418   4.077   0.574
 8011TIP3   OH223973   4.711   4.540   1.228
 8011TIP3    H123974   4.752   4.625   1.214
 8011TIP3    H223975   4.696   4.506   1.139
 8012TIP3   OH223976   3.751   3.678   2.891
 8012TIP3    H123977   3.719   3.686   2.801
 8012TIP3    H223978   3.800   3.759   2.906
 8013TIP3   OH223979   4.070   2.444   6.636
 8013TIP3    H123980   4.118   2.362   6.628
 8013TIP3    H223981   4.135   2.506   6.672
 8014TIP3   OH223982   5.064   7.617   0.288
 8014TIP3    H123983   5.116   7.654   0.217
 8014TIP3    H223984   5.063   7.523   0.271
 8015TIP3   OH223985   7.841   4.155   2.649
 8015TIP3    H123986   7.777   4.151   2.720
 8015TIP3    H223987   7.816   4.233   2.599
 8016TIP3   OH223988   6.549   2.682   3.234
 8016TIP3    H123989   6.547   2.769   3.275
 8016TIP3    H223990   6.546   2.621   3.308
 8017TIP3   OH223991   0.084   2.238   1.944
 8017TIP3    H123992   0.077   2.230   2.039
 8017TIP3    H223993  -0.005   2.255   1.914
 8018TIP3   OH223994   6.460   4.897   3.415
 8018TIP3    H123995   6.495   4.975   3.458
 8018TIP3    H223996   6.381   4.927   3.371
 8019TIP3   OH223997   2.169   4.936   0.958
 8019TIP3    H123998   2.110   5.009   0.976
 8019TIP3    H223999   2.149   4.909   0.869
 8020TIP3   OH224000   4.733   0.572   3.448
 8020TIP3    H124001   4.701   0.596   3.361
 8020TIP3    H224002   4.819   0.533   3.432
 8021TIP3   OH224003   1.954   0.751   4.799
 8021TIP3    H124004   1.918   0.670   4.764
 8021TIP3    H224005   2.049   0.740   4.796
 8022TIP3   OH224006   3.594   4.042   0.903
 8022TIP3    H124007   3.679   4.062   0.941
 8022TIP3    H224008   3.603   4.065   0.810
 8023TIP3   OH224009   5.274   7.400   1.528
 8023TIP3    H124010   5.178   7.397   1.527
 8023TIP3    H224011   5.300   7.349   1.452
 8024TIP3   OH224012   5.849   5.745   2.004
 8024TIP3    H124013   5.839   5.668   1.948
 8024TIP3    H224014   5.764   5.757   2.045
 8025TIP3   OH224015   2.203   5.625   0.341
 8025TIP3    H124016   2.237   5.659   0.423
 8025TIP3    H224017   2.231   5.688   0.275
 8026TIP3   OH224018   6.427   5.595   0.699
 8026TIP3    H124019   6.351   5.552   0.738
 8026TIP3    H224020   6.492   5.526   0.690
 8027TIP3   OH224021   2.999   1.122   0.268
 8027TIP3    H124022   2.906   1.118   0.246
 8027TIP3    H224023   3.001   1.154   0.359
 8028TIP3   OH224024   5.110   5.103   2.854
 8028TIP3    H124025   5.182   5.060   2.900
 8028TIP3    H224026   5.138   5.194   2.845
 8029TIP3   OH224027   0.601   4.475   1.062
 8029TIP3    H124028   0.691   4.443   1.071
 8029TIP3    H224029   0.569   4.481   1.152
 8030TIP3   OH224030   3.866   7.400   0.841
 8030TIP3    H124031   3.771   7.400   0.853
 8030TIP3    H224032   3.885   7.486   0.803
 8031TIP3   OH224033   8.231   0.462   0.647
 8031TIP3    H124034   8.298   0.425   0.589
 8031TIP3    H224035   8.266   0.546   0.674
 8032TIP3   OH224036   0.740   1.720   6.779
 8032TIP3    H124037   0.817   1.668   6.803
 8032TIP3    H224038   0.717   1.690   6.691
 8033TIP3   OH224039   7.347   6.053   0.373
 8033TIP3    H124040   7.368   6.003   0.294
 8033TIP3    H224041   7.255   6.076   0.363
 8034TIP3   OH224042   7.921   7.376   0.072
 8034TIP3    H124043   7.913   7.428   0.152
 8034TIP3    H224044   7.943   7.288   0.102
 8035TIP3   OH224045   0.721   0.567   0.891
 8035TIP3    H124046   0.762   0.620   0.822
 8035TIP3    H224047   0.791   0.509   0.921
 8036TIP3   OH224048   4.554   1.512   3.044
 8036TIP3    H124049   4.517   1.586   2.996
 8036TIP3    H224050   4.535   1.531   3.136
 8037TIP3   OH224051   7.971   5.780   4.588
 8037TIP3    H124052   8.048   5.724   4.578
 8037TIP3    H224053   8.003   5.856   4.637
 8038TIP3   OH224054   4.917   3.113   4.911
 8038TIP3    H124055   4.839   3.093   4.962
 8038TIP3    H224056   4.989   3.106   4.973
 8039TIP3   OH224057   6.728   3.981   5.876
 8039TIP3    H124058   6.732   4.068   5.837
 8039TIP3    H224059   6.642   3.947   5.851
 8040TIP3   OH224060   6.210   6.446   5.212
 8040TIP3    H124061   6.272   6.394   5.263
 8040TIP3    H224062   6.242   6.440   5.122
 8041TIP3   OH224063   4.599   2.261   0.537
 8041TIP3    H124064   4.607   2.226   0.449
 8041TIP3    H224065   4.683   2.304   0.553
 8042TIP3   OH224066   4.068   7.200   2.776
 8042TIP3    H124067   4.023   7.246   2.847
 8042TIP3    H224068   4.129   7.141   2.821
 8043TIP3   OH224069   6.195   7.211   6.530
 8043TIP3    H124070   6.146   7.194   6.449
 8043TIP3    H224071   6.152   7.158   6.596
 8044TIP3   OH224072   7.862   4.544   2.728
 8044TIP3    H124073   7.886   4.518   2.817
 8044TIP3    H224074   7.775   4.508   2.714
 8045TIP3   OH224075   0.263   1.083   3.140
 8045TIP3    H124076   0.186   1.030   3.162
 8045TIP3    H224077   0.244   1.169   3.177
 8046TIP3   OH224078   0.490   5.149   5.003
 8046TIP3    H124079   0.584   5.139   5.014
 8046TIP3    H224080   0.458   5.172   5.091
 8047TIP3   OH224081   6.682   4.564   1.669
 8047TIP3    H124082   6.660   4.656   1.656
 8047TIP3    H224083   6.770   4.565   1.707
 8048TIP3   OH224084   2.542   6.658   6.738
 8048TIP3    H124085   2.469   6.700   6.784
 8048TIP3    H224086   2.597   6.623   6.807
 8049TIP3   OH224087   4.380   3.752   3.076
 8049TIP3    H124088   4.441   3.826   3.073
 8049TIP3    H224089   4.433   3.676   3.052
 8050TIP3   OH224090   1.365   0.439   5.945
 8050TIP3    H124091   1.436   0.402   5.997
 8050TIP3    H224092   1.289   0.385   5.966
 8051TIP3   OH224093   2.013   7.253   6.173
 8051TIP3    H124094   1.923   7.286   6.176
 8051TIP3    H224095   2.042   7.255   6.265
 8052TIP3   OH224096   0.379   1.110   1.245
 8052TIP3    H124097   0.436   1.164   1.190
 8052TIP3    H224098   0.350   1.170   1.314
 8053TIP3   OH224099   0.643   1.580   6.221
 8053TIP3    H124100   0.684   1.522   6.285
 8053TIP3    H224101   0.656   1.536   6.137
 8054TIP3   OH224102   3.183   2.204   0.802
 8054TIP3    H124103   3.207   2.147   0.876
 8054TIP3    H224104   3.148   2.283   0.844
 8055TIP3   OH224105   5.277   5.717   1.960
 8055TIP3    H124106   5.237   5.770   2.029
 8055TIP3    H224107   5.302   5.636   2.004
 8056TIP3   OH224108   5.909   3.848   1.838
 8056TIP3    H124109   5.820   3.883   1.849
 8056TIP3    H224110   5.966   3.922   1.857
 8057TIP3   OH224111   5.865   1.817   0.232
 8057TIP3    H124112   5.906   1.768   0.304
 8057TIP3    H224113   5.937   1.868   0.195
 8058TIP3   OH224114   6.290   3.964   2.071
 8058TIP3    H124115   6.370   3.964   2.017
 8058TIP3    H224116   6.221   3.992   2.011
 8059TIP3   OH224117   2.886   5.777   0.686
 8059TIP3    H124118   2.807   5.737   0.723
 8059TIP3    H224119   2.905   5.726   0.608
 8060TIP3   OH224120   1.910   4.976   3.919
 8060TIP3    H124121   1.878   5.064   3.901
 8060TIP3    H224122   1.991   4.970   3.869
 8061TIP3   OH224123   6.051   7.725   3.483
 8061TIP3    H124124   5.984   7.679   3.534
 8061TIP3    H224125   6.009   7.805   3.453
 8062TIP3   OH224126   3.968   5.364   0.724
 8062TIP3    H124127   3.974   5.271   0.747
 8062TIP3    H224128   4.012   5.409   0.797
 8063TIP3   OH224129   5.528   7.661   6.698
 8063TIP3    H124130   5.616   7.683   6.729
 8063TIP3    H224131   5.481   7.635   6.777
 8064TIP3   OH224132   3.322   1.002   5.965
 8064TIP3    H124133   3.281   1.018   6.050
 8064TIP3    H224134   3.327   0.907   5.958
 8065TIP3   OH224135   7.845   1.630   3.190
 8065TIP3    H124136   7.773   1.680   3.151
 8065TIP3    H224137   7.827   1.539   3.166
 8066TIP3   OH224138   6.080   2.330   2.534
 8066TIP3    H124139   6.114   2.272   2.602
 8066TIP3    H224140   6.079   2.416   2.575
 8067TIP3   OH224141   7.016   6.232   4.486
 8067TIP3    H124142   7.008   6.159   4.548
 8067TIP3    H224143   6.931   6.236   4.442
 8068TIP3   OH224144   7.641   1.709   6.005
 8068TIP3    H124145   7.729   1.741   6.026
 8068TIP3    H224146   7.643   1.617   6.032
 8069TIP3   OH224147   2.518   5.443   5.220
 8069TIP3    H124148   2.538   5.357   5.257
 8069TIP3    H224149   2.422   5.448   5.221
 8070TIP3   OH224150   6.269   7.127   1.512
 8070TIP3    H124151   6.304   7.043   1.482
 8070TIP3    H224152   6.175   7.111   1.520
 8071TIP3   OH224153   1.486   6.980   2.795
 8071TIP3    H124154   1.431   7.058   2.794
 8071TIP3    H224155   1.563   7.004   2.845
 8072TIP3   OH224156   1.146   1.171   1.464
 8072TIP3    H124157   1.215   1.128   1.513
 8072TIP3    H224158   1.068   1.162   1.519
 8073TIP3   OH224159   5.202   0.864   6.190
 8073TIP3    H124160   5.218   0.800   6.260
 8073TIP3    H224161   5.280   0.860   6.135
 8074TIP3   OH224162   6.791   4.460   6.247
 8074TIP3    H124163   6.698   4.465   6.270
 8074TIP3    H224164   6.837   4.484   6.327
 8075TIP3   OH224165   8.245   0.242   4.188
 8075TIP3    H124166   8.249   0.326   4.232
 8075TIP3    H224167   8.200   0.260   4.105
 8076TIP3   OH224168   0.064   7.647   0.846
 8076TIP3    H124169   0.075   7.622   0.938
 8076TIP3    H224170  -0.023   7.686   0.841
 8077TIP3   OH224171   8.163   3.471   3.874
 8077TIP3    H124172   8.148   3.400   3.936
 8077TIP3    H224173   8.206   3.429   3.800
 8078TIP3   OH224174   6.909   0.437   5.925
 8078TIP3    H124175   6.927   0.387   5.845
 8078TIP3    H224176   6.896   0.370   5.992
 8079TIP3   OH224177   1.664   3.286   2.675
 8079TIP3    H124178   1.615   3.209   2.644
 8079TIP3    H224179   1.744   3.250   2.713
 8080TIP3   OH224180   8.326   0.350   3.754
 8080TIP3    H124181   8.366   0.280   3.805
 8080TIP3    H224182   8.245   0.310   3.719
 8081TIP3   OH224183   2.079   3.242   6.151
 8081TIP3    H124184   2.115   3.161   6.186
 8081TIP3    H224185   2.156   3.290   6.120
 8082TIP3   OH224186   1.287   6.037   2.219
 8082TIP3    H124187   1.345   6.015   2.147
 8082TIP3    H224188   1.261   5.952   2.256
 8083TIP3   OH224189   6.398   3.033   6.375
 8083TIP3    H124190   6.343   3.036   6.453
 8083TIP3    H224191   6.337   3.047   6.302
 8084TIP3   OH224192   6.975   4.590   1.452
 8084TIP3    H124193   7.068   4.611   1.457
 8084TIP3    H224194   6.951   4.611   1.361
 8085TIP3   OH224195   7.816   5.816   0.411
 8085TIP3    H124196   7.748   5.756   0.382
 8085TIP3    H224197   7.878   5.820   0.338
 8086TIP3   OH224198   5.863   3.533   4.468
 8086TIP3    H124199   5.938   3.477   4.484
 8086TIP3    H224200   5.892   3.620   4.497
 8087TIP3   OH224201   0.921   0.249   2.650
 8087TIP3    H124202   0.931   0.223   2.558
 8087TIP3    H224203   0.863   0.183   2.687
 8088TIP3   OH224204   6.072   0.304   3.942
 8088TIP3    H124205   6.003   0.237   3.946
 8088TIP3    H224206   6.152   0.256   3.962
 8089TIP3   OH224207   0.679   2.264   5.103
 8089TIP3    H124208   0.650   2.306   5.021
 8089TIP3    H224209   0.746   2.323   5.137
 8090TIP3   OH224210   5.045   5.028   5.601
 8090TIP3    H124211   5.112   5.025   5.670
 8090TIP3    H224212   5.039   5.120   5.578
 8091TIP3   OH224213   7.500   5.127   4.328
 8091TIP3    H124214   7.417   5.124   4.376
 8091TIP3    H224215   7.525   5.219   4.327
 8092TIP3   OH224216   4.251   1.335   0.764
 8092TIP3    H124217   4.238   1.413   0.710
 8092TIP3    H224218   4.230   1.262   0.706
 8093TIP3   OH224219   5.406   6.896   3.012
 8093TIP3    H124220   5.354   6.961   3.060
 8093TIP3    H224221   5.392   6.814   3.060
 8094TIP3   OH224222   5.015   5.325   4.872
 8094TIP3    H124223   5.000   5.389   4.942
 8094TIP3    H224224   4.940   5.266   4.877
 8095TIP3   OH224225   2.640   5.832   3.577
 8095TIP3    H124226   2.687   5.915   3.584
 8095TIP3    H224227   2.565   5.841   3.636
 8096TIP3   OH224228   8.414   0.205   2.598
 8096TIP3    H124229   8.345   0.219   2.533
 8096TIP3    H224230   8.401   0.115   2.628
 8097TIP3   OH224231   6.050   5.602   5.363
 8097TIP3    H124232   6.018   5.608   5.453
 8097TIP3    H224233   6.044   5.509   5.342
 8098TIP3   OH224234   3.909   4.765   2.255
 8098TIP3    H124235   4.003   4.772   2.272
 8098TIP3    H224236   3.899   4.785   2.162
 8099TIP3   OH224237   2.322   3.293   6.344
 8099TIP3    H124238   2.392   3.262   6.402
 8099TIP3    H224239   2.241   3.278   6.394
 8100TIP3   OH224240   8.325   2.170   6.235
 8100TIP3    H124241   8.416   2.144   6.220
 8100TIP3    H224242   8.302   2.130   6.319
 8101TIP3   OH224243   7.646   4.548   6.677
 8101TIP3    H124244   7.618   4.638   6.696
 8101TIP3    H224245   7.730   4.540   6.722
 8102TIP3   OH224246   6.502   6.298   4.524
 8102TIP3    H124247   6.418   6.260   4.549
 8102TIP3    H224248   6.498   6.388   4.557
 8103TIP3   OH224249   3.128   4.524   3.825
 8103TIP3    H124250   3.035   4.544   3.829
 8103TIP3    H224251   3.163   4.556   3.908
 8104TIP3   OH224252   1.472   3.924   2.268
 8104TIP3    H124253   1.426   3.842   2.285
 8104TIP3    H224254   1.561   3.898   2.247
 8105TIP3   OH224255   3.996   3.234   0.269
 8105TIP3    H124256   4.006   3.295   0.342
 8105TIP3    H224257   3.984   3.290   0.193
 8106TIP3   OH224258   5.092   0.570   5.717
 8106TIP3    H124259   5.148   0.647   5.727
 8106TIP3    H224260   5.117   0.533   5.632
 8107TIP3   OH224261   7.125   0.484   5.202
 8107TIP3    H124262   7.160   0.571   5.222
 8107TIP3    H224263   7.181   0.452   5.132
 8108TIP3   OH224264   2.097   4.034   1.793
 8108TIP3    H124265   2.035   4.062   1.725
 8108TIP3    H224266   2.068   3.946   1.816
 8109TIP3   OH224267   3.922   5.551   2.046
 8109TIP3    H124268   3.836   5.509   2.039
 8109TIP3    H224269   3.930   5.573   2.139
 8110TIP3   OH224270   6.136   0.110   4.705
 8110TIP3    H124271   6.054   0.129   4.750
 8110TIP3    H224272   6.184   0.054   4.766
 8111TIP3   OH224273   7.477   6.776   0.003
 8111TIP3    H124274   7.510   6.694  -0.036
 8111TIP3    H224275   7.555   6.819   0.037
 8112TIP3   OH224276   6.809   7.719   3.929
 8112TIP3    H124277   6.872   7.785   3.957
 8112TIP3    H224278   6.769   7.757   3.850
 8113TIP3   OH224279   7.195   0.145   6.469
 8113TIP3    H124280   7.248   0.084   6.520
 8113TIP3    H224281   7.137   0.185   6.533
 8114TIP3   OH224282   3.767   2.057   3.288
 8114TIP3    H124283   3.817   1.985   3.326
 8114TIP3    H224284   3.701   2.077   3.354
 8115TIP3   OH224285   3.764   6.495   3.487
 8115TIP3    H124286   3.833   6.457   3.542
 8115TIP3    H224287   3.726   6.421   3.441
 8116TIP3   OH224288   2.103   5.215   1.083
 8116TIP3    H124289   2.104   5.229   1.177
 8116TIP3    H224290   2.015   5.182   1.065
 8117TIP3   OH224291   5.844   3.606   6.654
 8117TIP3    H124292   5.759   3.591   6.614
 8117TIP3    H224293   5.833   3.685   6.706
 8118TIP3   OH224294   6.128   2.853   1.251
 8118TIP3    H124295   6.061   2.869   1.185
 8118TIP3    H224296   6.211   2.866   1.205
 8119TIP3   OH224297   0.999   3.371   1.179
 8119TIP3    H124298   1.019   3.376   1.273
 8119TIP3    H224299   0.912   3.332   1.175
 8120TIP3   OH224300   0.324   4.855   5.298
 8120TIP3    H124301   0.358   4.921   5.359
 8120TIP3    H224302   0.382   4.861   5.222
 8121TIP3   OH224303   6.724   0.740   2.314
 8121TIP3    H124304   6.740   0.670   2.377
 8121TIP3    H224305   6.707   0.695   2.231
 8122TIP3   OH224306   2.095   0.463   0.170
 8122TIP3    H124307   2.146   0.514   0.106
 8122TIP3    H224308   2.160   0.434   0.234
 8123TIP3   OH224309   5.165   3.003   4.201
 8123TIP3    H124310   5.252   2.965   4.185
 8123TIP3    H224311   5.156   3.002   4.297
 8124TIP3   OH224312   0.736   6.680   4.254
 8124TIP3    H124313   0.729   6.765   4.210
 8124TIP3    H224314   0.660   6.677   4.313
 8125TIP3   OH224315   1.929   6.225   6.835
 8125TIP3    H124316   2.024   6.240   6.829
 8125TIP3    H224317   1.918   6.134   6.809
 8126TIP3   OH224318   2.623   7.346   6.305
 8126TIP3    H124319   2.664   7.261   6.289
 8126TIP3    H224320   2.697   7.405   6.318
 8127TIP3   OH224321   2.459   6.100   6.493
 8127TIP3    H124322   2.518   6.148   6.434
 8127TIP3    H224323   2.437   6.164   6.561
 8128TIP3   OH224324   2.552   1.672   6.443
 8128TIP3    H124325   2.476   1.669   6.385
 8128TIP3    H224326   2.516   1.701   6.527
 8129TIP3   OH224327   1.007   2.040   1.905
 8129TIP3    H124328   0.991   1.949   1.930
 8129TIP3    H224329   0.955   2.092   1.967
 8130TIP3   OH224330   1.503   4.705   4.771
 8130TIP3    H124331   1.573   4.643   4.790
 8130TIP3    H224332   1.453   4.709   4.853
 8131TIP3   OH224333   6.388   4.647   1.224
 8131TIP3    H124334   6.444   4.626   1.299
 8131TIP3    H224335   6.444   4.633   1.148
 8132TIP3   OH224336   7.704   7.478   4.862
 8132TIP3    H124337   7.757   7.417   4.913
 8132TIP3    H224338   7.613   7.456   4.885
 8133TIP3   OH224339   3.194   7.833   0.912
 8133TIP3    H124340   3.104   7.800   0.918
 8133TIP3    H224341   3.236   7.798   0.991
 8134TIP3   OH224342   5.334   7.192   1.343
 8134TIP3    H124343   5.340   7.123   1.409
 8134TIP3    H224344   5.264   7.163   1.284
 8135TIP3   OH224345   2.984   4.231   4.744
 8135TIP3    H124346   2.976   4.136   4.738
 8135TIP3    H224347   2.935   4.264   4.668
 8136TIP3   OH224348   1.541   5.130   6.720
 8136TIP3    H124349   1.511   5.061   6.661
 8136TIP3    H224350   1.469   5.143   6.781
 8137TIP3   OH224351   5.229   2.833   1.629
 8137TIP3    H124352   5.318   2.800   1.616
 8137TIP3    H224353   5.220   2.840   1.724
 8138TIP3   OH224354   2.972   3.791   0.399
 8138TIP3    H124355   2.887   3.748   0.411
 8138TIP3    H224356   2.961   3.845   0.321
 8139TIP3   OH224357   4.919   1.954   5.906
 8139TIP3    H124358   5.005   1.914   5.918
 8139TIP3    H224359   4.935   2.030   5.850
 8140TIP3   OH224360   7.800   5.726   1.704
 8140TIP3    H124361   7.820   5.690   1.791
 8140TIP3    H224362   7.802   5.650   1.646
 8141TIP3   OH224363   3.027   7.340   2.942
 8141TIP3    H124364   2.990   7.372   2.860
 8141TIP3    H224365   3.076   7.261   2.918
 8142TIP3   OH224366   6.644   7.582   0.453
 8142TIP3    H124367   6.595   7.530   0.389
 8142TIP3    H224368   6.733   7.585   0.418
 8143TIP3   OH224369   4.109   3.217   3.844
 8143TIP3    H124370   4.189   3.224   3.792
 8143TIP3    H224371   4.040   3.201   3.779
 8144TIP3   OH224372   1.591   3.995   1.758
 8144TIP3    H124373   1.596   4.086   1.728
 8144TIP3    H224374   1.498   3.981   1.776
 8145TIP3   OH224375   6.677   7.057   3.194
 8145TIP3    H124376   6.754   7.001   3.194
 8145TIP3    H224377   6.700   7.130   3.251
 8146TIP3   OH224378   3.931   1.547   3.149
 8146TIP3    H124379   3.968   1.602   3.081
 8146TIP3    H224380   3.861   1.600   3.187
 8147TIP3   OH224381   0.430   1.241   0.767
 8147TIP3    H124382   0.338   1.255   0.742
 8147TIP3    H224383   0.455   1.162   0.719
 8148TIP3   OH224384   7.048   0.087   6.235
 8148TIP3    H124385   7.104   0.141   6.291
 8148TIP3    H224386   7.024   0.013   6.290
 8149TIP3   OH224387   5.210   7.119   3.141
 8149TIP3    H124388   5.249   7.202   3.168
 8149TIP3    H224389   5.227   7.060   3.214
 8150TIP3   OH224390   1.396   5.211   5.986
 8150TIP3    H124391   1.363   5.231   6.074
 8150TIP3    H224392   1.482   5.253   5.983
 8151TIP3   OH224393   3.838   1.970   0.461
 8151TIP3    H124394   3.835   1.874   0.466
 8151TIP3    H224395   3.758   1.994   0.416
 8152TIP3   OH224396   2.101   4.668   5.135
 8152TIP3    H124397   2.101   4.714   5.219
 8152TIP3    H224398   2.066   4.581   5.155
 8153TIP3   OH224399   0.108   3.307   5.981
 8153TIP3    H124400   0.097   3.222   5.937
 8153TIP3    H224401   0.128   3.368   5.909
 8154TIP3   OH224402   0.178   3.801   0.974
 8154TIP3    H124403   0.221   3.719   0.947
 8154TIP3    H224404   0.196   3.807   1.068
 8155TIP3   OH224405   1.432   1.609   5.804
 8155TIP3    H124406   1.476   1.531   5.770
 8155TIP3    H224407   1.463   1.680   5.748
 8156TIP3   OH224408   4.681   2.955   6.213
 8156TIP3    H124409   4.587   2.950   6.230
 8156TIP3    H224410   4.703   3.048   6.224
 8157TIP3   OH224411   0.834   6.254   5.428
 8157TIP3    H124412   0.778   6.178   5.444
 8157TIP3    H224413   0.922   6.225   5.453
 8158TIP3   OH224414   6.610   1.775   2.872
 8158TIP3    H124415   6.554   1.843   2.833
 8158TIP3    H224416   6.667   1.748   2.800
 8159TIP3   OH224417   6.200   5.560   4.627
 8159TIP3    H124418   6.270   5.624   4.613
 8159TIP3    H224419   6.136   5.579   4.558
 8160TIP3   OH224420   3.628   1.305   2.285
 8160TIP3    H124421   3.711   1.352   2.278
 8160TIP3    H224422   3.617   1.262   2.199
 8161TIP3   OH224423   3.870   3.458   4.483
 8161TIP3    H124424   3.929   3.482   4.554
 8161TIP3    H224425   3.830   3.376   4.510
 8162TIP3   OH224426   6.912   1.638   3.049
 8162TIP3    H124427   6.994   1.641   3.097
 8162TIP3    H224428   6.894   1.730   3.026
 8163TIP3   OH224429   4.555   4.770   0.948
 8163TIP3    H124430   4.592   4.690   0.984
 8163TIP3    H224431   4.632   4.824   0.928
 8164TIP3   OH224432   2.699   7.543   3.780
 8164TIP3    H124433   2.701   7.635   3.753
 8164TIP3    H224434   2.751   7.497   3.714
 8165TIP3   OH224435   0.211   0.499   1.685
 8165TIP3    H124436   0.283   0.500   1.749
 8165TIP3    H224437   0.220   0.416   1.639
 8166TIP3   OH224438   3.369   4.923   5.071
 8166TIP3    H124439   3.291   4.940   5.123
 8166TIP3    H224440   3.417   4.856   5.120
 8167TIP3   OH224441   6.773   7.539   1.564
 8167TIP3    H124442   6.765   7.483   1.487
 8167TIP3    H224443   6.858   7.582   1.554
 8168TIP3   OH224444   1.214   7.838   5.404
 8168TIP3    H124445   1.304   7.812   5.424
 8168TIP3    H224446   1.224   7.914   5.346
 8169TIP3   OH224447   7.169   4.269   1.485
 8169TIP3    H124448   7.216   4.241   1.564
 8169TIP3    H224449   7.216   4.346   1.455
 8170TIP3   OH224450   6.843   1.484   5.864
 8170TIP3    H124451   6.771   1.445   5.913
 8170TIP3    H224452   6.918   1.478   5.923
 8171TIP3   OH224453   8.047   7.139   5.718
 8171TIP3    H124454   7.958   7.109   5.700
 8171TIP3    H224455   8.092   7.060   5.749
 8172TIP3   OH224456   7.435   6.634   6.596
 8172TIP3    H124457   7.344   6.664   6.588
 8172TIP3    H224458   7.476   6.660   6.513
 8173TIP3   OH224459   0.790   2.559   4.087
 8173TIP3    H124460   0.800   2.465   4.103
 8173TIP3    H224461   0.777   2.597   4.174
 8174TIP3   OH224462   4.652   5.185   0.907
 8174TIP3    H124463   4.670   5.271   0.867
 8174TIP3    H224464   4.603   5.138   0.840
 8175TIP3   OH224465   1.087   6.626   1.282
 8175TIP3    H124466   1.112   6.623   1.374
 8175TIP3    H224467   1.040   6.709   1.273
 8176TIP3   OH224468   3.011   1.483   1.818
 8176TIP3    H124469   3.053   1.512   1.899
 8176TIP3    H224470   2.918   1.503   1.831
 8177TIP3   OH224471   4.778   6.565   6.061
 8177TIP3    H124472   4.773   6.524   6.147
 8177TIP3    H224473   4.790   6.658   6.079
 8178TIP3   OH224474   1.897   7.636   5.645
 8178TIP3    H124475   1.943   7.608   5.724
 8178TIP3    H224476   1.967   7.646   5.579
 8179TIP3   OH224477   7.672   1.085   0.243
 8179TIP3    H124478   7.628   1.019   0.188
 8179TIP3    H224479   7.728   1.034   0.301
 8180TIP3   OH224480   0.277   3.049   4.845
 8180TIP3    H124481   0.277   3.141   4.872
 8180TIP3    H224482   0.204   3.010   4.894
 8181TIP3   OH224483   7.537   0.452   3.266
 8181TIP3    H124484   7.449   0.490   3.258
 8181TIP3    H224485   7.526   0.378   3.326
 8182TIP3   OH224486   0.995   4.171   0.759
 8182TIP3    H124487   0.954   4.098   0.712
 8182TIP3    H224488   1.077   4.187   0.712
 8183TIP3   OH224489   8.314   4.962   4.620
 8183TIP3    H124490   8.249   5.009   4.567
 8183TIP3    H224491   8.280   4.873   4.627
 8184TIP3   OH224492   2.583   5.220   4.765
 8184TIP3    H124493   2.656   5.188   4.818
 8184TIP3    H224494   2.559   5.304   4.804
 8185TIP3   OH224495   4.721   5.440   3.147
 8185TIP3    H124496   4.796   5.392   3.182
 8185TIP3    H224497   4.689   5.385   3.075
 8186TIP3   OH224498   3.744   1.307   3.339
 8186TIP3    H124499   3.776   1.318   3.249
 8186TIP3    H224500   3.810   1.349   3.393
 8187TIP3   OH224501   3.315   1.754   1.274
 8187TIP3    H124502   3.358   1.776   1.191
 8187TIP3    H224503   3.379   1.777   1.341
 8188TIP3   OH224504   4.986   5.578   3.698
 8188TIP3    H124505   5.006   5.508   3.760
 8188TIP3    H224506   5.053   5.570   3.630
 8189TIP3   OH224507   4.301   3.241   5.820
 8189TIP3    H124508   4.318   3.147   5.814
 8189TIP3    H224509   4.232   3.249   5.886
 8190TIP3   OH224510   5.433   3.923   5.284
 8190TIP3    H124511   5.504   3.864   5.308
 8190TIP3    H224512   5.367   3.867   5.244
 8191TIP3   OH224513   6.862   1.725   0.159
 8191TIP3    H124514   6.953   1.696   0.170
 8191TIP3    H224515   6.865   1.820   0.173
 8192TIP3   OH224516   2.426   1.040   1.106
 8192TIP3    H124517   2.400   0.959   1.063
 8192TIP3    H224518   2.437   1.016   1.198
 8193TIP3   OH224519   6.287   6.780   3.551
 8193TIP3    H124520   6.309   6.855   3.606
 8193TIP3    H224521   6.371   6.752   3.513
 8194TIP3   OH224522   2.843   2.874   6.053
 8194TIP3    H124523   2.916   2.931   6.074
 8194TIP3    H224524   2.825   2.891   5.960
 8195TIP3   OH224525   7.194   5.949   4.412
 8195TIP3    H124526   7.099   5.956   4.417
 8195TIP3    H224527   7.220   6.012   4.345
 8196TIP3   OH224528   4.105   4.652   2.917
 8196TIP3    H124529   4.195   4.684   2.916
 8196TIP3    H224530   4.056   4.719   2.966
 8197TIP3   OH224531   4.011   4.464   0.662
 8197TIP3    H124532   3.960   4.419   0.729
 8197TIP3    H224533   3.955   4.536   0.634
 8198TIP3   OH224534   0.983   2.173   5.065
 8198TIP3    H124535   0.919   2.228   5.019
 8198TIP3    H224536   0.944   2.085   5.064
 8199TIP3   OH224537   3.245   5.909   3.454
 8199TIP3    H124538   3.216   5.843   3.516
 8199TIP3    H224539   3.256   5.861   3.372
 8200TIP3   OH224540   0.196   4.210   6.081
 8200TIP3    H124541   0.285   4.240   6.064
 8200TIP3    H224542   0.141   4.287   6.064
 8201TIP3   OH224543   1.350   7.904   0.970
 8201TIP3    H124544   1.314   7.977   1.020
 8201TIP3    H224545   1.354   7.831   1.032
 8202TIP3   OH224546   1.628   7.625   5.566
 8202TIP3    H124547   1.720   7.646   5.577
 8202TIP3    H224548   1.624   7.530   5.575
 8203TIP3   OH224549   2.261   4.792   3.795
 8203TIP3    H124550   2.179   4.790   3.745
 8203TIP3    H224551   2.316   4.855   3.749
 8204TIP3   OH224552   0.588   7.798   0.503
 8204TIP3    H124553   0.523   7.861   0.531
 8204TIP3    H224554   0.559   7.714   0.540
 8205TIP3   OH224555   1.146   2.833   1.614
 8205TIP3    H124556   1.176   2.744   1.599
 8205TIP3    H224557   1.058   2.823   1.649
 8206TIP3   OH224558   6.662   6.683   5.431
 8206TIP3    H124559   6.707   6.651   5.353
 8206TIP3    H224560   6.708   6.641   5.504
 8207TIP3   OH224561   7.280   5.138   4.475
 8207TIP3    H124562   7.245   5.062   4.522
 8207TIP3    H224563   7.320   5.192   4.543
 8208TIP3   OH224564   5.904   0.565   0.225
 8208TIP3    H124565   5.874   0.492   0.171
 8208TIP3    H224566   5.903   0.531   0.315
 8209TIP3   OH224567   2.916   7.387   2.518
 8209TIP3    H124568   2.952   7.442   2.449
 8209TIP3    H224569   2.992   7.342   2.555
 8210TIP3   OH224570   2.520   5.399   4.946
 8210TIP3    H124571   2.592   5.418   5.005
 8210TIP3    H224572   2.442   5.396   5.002
 8211TIP3   OH224573   4.430   1.436   5.245
 8211TIP3    H124574   4.439   1.416   5.152
 8211TIP3    H224575   4.368   1.371   5.278
 8212TIP3   OH224576   7.698   1.988   6.527
 8212TIP3    H124577   7.663   2.023   6.445
 8212TIP3    H224578   7.707   1.894   6.512
 8213TIP3   OH224579   0.563   5.826   1.773
 8213TIP3    H124580   0.655   5.801   1.760
 8213TIP3    H224581   0.564   5.921   1.767
 8214TIP3   OH224582   7.063   1.469   5.264
 8214TIP3    H124583   7.103   1.422   5.190
 8214TIP3    H224584   7.109   1.436   5.341
 8215TIP3   OH224585   3.988   6.266   5.089
 8215TIP3    H124586   3.970   6.344   5.141
 8215TIP3    H224587   4.043   6.212   5.146
 8216TIP3   OH224588   2.142   3.320   3.385
 8216TIP3    H124589   2.057   3.295   3.350
 8216TIP3    H224590   2.200   3.246   3.365
 8217TIP3   OH224591   7.167   7.408   6.209
 8217TIP3    H124592   7.143   7.415   6.117
 8217TIP3    H224593   7.232   7.478   6.222
 8218TIP3   OH224594   0.968   3.065   6.029
 8218TIP3    H124595   1.043   3.021   6.069
 8218TIP3    H224596   0.905   3.075   6.100
 8219TIP3   OH224597   2.200   1.410   1.287
 8219TIP3    H124598   2.115   1.417   1.331
 8219TIP3    H224599   2.221   1.499   1.260
 8220TIP3   OH224600   2.941   6.142   4.194
 8220TIP3    H124601   2.996   6.194   4.252
 8220TIP3    H224602   2.856   6.186   4.195
 8221TIP3   OH224603   2.067   6.676   1.765
 8221TIP3    H124604   2.071   6.585   1.796
 8221TIP3    H224605   2.146   6.716   1.801
 8222TIP3   OH224606   7.410   3.451   6.802
 8222TIP3    H124607   7.329   3.414   6.768
 8222TIP3    H224608   7.394   3.545   6.805
 8223TIP3   OH224609   2.557   0.944   4.102
 8223TIP3    H124610   2.545   0.859   4.144
 8223TIP3    H224611   2.613   0.925   4.026
 8224TIP3   OH224612   1.245   4.910   0.495
 8224TIP3    H124613   1.236   4.963   0.416
 8224TIP3    H224614   1.164   4.925   0.544
 8225TIP3   OH224615   3.030   6.946   4.971
 8225TIP3    H124616   2.993   7.017   5.025
 8225TIP3    H224617   2.954   6.904   4.931
 8226TIP3   OH224618   2.171   3.397   0.354
 8226TIP3    H124619   2.123   3.336   0.299
 8226TIP3    H224620   2.241   3.343   0.392
 8227TIP3   OH224621   7.293   4.978   1.473
 8227TIP3    H124622   7.253   5.048   1.524
 8227TIP3    H224623   7.382   5.010   1.453
 8228TIP3   OH224624   6.807   7.442   4.055
 8228TIP3    H124625   6.793   7.536   4.061
 8228TIP3    H224626   6.856   7.419   4.135
 8229TIP3   OH224627   4.149   5.383   5.670
 8229TIP3    H124628   4.108   5.390   5.756
 8229TIP3    H224629   4.147   5.472   5.636
 8230TIP3   OH224630   5.467   4.001   5.746
 8230TIP3    H124631   5.512   3.933   5.797
 8230TIP3    H224632   5.432   4.061   5.812
 8231TIP3   OH224633   5.816   5.189   0.179
 8231TIP3    H124634   5.844   5.256   0.241
 8231TIP3    H224635   5.889   5.182   0.117
 8232TIP3   OH224636   7.189   1.783   1.913
 8232TIP3    H124637   7.190   1.819   2.002
 8232TIP3    H224638   7.148   1.851   1.860
 8233TIP3   OH224639   3.221   0.571   5.309
 8233TIP3    H124640   3.194   0.504   5.247
 8233TIP3    H224641   3.149   0.574   5.373
 8234TIP3   OH224642   3.710   7.020   2.231
 8234TIP3    H124643   3.670   6.937   2.204
 8234TIP3    H224644   3.804   7.003   2.229
 8235TIP3   OH224645   1.952   7.017   3.936
 8235TIP3    H124646   1.908   6.932   3.927
 8235TIP3    H224647   1.962   7.028   4.031
 8236TIP3   OH224648   6.361   4.384   0.981
 8236TIP3    H124649   6.268   4.363   0.994
 8236TIP3    H224650   6.402   4.299   0.965
 8237TIP3   OH224651   6.737   0.770   4.163
 8237TIP3    H124652   6.829   0.745   4.155
 8237TIP3    H224653   6.691   0.687   4.174
 8238TIP3   OH224654   0.729   3.206   5.580
 8238TIP3    H124655   0.636   3.183   5.572
 8238TIP3    H224656   0.752   3.182   5.670
 8239TIP3   OH224657   7.684   5.662   0.743
 8239TIP3    H124658   7.608   5.612   0.713
 8239TIP3    H224659   7.758   5.605   0.724
 8240TIP3   OH224660   0.199   4.666   1.874
 8240TIP3    H124661   0.150   4.613   1.938
 8240TIP3    H224662   0.157   4.647   1.790
 8241TIP3   OH224663   4.466   3.379   6.338
 8241TIP3    H124664   4.414   3.458   6.355
 8241TIP3    H224665   4.402   3.309   6.330
 8242TIP3   OH224666   5.323   1.507   4.578
 8242TIP3    H124667   5.301   1.569   4.509
 8242TIP3    H224668   5.281   1.425   4.550
 8243TIP3   OH224669   7.355   2.863   4.332
 8243TIP3    H124670   7.369   2.912   4.413
 8243TIP3    H224671   7.261   2.848   4.329
 8244TIP3   OH224672   1.797   4.343   6.043
 8244TIP3    H124673   1.832   4.411   5.986
 8244TIP3    H224674   1.860   4.272   6.037
 8245TIP3   OH224675   4.920   1.199   0.488
 8245TIP3    H124676   4.928   1.218   0.582
 8245TIP3    H224677   4.984   1.131   0.471
 8246TIP3   OH224678   6.297   0.642   4.722
 8246TIP3    H124679   6.232   0.579   4.751
 8246TIP3    H224680   6.246   0.711   4.678
 8247TIP3   OH224681   0.421   1.813   5.264
 8247TIP3    H124682   0.446   1.893   5.217
 8247TIP3    H224683   0.480   1.811   5.340
 8248TIP3   OH224684   3.620   2.148   1.715
 8248TIP3    H124685   3.526   2.164   1.706
 8248TIP3    H224686   3.650   2.216   1.776
 8249TIP3   OH224687   4.308   3.452   0.729
 8249TIP3    H124688   4.307   3.414   0.641
 8249TIP3    H224689   4.337   3.542   0.716
 8250TIP3   OH224690   0.834   0.939   1.385
 8250TIP3    H124691   0.741   0.919   1.394
 8250TIP3    H224692   0.840   1.033   1.397
 8251TIP3   OH224693   7.457   6.465   5.610
 8251TIP3    H124694   7.403   6.387   5.594
 8251TIP3    H224695   7.424   6.501   5.692
 8252TIP3   OH224696   0.974   2.816   2.173
 8252TIP3    H124697   1.028   2.812   2.253
 8252TIP3    H224698   1.015   2.752   2.114
 8253TIP3   OH224699   2.174   4.011   5.524
 8253TIP3    H124700   2.104   3.951   5.498
 8253TIP3    H224701   2.218   3.968   5.597
 8254TIP3   OH224702   5.847   0.783   0.071
 8254TIP3    H124703   5.866   0.707   0.127
 8254TIP3    H224704   5.932   0.813   0.041
 8255TIP3   OH224705   5.806   1.141   1.993
 8255TIP3    H124706   5.780   1.231   1.975
 8255TIP3    H224707   5.761   1.119   2.075
 8256TIP3   OH224708   6.502   3.730   4.601
 8256TIP3    H124709   6.558   3.681   4.662
 8256TIP3    H224710   6.554   3.805   4.576
 8257TIP3   OH224711   2.101   4.263   2.505
 8257TIP3    H124712   2.181   4.300   2.542
 8257TIP3    H224713   2.106   4.283   2.412
 8258TIP3   OH224714   2.596   7.331   2.203
 8258TIP3    H124715   2.555   7.404   2.156
 8258TIP3    H224716   2.612   7.366   2.291
 8259TIP3   OH224717   0.825   7.373   5.497
 8259TIP3    H124718   0.795   7.463   5.506
 8259TIP3    H224719   0.746   7.323   5.479
 8260TIP3   OH224720   3.995   4.411   3.585
 8260TIP3    H124721   3.976   4.480   3.521
 8260TIP3    H224722   3.934   4.340   3.562
 8261TIP3   OH224723   8.138   1.745   4.448
 8261TIP3    H124724   8.084   1.702   4.381
 8261TIP3    H224725   8.082   1.747   4.526
 8262TIP3   OH224726   5.558   0.314   6.586
 8262TIP3    H124727   5.527   0.225   6.568
 8262TIP3    H224728   5.653   0.305   6.597
 8263TIP3   OH224729   2.871   4.014   6.416
 8263TIP3    H124730   2.944   4.046   6.363
 8263TIP3    H224731   2.793   4.038   6.366
 8264TIP3   OH224732   4.697   2.557   0.586
 8264TIP3    H124733   4.679   2.571   0.493
 8264TIP3    H224734   4.612   2.530   0.622
 8265TIP3   OH224735   1.142   5.413   3.521
 8265TIP3    H124736   1.229   5.400   3.559
 8265TIP3    H224737   1.099   5.328   3.530
 8266TIP3   OH224738   7.818   3.243   0.951
 8266TIP3    H124739   7.872   3.318   0.975
 8266TIP3    H224740   7.866   3.201   0.879
 8267TIP3   OH224741   0.343   4.567   4.192
 8267TIP3    H124742   0.253   4.594   4.213
 8267TIP3    H224743   0.396   4.611   4.258
 8268TIP3   OH224744   4.062   5.160   3.751
 8268TIP3    H124745   4.013   5.160   3.669
 8268TIP3    H224746   3.997   5.184   3.818
 8269TIP3   OH224747   0.580   1.799   0.239
 8269TIP3    H124748   0.638   1.847   0.180
 8269TIP3    H224749   0.614   1.710   0.239
 8270TIP3   OH224750   7.879   0.547   2.537
 8270TIP3    H124751   7.820   0.620   2.515
 8270TIP3    H224752   7.911   0.568   2.625
 8271TIP3   OH224753   2.215   6.459   2.414
 8271TIP3    H124754   2.163   6.524   2.461
 8271TIP3    H224755   2.191   6.375   2.453
 8272TIP3   OH224756   6.574   7.771   6.874
 8272TIP3    H124757   6.605   7.861   6.874
 8272TIP3    H224758   6.536   7.758   6.788
 8273TIP3   OH224759   1.981   0.707   6.505
 8273TIP3    H124760   2.043   0.735   6.572
 8273TIP3    H224761   2.031   0.712   6.423
 8274TIP3   OH224762   7.068   5.874   1.104
 8274TIP3    H124763   7.017   5.796   1.127
 8274TIP3    H224764   7.090   5.861   1.011
 8275TIP3   OH224765   8.333   6.571   0.029
 8275TIP3    H124766   8.257   6.578   0.086
 8275TIP3    H224767   8.407   6.561   0.089
 8276TIP3   OH224768   7.112   4.219   5.937
 8276TIP3    H124769   7.022   4.217   5.970
 8276TIP3    H224770   7.120   4.305   5.895
 8277TIP3   OH224771   3.783   3.983   1.342
 8277TIP3    H124772   3.857   4.016   1.291
 8277TIP3    H224773   3.809   3.895   1.369
 8278TIP3   OH224774   6.980   2.348   4.700
 8278TIP3    H124775   7.010   2.438   4.684
 8278TIP3    H224776   7.044   2.293   4.654
 8279TIP3   OH224777   3.148   5.073   3.687
 8279TIP3    H124778   3.085   5.144   3.679
 8279TIP3    H224779   3.097   4.999   3.720
 8280TIP3   OH224780   4.127   0.477   0.333
 8280TIP3    H124781   4.189   0.452   0.265
 8280TIP3    H224782   4.119   0.572   0.323
 8281TIP3   OH224783   2.984   5.206   1.518
 8281TIP3    H124784   2.936   5.212   1.601
 8281TIP3    H224785   3.076   5.217   1.542
 8282TIP3   OH224786   5.939   6.797   4.180
 8282TIP3    H124787   5.998   6.749   4.122
 8282TIP3    H224788   5.917   6.735   4.249
 8283TIP3   OH224789   7.815   2.726   5.888
 8283TIP3    H124790   7.736   2.779   5.889
 8283TIP3    H224791   7.874   2.771   5.948
 8284TIP3   OH224792   6.736   0.942   6.630
 8284TIP3    H124793   6.729   1.010   6.697
 8284TIP3    H224794   6.805   0.972   6.571
 8285TIP3   OH224795   1.649   1.109   0.208
 8285TIP3    H124796   1.665   1.138   0.119
 8285TIP3    H224797   1.560   1.072   0.206
 8286TIP3   OH224798   1.103   4.867   2.508
 8286TIP3    H124799   1.181   4.869   2.564
 8286TIP3    H224800   1.099   4.955   2.469
 8287TIP3   OH224801   3.323   6.089   2.369
 8287TIP3    H124802   3.264   6.082   2.445
 8287TIP3    H224803   3.286   6.160   2.317
 8288TIP3   OH224804   3.784   5.468   5.640
 8288TIP3    H124805   3.801   5.481   5.733
 8288TIP3    H224806   3.766   5.374   5.632
 8289TIP3   OH224807   2.762   0.573   3.657
 8289TIP3    H124808   2.727   0.526   3.581
 8289TIP3    H224809   2.828   0.514   3.693
 8290TIP3   OH224810   4.713   5.490   3.679
 8290TIP3    H124811   4.783   5.547   3.709
 8290TIP3    H224812   4.752   5.438   3.608
 8291TIP3   OH224813   5.166   5.167   2.138
 8291TIP3    H124814   5.096   5.172   2.072
 8291TIP3    H224815   5.124   5.195   2.219
 8292TIP3   OH224816   6.506   1.431   3.826
 8292TIP3    H124817   6.567   1.372   3.781
 8292TIP3    H224818   6.559   1.509   3.847
 8293TIP3   OH224819   6.374   3.001   3.804
 8293TIP3    H124820   6.361   3.054   3.882
 8293TIP3    H224821   6.286   2.973   3.778
 8294TIP3   OH224822   2.925   3.003   5.813
 8294TIP3    H124823   2.995   2.938   5.811
 8294TIP3    H224824   2.968   3.085   5.837
 8295TIP3   OH224825   1.103   1.033   4.238
 8295TIP3    H124826   1.129   0.982   4.315
 8295TIP3    H224827   1.029   1.086   4.269
 8296TIP3   OH224828   4.742   5.447   4.544
 8296TIP3    H124829   4.693   5.523   4.512
 8296TIP3    H224830   4.676   5.392   4.587
 8297TIP3   OH224831   3.885   0.419   5.829
 8297TIP3    H124832   3.824   0.406   5.756
 8297TIP3    H224833   3.831   0.451   5.901
 8298TIP3   OH224834   4.236   7.716   5.514
 8298TIP3    H124835   4.169   7.741   5.577
 8298TIP3    H224836   4.317   7.717   5.565
 8299TIP3   OH224837   3.642   3.096   4.330
 8299TIP3    H124838   3.685   3.061   4.409
 8299TIP3    H224839   3.714   3.125   4.275
 8300TIP3   OH224840   2.275   2.635   0.344
 8300TIP3    H124841   2.370   2.648   0.350
 8300TIP3    H224842   2.240   2.722   0.329
 8301TIP3   OH224843   7.881   0.376   4.493
 8301TIP3    H124844   7.798   0.388   4.447
 8301TIP3    H224845   7.905   0.465   4.521
 8302TIP3   OH224846   1.620   2.480   3.015
 8302TIP3    H124847   1.698   2.488   2.960
 8302TIP3    H224848   1.550   2.455   2.954
 8303TIP3   OH224849   1.986   3.179   1.881
 8303TIP3    H124850   1.903   3.131   1.882
 8303TIP3    H224851   1.967   3.261   1.927
 8304TIP3   OH224852   3.733   2.416   3.727
 8304TIP3    H124853   3.808   2.456   3.682
 8304TIP3    H224854   3.666   2.484   3.724
 8305TIP3   OH224855   7.936   2.839   1.554
 8305TIP3    H124856   7.981   2.885   1.484
 8305TIP3    H224857   7.981   2.755   1.560
 8306TIP3   OH224858   0.523   7.910   4.003
 8306TIP3    H124859   0.526   7.835   3.943
 8306TIP3    H224860   0.511   7.872   4.090
 8307TIP3   OH224861   5.876   1.829   4.116
 8307TIP3    H124862   5.901   1.920   4.104
 8307TIP3    H224863   5.793   1.833   4.163
 8308TIP3   OH224864   2.409   5.359   1.712
 8308TIP3    H124865   2.436   5.271   1.735
 8308TIP3    H224866   2.318   5.349   1.683
 8309TIP3   OH224867   0.638   0.756   0.207
 8309TIP3    H124868   0.713   0.745   0.148
 8309TIP3    H224869   0.642   0.847   0.235
 8310TIP3   OH224870   3.180   6.367   3.588
 8310TIP3    H124871   3.247   6.384   3.521
 8310TIP3    H224872   3.205   6.424   3.661
 8311TIP3   OH224873   4.911   4.047   6.513
 8311TIP3    H124874   4.826   4.059   6.471
 8311TIP3    H224875   4.941   3.962   6.481
 8312TIP3   OH224876   7.516   7.270   0.512
 8312TIP3    H124877   7.501   7.345   0.570
 8312TIP3    H224878   7.514   7.194   0.570
 8313TIP3   OH224879   6.856   7.885   1.452
 8313TIP3    H124880   6.878   7.844   1.369
 8313TIP3    H224881   6.796   7.956   1.428
 8314TIP3   OH224882   2.870   4.449   6.474
 8314TIP3    H124883   2.812   4.373   6.479
 8314TIP3    H224884   2.949   4.422   6.520
 8315TIP3   OH224885   5.256   2.225   6.430
 8315TIP3    H124886   5.245   2.186   6.517
 8315TIP3    H224887   5.194   2.298   6.429
 8316TIP3   OH224888   3.230   3.201   3.431
 8316TIP3    H124889   3.300   3.224   3.493
 8316TIP3    H224890   3.157   3.257   3.457
 8317TIP3   OH224891   3.323   6.069   3.173
 8317TIP3    H124892   3.401   6.112   3.208
 8317TIP3    H224893   3.344   6.053   3.081
 8318TIP3   OH224894   4.590   6.103   5.010
 8318TIP3    H124895   4.545   6.168   4.955
 8318TIP3    H224896   4.570   6.130   5.100
 8319TIP3   OH224897   0.637   1.554   5.231
 8319TIP3    H124898   0.690   1.484   5.270
 8319TIP3    H224899   0.553   1.513   5.211
 8320TIP3   OH224900   2.791   3.201   3.905
 8320TIP3    H124901   2.762   3.249   3.828
 8320TIP3    H224902   2.887   3.199   3.898
 8321TIP3   OH224903   2.410   1.806   3.737
 8321TIP3    H124904   2.430   1.878   3.677
 8321TIP3    H224905   2.481   1.743   3.724
 8322TIP3   OH224906   7.951   7.639   4.013
 8322TIP3    H124907   8.011   7.607   4.079
 8322TIP3    H224908   7.954   7.735   4.022
 8323TIP3   OH224909   6.800   3.432   2.512
 8323TIP3    H124910   6.803   3.402   2.421
 8323TIP3    H224911   6.876   3.390   2.553
 8324TIP3   OH224912   6.000   2.813   4.884
 8324TIP3    H124913   6.068   2.754   4.853
 8324TIP3    H224914   5.932   2.809   4.816
 8325TIP3   OH224915   2.566   0.957   0.629
 8325TIP3    H124916   2.506   1.008   0.683
 8325TIP3    H224917   2.560   0.997   0.542
 8326TIP3   OH224918   6.005   0.409   0.634
 8326TIP3    H124919   5.916   0.404   0.598
 8326TIP3    H224920   6.005   0.347   0.707
 8327TIP3   OH224921   5.252   0.297   1.672
 8327TIP3    H124922   5.318   0.275   1.607
 8327TIP3    H224923   5.293   0.363   1.728
 8328TIP3   OH224924   0.692   4.920   6.417
 8328TIP3    H124925   0.720   4.938   6.506
 8328TIP3    H224926   0.710   4.827   6.405
 8329TIP3   OH224927   7.394   5.481   2.003
 8329TIP3    H124928   7.420   5.515   1.918
 8329TIP3    H224929   7.313   5.433   1.987
 8330TIP3   OH224930   6.403   4.660   3.056
 8330TIP3    H124931   6.395   4.754   3.040
 8330TIP3    H224932   6.461   4.653   3.132
 8331TIP3   OH224933   7.446   2.549   6.208
 8331TIP3    H124934   7.386   2.539   6.134
 8331TIP3    H224935   7.522   2.595   6.171
 8332TIP3   OH224936   8.258   0.699   1.796
 8332TIP3    H124937   8.191   0.748   1.844
 8332TIP3    H224938   8.209   0.655   1.726
 8333TIP3   OH224939   1.555   7.564   4.400
 8333TIP3    H124940   1.476   7.567   4.346
 8333TIP3    H224941   1.627   7.563   4.337
 8334TIP3   OH224942   7.506   7.910   2.840
 8334TIP3    H124943   7.576   7.925   2.776
 8334TIP3    H224944   7.552   7.883   2.919
 8335TIP3   OH224945   0.075   3.274   3.650
 8335TIP3    H124946   0.060   3.367   3.631
 8335TIP3    H224947  -0.012   3.237   3.658
 8336TIP3   OH224948   8.282   6.596   5.456
 8336TIP3    H124949   8.224   6.670   5.473
 8336TIP3    H224950   8.286   6.549   5.539
 8337TIP3   OH224951   0.569   7.255   5.399
 8337TIP3    H124952   0.527   7.321   5.455
 8337TIP3    H224953   0.563   7.292   5.311
 8338TIP3   OH224954   4.241   2.674   3.817
 8338TIP3    H124955   4.230   2.620   3.895
 8338TIP3    H224956   4.211   2.619   3.745
 8339TIP3   OH224957   3.273   7.350   0.096
 8339TIP3    H124958   3.300   7.272   0.143
 8339TIP3    H224959   3.195   7.380   0.142
 8340TIP3   OH224960   3.919   5.561   3.855
 8340TIP3    H124961   4.011   5.547   3.878
 8340TIP3    H224962   3.871   5.547   3.937
 8341TIP3   OH224963   5.601   7.219   3.160
 8341TIP3    H124964   5.629   7.169   3.237
 8341TIP3    H224965   5.597   7.309   3.191
 8342TIP3   OH224966   4.189   2.099   4.386
 8342TIP3    H124967   4.127   2.070   4.453
 8342TIP3    H224968   4.146   2.080   4.303
 8343TIP3   OH224969   1.417   0.176   4.753
 8343TIP3    H124970   1.391   0.222   4.673
 8343TIP3    H224971   1.436   0.246   4.815
 8344TIP3   OH224972   1.798   3.265   6.171
 8344TIP3    H124973   1.893   3.255   6.167
 8344TIP3    H224974   1.782   3.353   6.138
 8345TIP3   OH224975   3.278   1.923   3.214
 8345TIP3    H124976   3.183   1.911   3.212
 8345TIP3    H224977   3.290   2.018   3.208
 8346TIP3   OH224978   6.695   1.025   3.658
 8346TIP3    H124979   6.739   0.967   3.720
 8346TIP3    H224980   6.607   0.988   3.649
 8347TIP3   OH224981   0.791   6.721   3.617
 8347TIP3    H124982   0.712   6.740   3.668
 8347TIP3    H224983   0.771   6.754   3.530
 8348TIP3   OH224984   6.970   5.324   1.004
 8348TIP3    H124985   7.003   5.288   0.922
 8348TIP3    H224986   7.046   5.321   1.063
 8349TIP3   OH224987   3.331   1.661   0.217
 8349TIP3    H124988   3.313   1.661   0.311
 8349TIP3    H224989   3.246   1.651   0.175
 8350TIP3   OH224990   0.674   4.482   3.322
 8350TIP3    H124991   0.729   4.470   3.244
 8350TIP3    H224992   0.605   4.542   3.293
 8351TIP3   OH224993   6.780   7.349   1.765
 8351TIP3    H124994   6.786   7.434   1.722
 8351TIP3    H224995   6.836   7.291   1.714
 8352TIP3   OH224996   7.469   0.250   6.369
 8352TIP3    H124997   7.452   0.258   6.275
 8352TIP3    H224998   7.383   0.256   6.409
 8353TIP3   OH224999   3.881   4.577   6.028
 8353TIP3    H125000   3.814   4.579   6.096
 8353TIP3    H225001   3.855   4.504   5.971
 8354TIP3   OH225002   4.204   6.831   3.609
 8354TIP3    H125003   4.257   6.763   3.567
 8354TIP3    H225004   4.129   6.783   3.646
 8355TIP3   OH225005   4.468   5.008   4.799
 8355TIP3    H125006   4.500   5.038   4.714
 8355TIP3    H225007   4.547   4.984   4.848
 8356TIP3   OH225008   7.659   1.624   2.869
 8356TIP3    H125009   7.568   1.630   2.839
 8356TIP3    H225010   7.652   1.613   2.964
 8357TIP3   OH225011   5.627   1.578   3.662
 8357TIP3    H125012   5.701   1.597   3.719
 8357TIP3    H225013   5.656   1.505   3.607
 8358TIP3   OH225014   0.213   4.309   4.647
 8358TIP3    H125015   0.227   4.216   4.634
 8358TIP3    H225016   0.229   4.323   4.741
 8359TIP3   OH225017   0.457   6.691   6.168
 8359TIP3    H125018   0.380   6.721   6.217
 8359TIP3    H225019   0.469   6.600   6.195
 8360TIP3   OH225020   7.925   7.830   6.706
 8360TIP3    H125021   8.000   7.787   6.745
 8360TIP3    H225022   7.918   7.913   6.753
 8361TIP3   OH225023   6.778   4.627   6.018
 8361TIP3    H125024   6.772   4.567   6.092
 8361TIP3    H225025   6.716   4.697   6.038
 8362TIP3   OH225026   7.334  -0.007   5.964
 8362TIP3    H125027   7.272   0.062   5.989
 8362TIP3    H225028   7.414   0.041   5.942
 8363TIP3   OH225029   5.808   5.534   2.914
 8363TIP3    H125030   5.833   5.452   2.871
 8363TIP3    H225031   5.870   5.544   2.985
 8364TIP3   OH225032   5.455   1.780   1.347
 8364TIP3    H125033   5.389   1.847   1.364
 8364TIP3    H225034   5.404   1.704   1.317
 8365TIP3   OH225035   5.768   5.010   5.907
 8365TIP3    H125036   5.704   4.953   5.950
 8365TIP3    H225037   5.822   5.044   5.978
 8366TIP3   OH225038   4.898   3.163   4.629
 8366TIP3    H125039   4.912   3.115   4.711
 8366TIP3    H225040   4.846   3.240   4.655
 8367TIP3   OH225041   8.259   1.906   5.047
 8367TIP3    H125042   8.182   1.902   5.103
 8367TIP3    H225043   8.229   1.948   4.966
 8368TIP3   OH225044   7.706   5.184   1.725
 8368TIP3    H125045   7.721   5.269   1.684
 8368TIP3    H225046   7.619   5.192   1.765
 8369TIP3   OH225047   3.535   6.227   6.080
 8369TIP3    H125048   3.510   6.136   6.063
 8369TIP3    H225049   3.532   6.236   6.175
 8370TIP3   OH225050   2.546   3.694   1.931
 8370TIP3    H125051   2.488   3.770   1.939
 8370TIP3    H225052   2.527   3.642   2.010
 8371TIP3   OH225053   3.015   3.400   2.704
 8371TIP3    H125054   3.000   3.306   2.720
 8371TIP3    H225055   3.089   3.422   2.760
 8372TIP3   OH225056   3.014   2.677   1.263
 8372TIP3    H125057   3.108   2.697   1.262
 8372TIP3    H225058   3.003   2.609   1.196
 8373TIP3   OH225059   8.165   3.428   6.418
 8373TIP3    H125060   8.099   3.360   6.407
 8373TIP3    H225061   8.117   3.502   6.455
 8374TIP3   OH225062   2.687   3.721   1.698
 8374TIP3    H125063   2.637   3.718   1.780
 8374TIP3    H225064   2.755   3.655   1.709
 8375TIP3   OH225065   7.377   1.803   5.965
 8375TIP3    H125066   7.467   1.774   5.981
 8375TIP3    H225067   7.386   1.875   5.903
 8376TIP3   OH225068   8.124   2.370   0.125
 8376TIP3    H125069   8.084   2.420   0.196
 8376TIP3    H225070   8.211   2.409   0.115
 8377TIP3   OH225071   8.288   3.451   3.204
 8377TIP3    H125072   8.321   3.376   3.254
 8377TIP3    H225073   8.199   3.424   3.178
 8378TIP3   OH225074   4.050   6.619   1.497
 8378TIP3    H125075   4.089   6.660   1.574
 8378TIP3    H225076   3.980   6.564   1.533
 8379TIP3   OH225077   8.306   7.041   0.118
 8379TIP3    H125078   8.254   6.961   0.126
 8379TIP3    H225079   8.325   7.067   0.208
 8380TIP3   OH225080   4.383   3.735   6.166
 8380TIP3    H125081   4.309   3.675   6.161
 8380TIP3    H225082   4.370   3.796   6.094
 8381TIP3   OH225083   1.072   1.168   6.007
 8381TIP3    H125084   1.126   1.157   5.929
 8381TIP3    H225085   1.012   1.240   5.985
 8382TIP3   OH225086   4.266   7.209   5.532
 8382TIP3    H125087   4.360   7.190   5.536
 8382TIP3    H225088   4.255   7.286   5.588
 8383TIP3   OH225089   2.066   5.823   2.043
 8383TIP3    H125090   2.142   5.784   1.999
 8383TIP3    H225091   2.084   5.812   2.136
 8384TIP3   OH225092   0.029   6.295   5.299
 8384TIP3    H125093   0.111   6.328   5.337
 8384TIP3    H225094   0.027   6.332   5.210
 8385TIP3   OH225095   3.307   5.712   1.727
 8385TIP3    H125096   3.246   5.753   1.666
 8385TIP3    H225097   3.322   5.778   1.794
 8386TIP3   OH225098   5.295   2.573   3.991
 8386TIP3    H125099   5.267   2.482   4.001
 8386TIP3    H225100   5.230   2.612   3.933
 8387TIP3   OH225101   1.734   1.607   0.504
 8387TIP3    H125102   1.673   1.624   0.576
 8387TIP3    H225103   1.703   1.526   0.464
 8388TIP3   OH225104   0.844   6.835   2.575
 8388TIP3    H125105   0.816   6.758   2.526
 8388TIP3    H225106   0.939   6.826   2.584
 8389TIP3   OH225107   7.888   7.658   4.791
 8389TIP3    H125108   7.829   7.584   4.782
 8389TIP3    H225109   7.848   7.728   4.741
 8390TIP3   OH225110   3.488   3.819   2.352
 8390TIP3    H125111   3.448   3.752   2.297
 8390TIP3    H225112   3.419   3.884   2.365
 8391TIP3   OH225113   8.146   1.124   3.005
 8391TIP3    H125114   8.078   1.069   3.044
 8391TIP3    H225115   8.208   1.061   2.967
 8392TIP3   OH225116   5.955   7.225   0.282
 8392TIP3    H125117   6.045   7.259   0.285
 8392TIP3    H225118   5.915   7.258   0.363
 8393TIP3   OH225119   3.122   2.560   0.769
 8393TIP3    H125120   3.046   2.616   0.754
 8393TIP3    H225121   3.135   2.562   0.864
 8394TIP3   OH225122   5.810   7.477   0.231
 8394TIP3    H125123   5.774   7.467   0.319
 8394TIP3    H225124   5.891   7.426   0.232
 8395TIP3   OH225125   5.363   2.587   0.632
 8395TIP3    H125126   5.440   2.543   0.669
 8395TIP3    H225127   5.305   2.600   0.707
 8396TIP3   OH225128   0.879   7.173   3.664
 8396TIP3    H125129   0.898   7.083   3.691
 8396TIP3    H225130   0.787   7.171   3.638
 8397TIP3   OH225131   0.742   4.119   4.950
 8397TIP3    H125132   0.654   4.095   4.978
 8397TIP3    H225133   0.732   4.205   4.910
 8398TIP3   OH225134   3.233   3.405   2.023
 8398TIP3    H125135   3.143   3.374   2.037
 8398TIP3    H225136   3.279   3.329   1.987
 8399TIP3   OH225137   4.693   5.812   4.402
 8399TIP3    H125138   4.656   5.876   4.341
 8399TIP3    H225139   4.620   5.753   4.420
 8400TIP3   OH225140   6.901   2.927   2.358
 8400TIP3    H125141   6.835   2.872   2.316
 8400TIP3    H225142   6.937   2.980   2.287
 8401TIP3   OH225143   6.626   6.573   0.170
 8401TIP3    H125144   6.618   6.521   0.090
 8401TIP3    H225145   6.579   6.654   0.151
 8402TIP3   OH225146   0.459   4.658   0.205
 8402TIP3    H125147   0.552   4.635   0.200
 8402TIP3    H225148   0.456   4.751   0.184
 8403TIP3   OH225149   2.900   6.854   1.740
 8403TIP3    H125150   2.840   6.806   1.797
 8403TIP3    H225151   2.968   6.888   1.798
 8404TIP3   OH225152   4.556   4.811   3.687
 8404TIP3    H125153   4.590   4.813   3.598
 8404TIP3    H225154   4.511   4.727   3.693
 8405TIP3   OH225155   1.542   1.508   0.304
 8405TIP3    H125156   1.550   1.602   0.314
 8405TIP3    H225157   1.623   1.482   0.258
 8406TIP3   OH225158   1.284   6.121   4.409
 8406TIP3    H125159   1.351   6.077   4.460
 8406TIP3    H225160   1.260   6.058   4.341
 8407TIP3   OH225161   7.822   5.765   5.304
 8407TIP3    H125162   7.762   5.732   5.371
 8407TIP3    H225163   7.769   5.825   5.251
 8408TIP3   OH225164   4.799   7.591   0.900
 8408TIP3    H125165   4.807   7.496   0.898
 8408TIP3    H225166   4.707   7.607   0.924
 8409TIP3   OH225167   1.556   4.997   4.100
 8409TIP3    H125168   1.473   5.044   4.094
 8409TIP3    H225169   1.594   5.004   4.012
 8410TIP3   OH225170   2.428   0.973   1.976
 8410TIP3    H125171   2.395   1.062   1.993
 8410TIP3    H225172   2.422   0.929   2.060
 8411TIP3   OH225173   8.057   1.745   3.345
 8411TIP3    H125174   7.978   1.697   3.319
 8411TIP3    H225175   8.127   1.680   3.340
 8412TIP3   OH225176   7.804   3.740   0.159
 8412TIP3    H125177   7.851   3.745   0.242
 8412TIP3    H225178   7.746   3.817   0.160
 8413TIP3   OH225179   3.212   5.640   0.411
 8413TIP3    H125180   3.211   5.709   0.477
 8413TIP3    H225181   3.302   5.606   0.413
 8414TIP3   OH225182   1.664   2.277   6.245
 8414TIP3    H125183   1.701   2.189   6.242
 8414TIP3    H225184   1.570   2.263   6.258
 8415TIP3   OH225185   1.638   4.860   5.474
 8415TIP3    H125186   1.630   4.923   5.547
 8415TIP3    H225187   1.716   4.809   5.495
 8416TIP3   OH225188   1.971   1.359   5.659
 8416TIP3    H125189   1.977   1.263   5.659
 8416TIP3    H225190   1.981   1.384   5.567
 8417TIP3   OH225191   4.299   0.339   2.403
 8417TIP3    H125192   4.218   0.388   2.398
 8417TIP3    H225193   4.310   0.320   2.497
 8418TIP3   OH225194   3.582   1.902   0.843
 8418TIP3    H125195   3.609   1.826   0.792
 8418TIP3    H225196   3.632   1.974   0.807
 8419TIP3   OH225197   1.559   2.032   3.150
 8419TIP3    H125198   1.615   1.986   3.089
 8419TIP3    H225199   1.470   2.011   3.122
 8420TIP3   OH225200   3.102   6.081   2.774
 8420TIP3    H125201   3.049   6.142   2.721
 8420TIP3    H225202   3.164   6.043   2.712
 8421TIP3   OH225203   4.465   7.170   1.685
 8421TIP3    H125204   4.509   7.203   1.764
 8421TIP3    H225205   4.522   7.100   1.653
 8422TIP3   OH225206   0.458   4.313   1.574
 8422TIP3    H125207   0.438   4.397   1.616
 8422TIP3    H225208   0.553   4.305   1.580
 8423TIP3   OH225209   1.273   7.143   1.505
 8423TIP3    H125210   1.318   7.191   1.435
 8423TIP3    H225211   1.206   7.205   1.537
 8424TIP3   OH225212   0.117   5.019   1.693
 8424TIP3    H125213   0.051   4.994   1.758
 8424TIP3    H225214   0.134   4.938   1.645
 8425TIP3   OH225215   2.999   6.002   2.391
 8425TIP3    H125216   3.030   6.010   2.300
 8425TIP3    H225217   3.015   6.088   2.429
 8426TIP3   OH225218   0.693   0.095   1.828
 8426TIP3    H125219   0.649   0.149   1.763
 8426TIP3    H225220   0.697   0.008   1.788
 8427TIP3   OH225221   5.788   0.849   1.980
 8427TIP3    H125222   5.853   0.919   1.969
 8427TIP3    H225223   5.837   0.777   2.020
 8428TIP3   OH225224   0.679   1.498   1.021
 8428TIP3    H125225   0.744   1.539   1.077
 8428TIP3    H225226   0.644   1.426   1.073
 8429TIP3   OH225227   4.834   7.643   4.584
 8429TIP3    H125228   4.766   7.581   4.559
 8429TIP3    H225229   4.854   7.691   4.504
 8430TIP3   OH225230   8.023   6.463   1.968
 8430TIP3    H125231   7.995   6.550   1.939
 8430TIP3    H225232   8.021   6.468   2.064
 8431TIP3   OH225233   6.838   4.875   3.398
 8431TIP3    H125234   6.815   4.804   3.338
 8431TIP3    H225235   6.814   4.955   3.351
 8432TIP3   OH225236   6.537   2.133   0.032
 8432TIP3    H125237   6.488   2.081   0.096
 8432TIP3    H225238   6.588   2.193   0.086
 8433TIP3   OH225239  -0.033   1.867   0.688
 8433TIP3    H125240   0.007   1.794   0.736
 8433TIP3    H225241   0.033   1.893   0.624
 8434TIP3   OH225242   7.477   2.880   4.103
 8434TIP3    H125243   7.447   2.850   4.189
 8434TIP3    H225244   7.535   2.809   4.073
 8435TIP3   OH225245   3.238   2.688   5.566
 8435TIP3    H125246   3.313   2.637   5.597
 8435TIP3    H225247   3.183   2.625   5.520
 8436TIP3   OH225248   3.156   5.905   6.321
 8436TIP3    H125249   3.204   5.988   6.317
 8436TIP3    H225250   3.079   5.919   6.266
 8437TIP3   OH225251   6.650   1.410   1.142
 8437TIP3    H125252   6.555   1.415   1.126
 8437TIP3    H225253   6.667   1.478   1.206
 8438TIP3   OH225254   1.197   0.567   1.099
 8438TIP3    H125255   1.132   0.634   1.081
 8438TIP3    H225256   1.231   0.543   1.013
 8439TIP3   OH225257   4.589   2.902   0.650
 8439TIP3    H125258   4.645   2.889   0.573
 8439TIP3    H225259   4.527   2.829   0.647
 8440TIP3   OH225260   5.707   5.348   1.256
 8440TIP3    H125261   5.758   5.267   1.245
 8440TIP3    H225262   5.633   5.323   1.310
 8441TIP3   OH225263   5.638   3.986   3.710
 8441TIP3    H125264   5.639   3.915   3.647
 8441TIP3    H225265   5.671   4.062   3.662
 8442TIP3   OH225266   4.994   6.479   4.788
 8442TIP3    H125267   4.980   6.494   4.881
 8442TIP3    H225268   4.907   6.492   4.748
 8443TIP3   OH225269   5.604   3.187   5.303
 8443TIP3    H125270   5.572   3.246   5.370
 8443TIP3    H225271   5.686   3.151   5.339
 8444TIP3   OH225272   3.108   4.078   1.958
 8444TIP3    H125273   3.064   3.995   1.939
 8444TIP3    H225274   3.198   4.052   1.977
 8445TIP3   OH225275   6.465   4.062   5.761
 8445TIP3    H125276   6.438   4.145   5.722
 8445TIP3    H225277   6.387   4.030   5.806
 8446TIP3   OH225278   3.568   1.170   2.786
 8446TIP3    H125279   3.599   1.260   2.801
 8446TIP3    H225280   3.485   1.165   2.833
 8447TIP3   OH225281   2.747   3.357   6.460
 8447TIP3    H125282   2.695   3.437   6.456
 8447TIP3    H225283   2.790   3.352   6.375
 8448TIP3   OH225284   1.748   1.224   3.949
 8448TIP3    H125285   1.812   1.286   3.915
 8448TIP3    H225286   1.773   1.212   4.041
 8449TIP3   OH225287   8.300   4.212   3.017
 8449TIP3    H125288   8.304   4.159   3.096
 8449TIP3    H225289   8.212   4.199   2.983
 8450TIP3   OH225290   4.535   2.839   1.168
 8450TIP3    H125291   4.612   2.815   1.219
 8450TIP3    H225292   4.464   2.788   1.207
 8451TIP3   OH225293   8.039   7.113   0.200
 8451TIP3    H125294   8.088   7.040   0.163
 8451TIP3    H225295   7.959   7.073   0.234
 8452TIP3   OH225296   5.838   4.171   2.710
 8452TIP3    H125297   5.752   4.131   2.694
 8452TIP3    H225298   5.876   4.118   2.780
 8453TIP3   OH225299   5.916   5.446   2.390
 8453TIP3    H125300   5.977   5.448   2.316
 8453TIP3    H225301   5.911   5.537   2.419
 8454TIP3   OH225302   3.475   3.656   6.633
 8454TIP3    H125303   3.381   3.649   6.616
 8454TIP3    H225304   3.516   3.602   6.566
 8455TIP3   OH225305   4.261   3.902   5.941
 8455TIP3    H125306   4.223   3.986   5.916
 8455TIP3    H225307   4.330   3.885   5.877
 8456TIP3   OH225308   5.923   0.111   6.620
 8456TIP3    H125309   6.012   0.127   6.650
 8456TIP3    H225310   5.906   0.019   6.644
 8457TIP3   OH225311   6.966   3.112   4.298
 8457TIP3    H125312   6.912   3.036   4.274
 8457TIP3    H225313   7.031   3.118   4.229
 8458TIP3   OH225314   0.110   6.085   3.427
 8458TIP3    H125315   0.188   6.139   3.420
 8458TIP3    H225316   0.087   6.063   3.337
 8459TIP3   OH225317   0.623   2.276   1.644
 8459TIP3    H125318   0.643   2.205   1.706
 8459TIP3    H225319   0.610   2.232   1.560
 8460TIP3   OH225320   5.654   1.128   0.653
 8460TIP3    H125321   5.644   1.165   0.741
 8460TIP3    H225322   5.674   1.203   0.597
 8461TIP3   OH225323   6.497   6.368   6.411
 8461TIP3    H125324   6.465   6.449   6.450
 8461TIP3    H225325   6.456   6.366   6.324
 8462TIP3   OH225326   1.634   5.904   6.393
 8462TIP3    H125327   1.614   5.830   6.337
 8462TIP3    H225328   1.549   5.942   6.414
 8463TIP3   OH225329   1.834   3.415   0.214
 8463TIP3    H125330   1.753   3.410   0.164
 8463TIP3    H225331   1.847   3.327   0.248
 8464TIP3   OH225332   3.328   5.690   4.672
 8464TIP3    H125333   3.318   5.779   4.706
 8464TIP3    H225334   3.422   5.679   4.659
 8465TIP3   OH225335   3.011   2.738   0.507
 8465TIP3    H125336   3.091   2.763   0.461
 8465TIP3    H225337   2.941   2.750   0.443
 8466TIP3   OH225338   3.195   2.052   2.886
 8466TIP3    H125339   3.271   2.043   2.827
 8466TIP3    H225340   3.232   2.089   2.966
 8467TIP3   OH225341   2.296   7.196   3.409
 8467TIP3    H125342   2.312   7.211   3.316
 8467TIP3    H225343   2.298   7.284   3.447
 8468TIP3   OH225344   0.839   6.767   2.177
 8468TIP3    H125345   0.744   6.769   2.169
 8468TIP3    H225346   0.855   6.781   2.270
 8469TIP3   OH225347   5.841   5.364   4.151
 8469TIP3    H125348   5.750   5.350   4.176
 8469TIP3    H225349   5.843   5.454   4.117
 8470TIP3   OH225350   7.579   6.739   3.533
 8470TIP3    H125351   7.624   6.822   3.520
 8470TIP3    H225352   7.602   6.713   3.622
 8471TIP3   OH225353   7.107   6.167   0.376
 8471TIP3    H125354   7.067   6.145   0.461
 8471TIP3    H225355   7.088   6.260   0.364
 8472TIP3   OH225356   5.348   1.401   4.094
 8472TIP3    H125357   5.431   1.358   4.072
 8472TIP3    H225358   5.375   1.480   4.141
 8473TIP3   OH225359   8.326   6.725   4.727
 8473TIP3    H125360   8.252   6.684   4.771
 8473TIP3    H225361   8.329   6.683   4.641
 8474TIP3   OH225362   6.587   2.015   2.198
 8474TIP3    H125363   6.586   2.051   2.287
 8474TIP3    H225364   6.679   2.015   2.173
 8475TIP3   OH225365   6.395   6.042   6.228
 8475TIP3    H125366   6.407   6.134   6.205
 8475TIP3    H225367   6.436   5.994   6.156
 8476TIP3   OH225368   0.059   0.797   6.462
 8476TIP3    H125369   0.075   0.725   6.523
 8476TIP3    H225370   0.064   0.875   6.517
 8477TIP3   OH225371   2.283   0.208   4.914
 8477TIP3    H125372   2.257   0.121   4.884
 8477TIP3    H225373   2.378   0.210   4.901
 8478TIP3   OH225374   4.464   6.568   0.842
 8478TIP3    H125375   4.394   6.503   0.841
 8478TIP3    H225376   4.447   6.621   0.919
 8479TIP3   OH225377   6.546   6.864   4.957
 8479TIP3    H125378   6.542   6.883   4.863
 8479TIP3    H225379   6.591   6.940   4.995
 8480TIP3   OH225380   0.534   5.475   0.903
 8480TIP3    H125381   0.566   5.556   0.943
 8480TIP3    H225382   0.441   5.474   0.923
 8481TIP3   OH225383   1.387   5.662   0.262
 8481TIP3    H125384   1.463   5.705   0.302
 8481TIP3    H225385   1.425   5.595   0.206
 8482TIP3   OH225386   7.160   6.816   4.654
 8482TIP3    H125387   7.152   6.804   4.749
 8482TIP3    H225388   7.254   6.809   4.636
 8483TIP3   OH225389   0.494   1.605   2.823
 8483TIP3    H125390   0.579   1.649   2.814
 8483TIP3    H225391   0.506   1.521   2.779
 8484TIP3   OH225392   8.298   2.471   3.596
 8484TIP3    H125393   8.345   2.551   3.618
 8484TIP3    H225394   8.283   2.477   3.502
 8485TIP3   OH225395   2.958   1.085   6.758
 8485TIP3    H125396   3.049   1.103   6.785
 8485TIP3    H225397   2.948   1.131   6.675
 8486TIP3   OH225398   0.045   2.585   2.360
 8486TIP3    H125399  -0.044   2.620   2.357
 8486TIP3    H225400   0.084   2.624   2.438
 8487TIP3   OH225401   6.269   3.388   3.116
 8487TIP3    H125402   6.354   3.393   3.161
 8487TIP3    H225403   6.292   3.375   3.024
 8488TIP3   OH225404   7.002   0.866   2.665
 8488TIP3    H125405   7.083   0.908   2.694
 8488TIP3    H225406   6.937   0.936   2.665
 8489TIP3   OH225407   4.482   0.314   5.521
 8489TIP3    H125408   4.544   0.280   5.456
 8489TIP3    H225409   4.536   0.370   5.577
 8490TIP3   OH225410   1.784   1.881   3.650
 8490TIP3    H125411   1.764   1.902   3.559
 8490TIP3    H225412   1.699   1.881   3.694
 8491TIP3   OH225413   7.010   0.893   0.542
 8491TIP3    H125414   6.960   0.880   0.462
 8491TIP3    H225415   6.987   0.982   0.570
 8492TIP3   OH225416   5.375   1.952   4.299
 8492TIP3    H125417   5.401   1.972   4.389
 8492TIP3    H225418   5.305   2.016   4.279
 8493TIP3   OH225419   7.107   1.465   5.935
 8493TIP3    H125420   7.161   1.403   5.885
 8493TIP3    H225421   7.148   1.468   6.021
 8494TIP3   OH225422   5.461   6.580   1.761
 8494TIP3    H125423   5.423   6.620   1.683
 8494TIP3    H225424   5.498   6.653   1.811
 8495TIP3   OH225425   7.494   7.116   0.781
 8495TIP3    H125426   7.406   7.083   0.764
 8495TIP3    H225427   7.483   7.178   0.853
 8496TIP3   OH225428   2.878   5.583   1.838
 8496TIP3    H125429   2.902   5.669   1.806
 8496TIP3    H225430   2.834   5.541   1.763
 8497TIP3   OH225431   5.540   7.651   1.279
 8497TIP3    H125432   5.535   7.743   1.254
 8497TIP3    H225433   5.515   7.604   1.200
 8498TIP3   OH225434   3.334   1.973   6.639
 8498TIP3    H125435   3.302   1.933   6.557
 8498TIP3    H225436   3.259   1.968   6.698
 8499TIP3   OH225437   7.201   3.594   4.852
 8499TIP3    H125438   7.176   3.530   4.785
 8499TIP3    H225439   7.190   3.548   4.935
 8500TIP3   OH225440   0.359   7.175   3.493
 8500TIP3    H125441   0.352   7.131   3.577
 8500TIP3    H225442   0.340   7.107   3.428
 8501TIP3   OH225443   4.000   7.568   1.593
 8501TIP3    H125444   4.084   7.550   1.550
 8501TIP3    H225445   4.003   7.518   1.674
 8502TIP3   OH225446   1.563   3.440   5.121
 8502TIP3    H125447   1.486   3.387   5.098
 8502TIP3    H225448   1.622   3.430   5.045
 8503TIP3   OH225449   7.458   0.399   3.555
 8503TIP3    H125450   7.381   0.359   3.596
 8503TIP3    H225451   7.505   0.325   3.517
 8504TIP3   OH225452   1.868   6.393   0.085
 8504TIP3    H125453   1.911   6.472   0.050
 8504TIP3    H225454   1.940   6.333   0.104
 8505TIP3   OH225455   4.970   5.222   0.819
 8505TIP3    H125456   4.999   5.176   0.897
 8505TIP3    H225457   5.022   5.303   0.817
 8506TIP3   OH225458   5.952   5.646   3.618
 8506TIP3    H125459   5.858   5.647   3.602
 8506TIP3    H225460   5.979   5.737   3.607
 8507TIP3   OH225461   6.796   1.086   6.168
 8507TIP3    H125462   6.822   1.130   6.249
 8507TIP3    H225463   6.870   1.031   6.144
 8508TIP3   OH225464   6.859   2.060   5.612
 8508TIP3    H125465   6.794   2.000   5.649
 8508TIP3    H225466   6.928   2.063   5.677
 8509TIP3   OH225467   2.046   4.531   3.351
 8509TIP3    H125468   1.978   4.598   3.361
 8509TIP3    H225469   1.997   4.450   3.337
 8510TIP3   OH225470   5.156   7.251   4.036
 8510TIP3    H125471   5.093   7.321   4.051
 8510TIP3    H225472   5.220   7.289   3.975
 8511TIP3   OH225473   5.746   3.858   0.576
 8511TIP3    H125474   5.709   3.778   0.614
 8511TIP3    H225475   5.669   3.907   0.545
 8512TIP3   OH225476   5.072   3.951   5.186
 8512TIP3    H125477   4.984   3.969   5.219
 8512TIP3    H225478   5.116   3.906   5.258
 8513TIP3   OH225479   2.024   0.545   1.453
 8513TIP3    H125480   2.095   0.607   1.469
 8513TIP3    H225481   1.955   0.570   1.515
 8514TIP3   OH225482   6.598   4.652   5.278
 8514TIP3    H125483   6.672   4.592   5.286
 8514TIP3    H225484   6.624   4.728   5.330
 8515TIP3   OH225485   6.986   5.405   4.638
 8515TIP3    H125486   7.076   5.385   4.664
 8515TIP3    H225487   6.984   5.500   4.628
 8516TIP3   OH225488   3.243   6.638   2.789
 8516TIP3    H125489   3.155   6.671   2.773
 8516TIP3    H225490   3.301   6.699   2.742
 8517TIP3   OH225491   4.182   4.773   0.588
 8517TIP3    H125492   4.277   4.780   0.590
 8517TIP3    H225493   4.162   4.753   0.496
 8518TIP3   OH225494   7.462   3.927   2.300
 8518TIP3    H125495   7.424   3.849   2.260
 8518TIP3    H225496   7.508   3.894   2.377
 8519TIP3   OH225497   1.268   6.607   2.071
 8519TIP3    H125498   1.284   6.590   1.978
 8519TIP3    H225499   1.303   6.530   2.116
 8520TIP3   OH225500   4.318   6.460   2.687
 8520TIP3    H125501   4.282   6.501   2.766
 8520TIP3    H225502   4.311   6.366   2.704
 8521TIP3   OH225503   2.320   7.665   5.086
 8521TIP3    H125504   2.337   7.572   5.069
 8521TIP3    H225505   2.347   7.709   5.006
 8522TIP3   OH225506   2.261   5.759   1.038
 8522TIP3    H125507   2.197   5.688   1.043
 8522TIP3    H225508   2.211   5.835   1.008
 8523TIP3   OH225509   2.040   2.833   5.729
 8523TIP3    H125510   1.975   2.851   5.798
 8523TIP3    H225511   1.995   2.773   5.669
 8524TIP3   OH225512   0.064   2.836   4.585
 8524TIP3    H125513   0.137   2.895   4.568
 8524TIP3    H225514   0.026   2.819   4.498
 8525TIP3   OH225515   7.077   6.524   4.016
 8525TIP3    H125516   7.077   6.470   3.937
 8525TIP3    H225517   7.055   6.612   3.985
 8526TIP3   OH225518   0.891   0.643   1.623
 8526TIP3    H125519   0.908   0.621   1.532
 8526TIP3    H225520   0.850   0.565   1.660
 8527TIP3   OH225521   6.385   2.841   4.875
 8527TIP3    H125522   6.327   2.768   4.897
 8527TIP3    H225523   6.373   2.903   4.947
 8528TIP3   OH225524   0.110   0.317   4.053
 8528TIP3    H125525   0.205   0.305   4.064
 8528TIP3    H225526   0.077   0.229   4.035
 8529TIP3   OH225527   2.077   1.543   6.063
 8529TIP3    H125528   2.034   1.522   6.146
 8529TIP3    H225529   2.020   1.608   6.022
 8530TIP3   OH225530   5.454   5.407   5.144
 8530TIP3    H125531   5.517   5.391   5.214
 8530TIP3    H225532   5.410   5.488   5.169
 8531TIP3   OH225533   5.240   2.568   1.031
 8531TIP3    H125534   5.213   2.548   0.941
 8531TIP3    H225535   5.169   2.535   1.085
 8532TIP3   OH225536   7.615   1.328   1.171
 8532TIP3    H125537   7.569   1.262   1.222
 8532TIP3    H225538   7.694   1.283   1.140
 8533TIP3   OH225539   7.386   2.168   4.540
 8533TIP3    H125540   7.449   2.223   4.585
 8533TIP3    H225541   7.439   2.108   4.488
 8534TIP3   OH225542   4.551   3.661   4.582
 8534TIP3    H125543   4.548   3.601   4.507
 8534TIP3    H225544   4.488   3.625   4.644
 8535TIP3   OH225545   1.324   1.375   1.406
 8535TIP3    H125546   1.402   1.337   1.447
 8535TIP3    H225547   1.257   1.308   1.414
 8536TIP3   OH225548   5.191   1.275   4.497
 8536TIP3    H125549   5.134   1.199   4.513
 8536TIP3    H225550   5.191   1.285   4.402
 8537TIP3   OH225551   1.160   5.261   0.148
 8537TIP3    H125552   1.078   5.234   0.107
 8537TIP3    H225553   1.147   5.352   0.172
 8538TIP3   OH225554   5.814   1.467   1.229
 8538TIP3    H125555   5.861   1.527   1.171
 8538TIP3    H225556   5.732   1.448   1.182
 8539TIP3   OH225557   3.281   5.730   4.269
 8539TIP3    H125558   3.202   5.782   4.284
 8539TIP3    H225559   3.250   5.649   4.229
 8540TIP3   OH225560   1.853   7.850   3.281
 8540TIP3    H125561   1.853   7.809   3.367
 8540TIP3    H225562   1.944   7.847   3.252
 8541TIP3   OH225563   2.939   3.925   2.813
 8541TIP3    H125564   2.969   4.008   2.775
 8541TIP3    H225565   2.851   3.943   2.845
 8542TIP3   OH225566   5.499   0.880   2.546
 8542TIP3    H125567   5.425   0.878   2.486
 8542TIP3    H225568   5.516   0.974   2.560
 8543TIP3   OH225569   7.157   7.376   4.053
 8543TIP3    H125570   7.101   7.300   4.034
 8543TIP3    H225571   7.195   7.356   4.138
 8544TIP3   OH225572   3.731   2.891   6.004
 8544TIP3    H125573   3.726   2.933   5.919
 8544TIP3    H225574   3.812   2.924   6.043
 8545TIP3   OH225575   5.585   1.735   2.631
 8545TIP3    H125576   5.606   1.771   2.544
 8545TIP3    H225577   5.657   1.765   2.687
 8546TIP3   OH225578   4.116   7.027   5.352
 8546TIP3    H125579   4.175   7.079   5.406
 8546TIP3    H225580   4.172   6.962   5.310
 8547TIP3   OH225581   1.353   1.569   1.228
 8547TIP3    H125582   1.354   1.503   1.297
 8547TIP3    H225583   1.272   1.553   1.180
 8548TIP3   OH225584   1.656   1.355   3.164
 8548TIP3    H125585   1.749   1.355   3.189
 8548TIP3    H225586   1.649   1.426   3.101
 8549TIP3   OH225587   5.680   0.126   6.830
 8549TIP3    H125588   5.621   0.053   6.814
 8549TIP3    H225589   5.757   0.108   6.776
 8550TIP3   OH225590   1.351   5.344   2.914
 8550TIP3    H125591   1.383   5.304   2.994
 8550TIP3    H225592   1.330   5.434   2.938
 8551TIP3   OH225593   2.437   5.534   1.035
 8551TIP3    H125594   2.400   5.614   1.073
 8551TIP3    H225595   2.407   5.534   0.944
 8552TIP3   OH225596   3.080   7.512   6.367
 8552TIP3    H125597   3.128   7.465   6.299
 8552TIP3    H225598   3.146   7.566   6.410
 8553TIP3   OH225599   8.007   0.724   0.954
 8553TIP3    H125600   8.006   0.629   0.940
 8553TIP3    H225601   8.067   0.737   1.028
 8554TIP3   OH225602   1.980   1.710   0.610
 8554TIP3    H125603   1.918   1.647   0.573
 8554TIP3    H225604   1.950   1.723   0.700
 8555TIP3   OH225605   8.220   4.646   6.362
 8555TIP3    H125606   8.129   4.631   6.337
 8555TIP3    H225607   8.242   4.572   6.419
 8556TIP3   OH225608   1.044   2.493   0.879
 8556TIP3    H125609   0.954   2.526   0.883
 8556TIP3    H225610   1.098   2.572   0.867
 8557TIP3   OH225611   6.999   4.719   4.006
 8557TIP3    H125612   6.962   4.662   3.938
 8557TIP3    H225613   6.928   4.780   4.027
 8558TIP3   OH225614   5.382   7.698   4.432
 8558TIP3    H125615   5.379   7.777   4.379
 8558TIP3    H225616   5.441   7.719   4.504
 8559TIP3   OH225617   4.664   7.271   4.693
 8559TIP3    H125618   4.660   7.178   4.717
 8559TIP3    H225619   4.756   7.294   4.703
 8560TIP3   OH225620   8.265   3.738   0.707
 8560TIP3    H125621   8.354   3.769   0.723
 8560TIP3    H225622   8.263   3.717   0.614
 8561TIP3   OH225623   3.473   1.811   5.631
 8561TIP3    H125624   3.497   1.748   5.699
 8561TIP3    H225625   3.512   1.776   5.551
 8562TIP3   OH225626   3.308   2.185   3.154
 8562TIP3    H125627   3.392   2.231   3.161
 8562TIP3    H225628   3.242   2.253   3.171
 8563TIP3   OH225629   4.105   7.615   2.361
 8563TIP3    H125630   4.164   7.597   2.287
 8563TIP3    H225631   4.022   7.573   2.336
 8564TIP3   OH225632   6.394   5.687   4.945
 8564TIP3    H125633   6.449   5.641   4.882
 8564TIP3    H225634   6.313   5.636   4.947
 8565TIP3   OH225635   6.660   1.190   4.921
 8565TIP3    H125636   6.676   1.198   5.015
 8565TIP3    H225637   6.581   1.242   4.905
 8566TIP3   OH225638   6.224   5.881   3.353
 8566TIP3    H125639   6.314   5.892   3.382
 8566TIP3    H225640   6.226   5.902   3.259
 8567TIP3   OH225641   1.718   0.859   2.903
 8567TIP3    H125642   1.636   0.810   2.896
 8567TIP3    H225643   1.704   0.918   2.977
 8568TIP3   OH225644   0.964   3.490   3.712
 8568TIP3    H125645   1.038   3.492   3.773
 8568TIP3    H225646   0.970   3.404   3.670
 8569TIP3   OH225647   1.017   4.474   3.903
 8569TIP3    H125648   1.085   4.406   3.895
 8569TIP3    H225649   0.977   4.477   3.816
 8570TIP3   OH225650   2.671   4.472   3.461
 8570TIP3    H125651   2.757   4.463   3.502
 8570TIP3    H225652   2.685   4.450   3.369
 8571TIP3   OH225653   1.449   6.464   4.874
 8571TIP3    H125654   1.502   6.385   4.865
 8571TIP3    H225655   1.498   6.519   4.935
 8572TIP3   OH225656   5.887   0.176   1.136
 8572TIP3    H125657   5.811   0.120   1.148
 8572TIP3    H225658   5.895   0.186   1.041
 8573TIP3   OH225659   5.715   5.572   5.534
 8573TIP3    H125660   5.656   5.631   5.488
 8573TIP3    H225661   5.737   5.504   5.470
 8574TIP3   OH225662   5.051   1.841   5.418
 8574TIP3    H125663   5.068   1.887   5.501
 8574TIP3    H225664   5.028   1.910   5.357
 8575TIP3   OH225665   6.915   6.934   1.569
 8575TIP3    H125666   6.991   6.914   1.624
 8575TIP3    H225667   6.862   6.854   1.570
 8576TIP3   OH225668   6.045   3.005   2.684
 8576TIP3    H125669   6.114   3.051   2.732
 8576TIP3    H225670   6.091   2.961   2.612
 8577TIP3   OH225671   3.535  -0.010   2.752
 8577TIP3    H125672   3.528   0.074   2.707
 8577TIP3    H225673   3.624  -0.041   2.732
 8578TIP3   OH225674   4.185   6.678   2.810
 8578TIP3    H125675   4.118   6.634   2.758
 8578TIP3    H225676   4.148   6.765   2.828
 8579TIP3   OH225677   5.706   3.160   3.527
 8579TIP3    H125678   5.722   3.206   3.445
 8579TIP3    H225679   5.749   3.214   3.594
 8580TIP3   OH225680   1.544   2.908   3.622
 8580TIP3    H125681   1.453   2.895   3.651
 8580TIP3    H225682   1.546   2.873   3.533
 8581TIP3   OH225683   0.486   0.316   0.876
 8581TIP3    H125684   0.522   0.400   0.904
 8581TIP3    H225685   0.391   0.328   0.880
 8582TIP3   OH225686   7.486   6.005   1.446
 8582TIP3    H125687   7.550   6.072   1.423
 8582TIP3    H225688   7.463   5.964   1.363
 8583TIP3   OH225689   3.674   3.096   1.578
 8583TIP3    H125690   3.683   3.135   1.665
 8583TIP3    H225691   3.651   3.171   1.521
 8584TIP3   OH225692   5.770   0.576   1.101
 8584TIP3    H125693   5.835   0.612   1.040
 8584TIP3    H225694   5.697   0.638   1.099
 8585TIP3   OH225695   5.760   7.895   4.408
 8585TIP3    H125696   5.832   7.870   4.465
 8585TIP3    H225697   5.800   7.947   4.339
 8586TIP3   OH225698   7.278   5.912   5.556
 8586TIP3    H125699   7.356   5.960   5.585
 8586TIP3    H225700   7.287   5.906   5.461
 8587TIP3   OH225701   3.847   5.883   5.026
 8587TIP3    H125702   3.920   5.870   4.965
 8587TIP3    H225703   3.849   5.805   5.082
 8588TIP3   OH225704   8.247   6.420   5.679
 8588TIP3    H125705   8.326   6.377   5.646
 8588TIP3    H225706   8.191   6.347   5.707
 8589TIP3   OH225707  -0.023   1.972   2.901
 8589TIP3    H125708  -0.038   2.015   2.985
 8589TIP3    H225709   0.061   1.928   2.912
 8590TIP3   OH225710   0.225   7.115   0.069
 8590TIP3    H125711   0.241   7.157  -0.015
 8590TIP3    H225712   0.135   7.084   0.065
 8591TIP3   OH225713   6.381   6.867   2.842
 8591TIP3    H125714   6.286   6.875   2.846
 8591TIP3    H225715   6.411   6.953   2.810
 8592TIP3   OH225716   2.451   1.715   0.380
 8592TIP3    H125717   2.434   1.621   0.368
 8592TIP3    H225718   2.430   1.754   0.295
 8593TIP3   OH225719   0.907   1.009   5.444
 8593TIP3    H125720   0.950   1.082   5.400
 8593TIP3    H225721   0.972   0.977   5.507
 8594TIP3   OH225722   5.212   0.822   3.159
 8594TIP3    H125723   5.271   0.755   3.125
 8594TIP3    H225724   5.139   0.824   3.098
 8595TIP3   OH225725   8.087   3.677   6.039
 8595TIP3    H125726   8.056   3.593   6.072
 8595TIP3    H225727   8.107   3.728   6.118
 8596TIP3   OH225728   0.238   2.479   5.795
 8596TIP3    H125729   0.329   2.508   5.800
 8596TIP3    H225730   0.203   2.520   5.716
 8597TIP3   OH225731   1.897   7.290   3.831
 8597TIP3    H125732   1.914   7.207   3.874
 8597TIP3    H225733   1.827   7.331   3.882
 8598TIP3   OH225734   3.746   1.882   4.546
 8598TIP3    H125735   3.658   1.919   4.554
 8598TIP3    H225736   3.766   1.849   4.634
 8599TIP3   OH225737   6.551   3.871   1.984
 8599TIP3    H125738   6.584   3.786   2.014
 8599TIP3    H225739   6.586   3.880   1.896
 8600TIP3   OH225740   0.289   3.465   5.826
 8600TIP3    H125741   0.308   3.506   5.910
 8600TIP3    H225742   0.337   3.381   5.829
 8601TIP3   OH225743   2.153   0.301   1.181
 8601TIP3    H125744   2.199   0.368   1.232
 8601TIP3    H225745   2.089   0.265   1.243
 8602TIP3   OH225746   6.411   1.788   1.270
 8602TIP3    H125747   6.369   1.863   1.312
 8602TIP3    H225748   6.342   1.746   1.219
 8603TIP3   OH225749   2.990   1.091   2.186
 8603TIP3    H125750   2.988   1.155   2.115
 8603TIP3    H225751   3.056   1.125   2.246
 8604TIP3   OH225752   5.178   5.591   5.249
 8604TIP3    H125753   5.182   5.546   5.165
 8604TIP3    H225754   5.106   5.549   5.296
 8605TIP3   OH225755   7.963   4.300   5.632
 8605TIP3    H125756   7.881   4.270   5.671
 8605TIP3    H225757   7.995   4.224   5.583
 8606TIP3   OH225758   4.229   2.487   1.311
 8606TIP3    H125759   4.166   2.507   1.381
 8606TIP3    H225760   4.174   2.473   1.234
 8607TIP3   OH225761   2.859   2.512   3.092
 8607TIP3    H125762   2.918   2.461   3.038
 8607TIP3    H225763   2.867   2.475   3.179
 8608TIP3   OH225764   0.815   7.543   6.114
 8608TIP3    H125765   0.910   7.536   6.108
 8608TIP3    H225766   0.789   7.584   6.031
 8609TIP3   OH225767   4.961   3.394   1.228
 8609TIP3    H125768   4.891   3.403   1.293
 8609TIP3    H225769   4.938   3.457   1.160
 8610TIP3   OH225770   4.294   0.833   2.171
 8610TIP3    H125771   4.246   0.814   2.252
 8610TIP3    H225772   4.340   0.751   2.151
 8611TIP3   OH225773   7.628   3.533   0.985
 8611TIP3    H125774   7.722   3.518   0.980
 8611TIP3    H225775   7.596   3.467   1.046
 8612TIP3   OH225776   1.486   3.805   5.401
 8612TIP3    H125777   1.392   3.819   5.390
 8612TIP3    H225778   1.526   3.885   5.368
 8613TIP3   OH225779   0.008   0.860   1.620
 8613TIP3    H125780  -0.023   0.813   1.698
 8613TIP3    H225781   0.037   0.792   1.560
 8614TIP3   OH225782   3.861   0.805   5.583
 8614TIP3    H125783   3.885   0.726   5.535
 8614TIP3    H225784   3.783   0.838   5.539
 8615TIP3   OH225785   0.670   7.693   4.850
 8615TIP3    H125786   0.662   7.783   4.883
 8615TIP3    H225787   0.713   7.703   4.765
 8616TIP3   OH225788   4.890   6.265   1.074
 8616TIP3    H125789   4.878   6.213   1.153
 8616TIP3    H225790   4.939   6.342   1.103
 8617TIP3   OH225791   6.592   0.765   6.454
 8617TIP3    H125792   6.578   0.826   6.382
 8617TIP3    H225793   6.651   0.810   6.514
 8618TIP3   OH225794   2.243   2.260   2.288
 8618TIP3    H125795   2.335   2.265   2.261
 8618TIP3    H225796   2.196   2.239   2.208
 8619TIP3   OH225797   8.289   6.620   4.476
 8619TIP3    H125798   8.254   6.558   4.413
 8619TIP3    H225799   8.384   6.617   4.462
 8620TIP3   OH225800   3.522   3.819   1.184
 8620TIP3    H125801   3.453   3.870   1.141
 8620TIP3    H225802   3.578   3.885   1.225
 8621TIP3   OH225803   7.585   0.543   6.542
 8621TIP3    H125804   7.679   0.539   6.524
 8621TIP3    H225805   7.551   0.461   6.506
 8622TIP3   OH225806   5.030   6.023   5.408
 8622TIP3    H125807   5.041   5.998   5.500
 8622TIP3    H225808   5.096   6.092   5.395
 8623TIP3   OH225809   7.979   4.805   4.643
 8623TIP3    H125810   7.944   4.748   4.712
 8623TIP3    H225811   8.001   4.746   4.571
 8624TIP3   OH225812   0.624   3.076   6.719
 8624TIP3    H125813   0.548   3.129   6.696
 8624TIP3    H225814   0.678   3.133   6.775
 8625TIP3   OH225815   2.327   0.631   2.705
 8625TIP3    H125816   2.342   0.558   2.645
 8625TIP3    H225817   2.288   0.590   2.782
 8626TIP3   OH225818   2.175   1.071   4.902
 8626TIP3    H125819   2.085   1.064   4.871
 8626TIP3    H225820   2.191   0.989   4.948
 8627TIP3   OH225821   6.944   2.830   5.712
 8627TIP3    H125822   7.022   2.780   5.688
 8627TIP3    H225823   6.932   2.813   5.806
 8628TIP3   OH225824   1.473   7.592   2.981
 8628TIP3    H125825   1.549   7.564   2.930
 8628TIP3    H225826   1.400   7.543   2.943
 8629TIP3   OH225827   4.682   0.097   5.612
 8629TIP3    H125828   4.736   0.048   5.674
 8629TIP3    H225829   4.629   0.155   5.667
 8630TIP3   OH225830   2.205   5.231   0.561
 8630TIP3    H125831   2.174   5.218   0.471
 8630TIP3    H225832   2.285   5.282   0.551
 8631TIP3   OH225833   0.109   5.950   0.179
 8631TIP3    H125834   0.154   6.021   0.226
 8631TIP3    H225835   0.147   5.870   0.216
 8632TIP3   OH225836   6.611   5.892   6.538
 8632TIP3    H125837   6.532   5.937   6.510
 8632TIP3    H225838   6.675   5.963   6.549
 8633TIP3   OH225839   5.400   6.076   3.243
 8633TIP3    H125840   5.417   6.046   3.333
 8633TIP3    H225841   5.352   6.005   3.202
 8634TIP3   OH225842   3.862   4.999   4.538
 8634TIP3    H125843   3.786   5.053   4.561
 8634TIP3    H225844   3.825   4.927   4.487
 8635TIP3   OH225845   3.060   6.627   5.405
 8635TIP3    H125846   3.152   6.642   5.384
 8635TIP3    H225847   3.063   6.564   5.477
 8636TIP3   OH225848   7.887   4.428   5.304
 8636TIP3    H125849   7.908   4.519   5.282
 8636TIP3    H225850   7.903   4.380   5.223
 8637TIP3   OH225851   0.574   6.661   0.495
 8637TIP3    H125852   0.612   6.709   0.568
 8637TIP3    H225853   0.634   6.589   0.479
 8638TIP3   OH225854   8.125   1.333   3.174
 8638TIP3    H125855   8.123   1.396   3.102
 8638TIP3    H225856   8.157   1.252   3.134
 8639TIP3   OH225857   6.545   4.902   4.287
 8639TIP3    H125858   6.501   4.917   4.371
 8639TIP3    H225859   6.596   4.822   4.301
 8640TIP3   OH225860   0.084   7.055   1.032
 8640TIP3    H125861   0.069   7.085   1.122
 8640TIP3    H225862   0.001   7.071   0.987
 8641TIP3   OH225863   1.058   2.336   3.844
 8641TIP3    H125864   1.006   2.257   3.856
 8641TIP3    H225865   0.999   2.397   3.798
 8642TIP3   OH225866   7.015   7.555   1.423
 8642TIP3    H125867   6.977   7.614   1.358
 8642TIP3    H225868   7.054   7.484   1.373
 8643TIP3   OH225869   2.578   2.552   2.401
 8643TIP3    H125870   2.484   2.539   2.409
 8643TIP3    H225871   2.616   2.464   2.406
 8644TIP3   OH225872   4.172   2.031   4.699
 8644TIP3    H125873   4.168   1.936   4.686
 8644TIP3    H225874   4.104   2.066   4.641
 8645TIP3   OH225875   2.624   2.214   3.654
 8645TIP3    H125876   2.597   2.182   3.740
 8645TIP3    H225877   2.634   2.309   3.666
 8646TIP3   OH225878   7.103   2.634   2.885
 8646TIP3    H125879   7.123   2.544   2.860
 8646TIP3    H225880   7.052   2.669   2.812
 8647TIP3   OH225881   4.887   4.727   3.027
 8647TIP3    H125882   4.907   4.743   2.935
 8647TIP3    H225883   4.962   4.678   3.060
 8648TIP3   OH225884   4.748   6.228   4.749
 8648TIP3    H125885   4.725   6.141   4.718
 8648TIP3    H225886   4.843   6.233   4.738
 8649TIP3   OH225887   4.427   1.478   6.831
 8649TIP3    H125888   4.431   1.565   6.870
 8649TIP3    H225889   4.333   1.457   6.829
 8650TIP3   OH225890   6.244   6.470   4.573
 8650TIP3    H125891   6.239   6.388   4.523
 8650TIP3    H225892   6.198   6.534   4.519
 8651TIP3   OH225893   1.899   1.471   1.345
 8651TIP3    H125894   1.880   1.385   1.308
 8651TIP3    H225895   1.821   1.493   1.396
 8652TIP3   OH225896   8.268   3.630   4.069
 8652TIP3    H125897   8.221   3.708   4.041
 8652TIP3    H225898   8.262   3.571   3.994
 8653TIP3   OH225899   7.596   3.553   6.387
 8653TIP3    H125900   7.507   3.550   6.352
 8653TIP3    H225901   7.627   3.642   6.367
 8654TIP3   OH225902   5.940   3.464   1.325
 8654TIP3    H125903   6.001   3.422   1.386
 8654TIP3    H225904   5.929   3.401   1.254
 8655TIP3   OH225905   1.777   4.421   5.726
 8655TIP3    H125906   1.780   4.418   5.630
 8655TIP3    H225907   1.686   4.442   5.747
 8656TIP3   OH225908   6.484   7.812   6.532
 8656TIP3    H125909   6.397   7.772   6.537
 8656TIP3    H225910   6.539   7.746   6.491
 8657TIP3   OH225911   5.366   4.835   3.581
 8657TIP3    H125912   5.329   4.830   3.493
 8657TIP3    H225913   5.293   4.816   3.639
 8658TIP3   OH225914   4.114   0.213   1.165
 8658TIP3    H125915   4.039   0.159   1.190
 8658TIP3    H225916   4.081   0.302   1.164
 8659TIP3   OH225917   4.020   1.372   4.392
 8659TIP3    H125918   3.952   1.315   4.357
 8659TIP3    H225919   3.975   1.455   4.411
 8660TIP3   OH225920   0.883   2.387   6.726
 8660TIP3    H125921   0.914   2.432   6.805
 8660TIP3    H225922   0.882   2.294   6.750
 8661TIP3   OH225923   2.171   3.048   4.187
 8661TIP3    H125924   2.231   3.015   4.254
 8661TIP3    H225925   2.214   3.126   4.153
 8662TIP3   OH225926   6.883   0.554   5.665
 8662TIP3    H125927   6.908   0.470   5.628
 8662TIP3    H225928   6.884   0.539   5.760
 8663TIP3   OH225929   6.147   1.000   3.800
 8663TIP3    H125930   6.133   1.062   3.729
 8663TIP3    H225931   6.081   1.022   3.865
 8664TIP3   OH225932   3.466   1.345   6.754
 8664TIP3    H125933   3.539   1.356   6.815
 8664TIP3    H225934   3.494   1.276   6.695
 8665TIP3   OH225935   5.419   4.765   3.004
 8665TIP3    H125936   5.487   4.701   3.025
 8665TIP3    H225937   5.384   4.792   3.089
 8666TIP3   OH225938   1.664   7.315   2.810
 8666TIP3    H125939   1.691   7.406   2.819
 8666TIP3    H225940   1.648   7.303   2.717
 8667TIP3   OH225941   2.544   4.277   0.977
 8667TIP3    H125942   2.452   4.255   0.994
 8667TIP3    H225943   2.583   4.194   0.951
 8668TIP3   OH225944   0.783   1.036   4.202
 8668TIP3    H125945   0.744   1.039   4.115
 8668TIP3    H225946   0.819   1.124   4.215
 8669TIP3   OH225947   6.569   4.183   1.927
 8669TIP3    H125948   6.582   4.277   1.937
 8669TIP3    H225949   6.656   4.149   1.904
 8670TIP3   OH225950   3.540   5.838   0.940
 8670TIP3    H125951   3.529   5.929   0.912
 8670TIP3    H225952   3.519   5.786   0.862
 8671TIP3   OH225953   7.106   0.334   5.424
 8671TIP3    H125954   7.082   0.341   5.332
 8671TIP3    H225955   7.163   0.409   5.440
 8672TIP3   OH225956   3.963   7.489   0.270
 8672TIP3    H125957   4.017   7.565   0.247
 8672TIP3    H225958   3.993   7.420   0.212
 8673TIP3   OH225959   1.114   4.920   4.052
 8673TIP3    H125960   1.044   4.950   3.995
 8673TIP3    H225961   1.166   4.861   3.998
 8674TIP3   OH225962   5.545   0.506   0.329
 8674TIP3    H125963   5.571   0.557   0.405
 8674TIP3    H225964   5.450   0.510   0.328
 8675TIP3   OH225965   7.170   7.179   3.571
 8675TIP3    H125966   7.102   7.202   3.635
 8675TIP3    H225967   7.240   7.242   3.587
 8676TIP3   OH225968   4.074   6.454   0.706
 8676TIP3    H125969   4.106   6.458   0.796
 8676TIP3    H225970   4.086   6.362   0.681
 8677TIP3   OH225971   2.104   3.636   6.363
 8677TIP3    H125972   2.014   3.666   6.354
 8677TIP3    H225973   2.098   3.555   6.413
 8678TIP3   OH225974   4.758   0.607   2.918
 8678TIP3    H125975   4.806   0.547   2.861
 8678TIP3    H225976   4.667   0.598   2.891
 8679TIP3   OH225977   0.568   0.901   1.390
 8679TIP3    H125978   0.604   0.814   1.407
 8679TIP3    H225979   0.479   0.884   1.358
 8680TIP3   OH225980   2.907   4.659   6.278
 8680TIP3    H125981   2.837   4.718   6.305
 8680TIP3    H225982   2.906   4.589   6.344
 8681TIP3   OH225983   6.601   0.192   5.703
 8681TIP3    H125984   6.608   0.271   5.649
 8681TIP3    H225985   6.646   0.214   5.784
 8682TIP3   OH225986   7.337   5.445   2.336
 8682TIP3    H125987   7.280   5.520   2.321
 8682TIP3    H225988   7.299   5.401   2.412
 8683TIP3   OH225989   6.055   7.306   2.277
 8683TIP3    H125990   6.091   7.301   2.366
 8683TIP3    H225991   6.092   7.229   2.233
 8684TIP3   OH225992   6.873   2.558   3.744
 8684TIP3    H125993   6.898   2.645   3.714
 8684TIP3    H225994   6.871   2.504   3.665
 8685TIP3   OH225995   7.623   3.590   3.797
 8685TIP3    H125996   7.650   3.682   3.788
 8685TIP3    H225997   7.582   3.586   3.883
 8686TIP3   OH225998   7.363   4.082   1.643
 8686TIP3    H125999   7.430   4.053   1.705
 8686TIP3    H226000   7.403   4.156   1.597
 8687TIP3   OH226001   3.866   6.086   2.496
 8687TIP3    H126002   3.864   6.002   2.544
 8687TIP3    H226003   3.786   6.085   2.443
 8688TIP3   OH226004   3.273   7.729   6.158
 8688TIP3    H126005   3.199   7.751   6.103
 8688TIP3    H226006   3.278   7.800   6.222
 8689TIP3   OH226007   7.784   7.067   5.608
 8689TIP3    H126008   7.716   7.005   5.581
 8689TIP3    H226009   7.738   7.150   5.619
 8690TIP3   OH226010   6.437   7.785   1.393
 8690TIP3    H126011   6.465   7.729   1.465
 8690TIP3    H226012   6.345   7.764   1.380
 8691TIP3   OH226013   4.286   2.749   1.292
 8691TIP3    H126014   4.218   2.780   1.233
 8691TIP3    H226015   4.276   2.654   1.294
 8692TIP3   OH226016   1.881   2.159   5.328
 8692TIP3    H126017   1.897   2.189   5.417
 8692TIP3    H226018   1.873   2.240   5.277
 8693TIP3   OH226019   6.759   6.282   1.743
 8693TIP3    H126020   6.688   6.276   1.806
 8693TIP3    H226021   6.835   6.247   1.788
 8694TIP3   OH226022   3.631   2.869   1.712
 8694TIP3    H126023   3.623   2.930   1.639
 8694TIP3    H226024   3.675   2.793   1.674
 8695TIP3   OH226025   5.470   7.140   5.291
 8695TIP3    H126026   5.495   7.232   5.288
 8695TIP3    H226027   5.405   7.131   5.221
 8696TIP3   OH226028   3.841   2.482   6.486
 8696TIP3    H126029   3.909   2.517   6.544
 8696TIP3    H226030   3.887   2.418   6.431
 8697TIP3   OH226031   4.815   0.418   1.991
 8697TIP3    H126032   4.798   0.505   1.954
 8697TIP3    H226033   4.801   0.358   1.917
 8698TIP3   OH226034   3.785   2.258   5.980
 8698TIP3    H126035   3.781   2.302   6.065
 8698TIP3    H226036   3.694   2.258   5.949
 8699TIP3   OH226037   5.277   0.847   2.123
 8699TIP3    H126038   5.330   0.768   2.134
 8699TIP3    H226039   5.326   0.901   2.062
 8700TIP3   OH226040   2.739   1.683   0.101
 8700TIP3    H126041   2.725   1.620   0.172
 8700TIP3    H226042   2.798   1.749   0.139
 8701TIP3   OH226043   0.542   3.976   2.097
 8701TIP3    H126044   0.624   3.942   2.134
 8701TIP3    H226045   0.497   3.898   2.063
 8702TIP3   OH226046   3.644   1.749   4.035
 8702TIP3    H126047   3.606   1.810   4.099
 8702TIP3    H226048   3.739   1.761   4.043
 8703TIP3   OH226049   7.046   1.867   5.413
 8703TIP3    H126050   7.031   1.938   5.476
 8703TIP3    H226051   6.962   1.821   5.409
 8704TIP3   OH226052   5.320   2.480   1.833
 8704TIP3    H126053   5.261   2.491   1.759
 8704TIP3    H226054   5.345   2.570   1.857
 8705TIP3   OH226055   0.516   4.990   0.373
 8705TIP3    H126056   0.583   5.042   0.330
 8705TIP3    H226057   0.464   4.954   0.300
 8706TIP3   OH226058   1.012   1.070   0.993
 8706TIP3    H126059   0.924   1.073   1.032
 8706TIP3    H226060   0.997   1.093   0.901
 8707TIP3   OH226061   8.349   5.305   5.958
 8707TIP3    H126062   8.356   5.390   5.915
 8707TIP3    H226063   8.324   5.326   6.048
 8708TIP3   OH226064   7.130   3.494   1.979
 8708TIP3    H126065   7.170   3.459   1.899
 8708TIP3    H226066   7.145   3.588   1.975
 8709TIP3   OH226067   2.775   1.556   6.521
 8709TIP3    H126068   2.692   1.604   6.516
 8709TIP3    H226069   2.753   1.476   6.569
 8710TIP3   OH226070   2.659   2.783   3.864
 8710TIP3    H126071   2.661   2.832   3.945
 8710TIP3    H226072   2.567   2.782   3.838
 8711TIP3   OH226073   2.288   2.817   2.229
 8711TIP3    H126074   2.355   2.861   2.281
 8711TIP3    H226075   2.317   2.827   2.138
 8712TIP3   OH226076   0.912   1.979   2.803
 8712TIP3    H126077   0.994   1.993   2.850
 8712TIP3    H226078   0.868   2.064   2.806
 8713TIP3   OH226079   7.117   3.685   4.422
 8713TIP3    H126080   7.175   3.672   4.497
 8713TIP3    H226081   7.081   3.773   4.435
 8714TIP3   OH226082   5.902   1.340   0.142
 8714TIP3    H126083   5.949   1.401   0.085
 8714TIP3    H226084   5.956   1.337   0.222
 8715TIP3   OH226085   3.850   1.668   5.796
 8715TIP3    H126086   3.917   1.601   5.783
 8715TIP3    H226087   3.869   1.704   5.882
 8716TIP3   OH226088   4.404   0.963   3.492
 8716TIP3    H126089   4.373   0.901   3.426
 8716TIP3    H226090   4.473   0.916   3.538
 8717TIP3   OH226091   5.631   1.492   0.085
 8717TIP3    H126092   5.589   1.419   0.131
 8717TIP3    H226093   5.724   1.471   0.086
 8718TIP3   OH226094   8.138   6.670   5.755
 8718TIP3    H126095   8.183   6.681   5.838
 8718TIP3    H226096   8.166   6.584   5.724
 8719TIP3   OH226097   5.095   0.815   0.294
 8719TIP3    H126098   5.104   0.726   0.258
 8719TIP3    H226099   5.182   0.854   0.284
 8720TIP3   OH226100   5.729   4.575   0.294
 8720TIP3    H126101   5.646   4.569   0.246
 8720TIP3    H226102   5.737   4.668   0.315
 8721TIP3   OH226103   1.563   6.774   0.374
 8721TIP3    H126104   1.604   6.849   0.330
 8721TIP3    H226105   1.490   6.750   0.317
 8722TIP3   OH226106   1.862   4.552   2.964
 8722TIP3    H126107   1.919   4.577   2.890
 8722TIP3    H226108   1.840   4.636   3.005
 8723TIP3   OH226109   7.898   4.420   6.556
 8723TIP3    H126110   7.850   4.452   6.479
 8723TIP3    H226111   7.962   4.358   6.520
 8724TIP3   OH226112   2.250   5.443   6.505
 8724TIP3    H126113   2.271   5.527   6.465
 8724TIP3    H226114   2.317   5.383   6.473
 8725TIP3   OH226115   2.376   0.710   5.108
 8725TIP3    H126116   2.321   0.634   5.093
 8725TIP3    H226117   2.462   0.685   5.073
 8726TIP3   OH226118   4.030   2.823   5.938
 8726TIP3    H126119   3.964   2.754   5.951
 8726TIP3    H226120   4.025   2.877   6.016
 8727TIP3   OH226121   3.632   4.575   3.643
 8727TIP3    H126122   3.667   4.486   3.647
 8727TIP3    H226123   3.555   4.573   3.700
 8728TIP3   OH226124   2.500   1.943   1.633
 8728TIP3    H126125   2.468   1.922   1.721
 8728TIP3    H226126   2.434   1.906   1.574
 8729TIP3   OH226127   7.005   3.522   6.208
 8729TIP3    H126128   7.069   3.571   6.157
 8729TIP3    H226129   6.981   3.448   6.152
 8730TIP3   OH226130   5.537   6.277   1.521
 8730TIP3    H126131   5.565   6.346   1.461
 8730TIP3    H226132   5.565   6.308   1.608
 8731TIP3   OH226133   4.551   4.231   4.826
 8731TIP3    H126134   4.566   4.262   4.736
 8731TIP3    H226135   4.634   4.188   4.849
 8732TIP3   OH226136   0.831   1.093   1.814
 8732TIP3    H126137   0.763   1.079   1.748
 8732TIP3    H226138   0.868   1.007   1.830
 8733TIP3   OH226139   3.038   4.592   0.362
 8733TIP3    H126140   3.091   4.640   0.298
 8733TIP3    H226141   3.037   4.502   0.329
 8734TIP3   OH226142   0.031   1.373   0.034
 8734TIP3    H126143   0.091   1.407  -0.032
 8734TIP3    H226144   0.076   1.388   0.117
 8735TIP3   OH226145   6.213   5.465   5.875
 8735TIP3    H126146   6.217   5.545   5.929
 8735TIP3    H226147   6.270   5.483   5.801
 8736TIP3   OH226148   3.816   1.498   3.829
 8736TIP3    H126149   3.879   1.511   3.900
 8736TIP3    H226150   3.838   1.566   3.765
 8737TIP3   OH226151   1.833   4.728   5.613
 8737TIP3    H126152   1.784   4.738   5.695
 8737TIP3    H226153   1.923   4.714   5.641
 8738TIP3   OH226154   4.414   3.998   4.804
 8738TIP3    H126155   4.427   4.047   4.723
 8738TIP3    H226156   4.476   4.036   4.866
 8739TIP3   OH226157   2.343   0.134   0.224
 8739TIP3    H126158   2.429   0.117   0.263
 8739TIP3    H226159   2.285   0.071   0.266
 8740TIP3   OH226160   0.386   7.366   2.631
 8740TIP3    H126161   0.453   7.434   2.640
 8740TIP3    H226162   0.434   7.288   2.605
 8741TIP3   OH226163   6.840   5.501   6.226
 8741TIP3    H126164   6.830   5.493   6.131
 8741TIP3    H226165   6.808   5.589   6.246
 8742TIP3   OH226166   6.068   6.967   0.162
 8742TIP3    H126167   6.048   7.004   0.077
 8742TIP3    H226168   6.071   7.042   0.221
 8743TIP3   OH226169   5.923   2.026   3.115
 8743TIP3    H126170   5.971   2.039   3.197
 8743TIP3    H226171   5.845   2.080   3.123
 8744TIP3   OH226172   3.221   0.784   1.348
 8744TIP3    H126173   3.179   0.852   1.296
 8744TIP3    H226174   3.148   0.741   1.393
 8745TIP3   OH226175   1.512   0.243   5.335
 8745TIP3    H126176   1.424   0.207   5.345
 8745TIP3    H226177   1.522   0.257   5.241
 8746TIP3   OH226178   0.693   0.623   2.262
 8746TIP3    H126179   0.634   0.555   2.231
 8746TIP3    H226180   0.657   0.651   2.346
 8747TIP3   OH226181   3.848   6.647   4.724
 8747TIP3    H126182   3.846   6.704   4.802
 8747TIP3    H226183   3.937   6.613   4.721
 8748TIP3   OH226184   2.065   0.798   2.658
 8748TIP3    H126185   2.147   0.750   2.673
 8748TIP3    H226186   2.076   0.839   2.573
 8749TIP3   OH226187   4.121   1.951   1.217
 8749TIP3    H126188   4.117   1.968   1.123
 8749TIP3    H226189   4.196   2.001   1.248
 8750TIP3   OH226190   0.022   1.923   6.635
 8750TIP3    H126191   0.011   1.858   6.565
 8750TIP3    H226192   0.004   1.874   6.715
 8751TIP3   OH226193   6.781   1.126   2.093
 8751TIP3    H126194   6.803   1.079   2.174
 8751TIP3    H226195   6.685   1.129   2.094
 8752TIP3   OH226196   3.386   7.732   2.002
 8752TIP3    H126197   3.387   7.637   1.995
 8752TIP3    H226198   3.437   7.762   1.927
 8753TIP3   OH226199   3.078   0.400   6.583
 8753TIP3    H126200   3.037   0.390   6.497
 8753TIP3    H226201   3.079   0.312   6.619
 8754TIP3   OH226202   3.990   4.070   4.309
 8754TIP3    H126203   4.009   4.052   4.401
 8754TIP3    H226204   3.993   4.165   4.302
 8755TIP3   OH226205   5.188   7.779   0.083
 8755TIP3    H126206   5.269   7.819   0.116
 8755TIP3    H226207   5.218   7.702   0.034
 8756TIP3   OH226208   1.416   2.511   2.821
 8756TIP3    H126209   1.424   2.588   2.766
 8756TIP3    H226210   1.323   2.504   2.841
 8757TIP3   OH226211   5.264   1.495   6.390
 8757TIP3    H126212   5.276   1.508   6.484
 8757TIP3    H226213   5.254   1.583   6.355
 8758TIP3   OH226214   8.186   1.370   4.225
 8758TIP3    H126215   8.119   1.368   4.294
 8758TIP3    H226216   8.172   1.453   4.181
 8759TIP3   OH226217   6.535   3.206   1.968
 8759TIP3    H126218   6.523   3.203   1.874
 8759TIP3    H226219   6.559   3.297   1.986
 8760TIP3   OH226220   6.743   6.827   3.586
 8760TIP3    H126221   6.695   6.762   3.637
 8760TIP3    H226222   6.729   6.909   3.634
 8761TIP3   OH226223   2.784   4.374   4.888
 8761TIP3    H126224   2.845   4.300   4.892
 8761TIP3    H226225   2.760   4.381   4.796
 8762TIP3   OH226226   5.777   4.538   2.271
 8762TIP3    H126227   5.828   4.580   2.202
 8762TIP3    H226228   5.834   4.466   2.302
 8763TIP3   OH226229   6.706   0.688   4.995
 8763TIP3    H126230   6.763   0.748   5.042
 8763TIP3    H226231   6.716   0.604   5.041
 8764TIP3   OH226232   2.022   4.993   5.532
 8764TIP3    H126233   1.995   4.954   5.615
 8764TIP3    H226234   1.951   5.052   5.508
 8765TIP3   OH226235   8.084   1.137   5.325
 8765TIP3    H126236   8.106   1.212   5.381
 8765TIP3    H226237   8.093   1.061   5.382
 8766TIP3   OH226238   6.355   1.308   4.558
 8766TIP3    H126239   6.315   1.228   4.592
 8766TIP3    H226240   6.333   1.375   4.622
 8767TIP3   OH226241   0.515   2.724   1.392
 8767TIP3    H126242   0.496   2.643   1.439
 8767TIP3    H226243   0.577   2.771   1.448
 8768TIP3   OH226244   0.783   0.482   3.018
 8768TIP3    H126245   0.858   0.462   3.076
 8768TIP3    H226246   0.739   0.556   3.061
 8769TIP3   OH226247   7.019   5.163   0.788
 8769TIP3    H126248   7.091   5.099   0.784
 8769TIP3    H226249   6.970   5.150   0.707
 8770TIP3   OH226250   3.827   0.611   4.937
 8770TIP3    H126251   3.826   0.533   4.993
 8770TIP3    H226252   3.825   0.575   4.848
 8771TIP3   OH226253   2.003   1.200   0.272
 8771TIP3    H126254   2.065   1.223   0.202
 8771TIP3    H226255   2.037   1.244   0.350
 8772TIP3   OH226256   2.697   1.421   1.049
 8772TIP3    H126257   2.748   1.358   1.100
 8772TIP3    H226258   2.690   1.382   0.962
 8773TIP3   OH226259   2.367   6.538   0.823
 8773TIP3    H126260   2.369   6.584   0.907
 8773TIP3    H226261   2.401   6.602   0.760
 8774TIP3   OH226262   0.634   5.775   2.354
 8774TIP3    H126263   0.549   5.737   2.376
 8774TIP3    H226264   0.623   5.808   2.265
 8775TIP3   OH226265   1.396   5.623   3.418
 8775TIP3    H126266   1.474   5.637   3.365
 8775TIP3    H226267   1.420   5.552   3.477
 8776TIP3   OH226268   7.757   1.744   3.519
 8776TIP3    H126269   7.730   1.823   3.472
 8776TIP3    H226270   7.700   1.676   3.485
 8777TIP3   OH226271   2.634   2.985   2.087
 8777TIP3    H126272   2.640   3.034   2.168
 8777TIP3    H226273   2.706   3.018   2.033
 8778TIP3   OH226274   1.942   4.105   3.368
 8778TIP3    H126275   2.020   4.114   3.422
 8778TIP3    H226276   1.948   4.177   3.305
 8779TIP3   OH226277   1.429   1.076   2.426
 8779TIP3    H126278   1.509   1.023   2.434
 8779TIP3    H226279   1.406   1.097   2.516
 8780TIP3   OH226280   2.730   6.270   2.395
 8780TIP3    H126281   2.728   6.211   2.470
 8780TIP3    H226282   2.673   6.229   2.330
 8781TIP3   OH226283   7.477   6.095   3.181
 8781TIP3    H126284   7.514   6.026   3.125
 8781TIP3    H226285   7.434   6.048   3.252
 8782TIP3   OH226286   2.813   2.435   1.388
 8782TIP3    H126287   2.834   2.464   1.477
 8782TIP3    H226288   2.897   2.407   1.351
 8783TIP3   OH226289   4.136   3.625   6.181
 8783TIP3    H126290   4.144   3.720   6.185
 8783TIP3    H226291   4.049   3.607   6.218
 8784TIP3   OH226292   4.769   1.398   4.643
 8784TIP3    H126293   4.699   1.343   4.607
 8784TIP3    H226294   4.806   1.443   4.567
 8785TIP3   OH226295   3.481   6.249   1.434
 8785TIP3    H126296   3.474   6.158   1.404
 8785TIP3    H226297   3.405   6.293   1.395
 8786TIP3   OH226298   2.224   1.266   4.102
 8786TIP3    H126299   2.282   1.221   4.041
 8786TIP3    H226300   2.283   1.312   4.161
 8787TIP3   OH226301   0.210   3.590   4.478
 8787TIP3    H126302   0.150   3.636   4.420
 8787TIP3    H226303   0.173   3.503   4.487
 8788TIP3   OH226304   7.106   0.444   6.102
 8788TIP3    H126305   7.040   0.471   6.038
 8788TIP3    H226306   7.122   0.523   6.154
 8789TIP3   OH226307   3.453   6.625   1.780
 8789TIP3    H126308   3.535   6.588   1.813
 8789TIP3    H226309   3.445   6.589   1.691
 8790TIP3   OH226310   2.608   7.882   5.216
 8790TIP3    H126311   2.519   7.917   5.225
 8790TIP3    H226312   2.606   7.836   5.132
 8791TIP3   OH226313   0.215   3.937   6.110
 8791TIP3    H126314   0.245   3.928   6.020
 8791TIP3    H226315   0.191   4.030   6.118
 8792TIP3   OH226316   2.495   5.477   3.222
 8792TIP3    H126317   2.564   5.481   3.156
 8792TIP3    H226318   2.417   5.450   3.173
 8793TIP3   OH226319   2.684   4.298   2.168
 8793TIP3    H126320   2.775   4.272   2.151
 8793TIP3    H226321   2.637   4.276   2.088
 8794TIP3   OH226322   2.710   2.620   1.044
 8794TIP3    H126323   2.637   2.586   1.096
 8794TIP3    H226324   2.780   2.557   1.057
 8795TIP3   OH226325   3.847   3.793   1.731
 8795TIP3    H126326   3.767   3.844   1.732
 8795TIP3    H226327   3.917   3.858   1.719
 8796TIP3   OH226328   1.023   6.287   5.711
 8796TIP3    H126329   1.026   6.197   5.680
 8796TIP3    H226330   1.023   6.280   5.806
 8797TIP3   OH226331   7.486   2.910   0.986
 8797TIP3    H126332   7.541   2.856   0.930
 8797TIP3    H226333   7.532   2.994   0.991
 8798TIP3   OH226334   6.803   1.772   5.447
 8798TIP3    H126335   6.742   1.715   5.495
 8798TIP3    H226336   6.755   1.853   5.434
 8799TIP3   OH226337   3.342   5.463   3.206
 8799TIP3    H126338   3.382   5.394   3.153
 8799TIP3    H226339   3.373   5.444   3.295
 8800TIP3   OH226340   2.999   5.788   1.123
 8800TIP3    H126341   2.930   5.846   1.091
 8800TIP3    H226342   2.956   5.704   1.135
 8801TIP3   OH226343   4.805   6.911   3.453
 8801TIP3    H126344   4.872   6.844   3.462
 8801TIP3    H226345   4.853   6.991   3.431
 8802TIP3   OH226346   7.471   3.180   0.733
 8802TIP3    H126347   7.498   3.098   0.692
 8802TIP3    H226348   7.485   3.166   0.827
 8803TIP3   OH226349   7.841   7.466   2.574
 8803TIP3    H126350   7.786   7.524   2.625
 8803TIP3    H226351   7.840   7.383   2.622
 8804TIP3   OH226352   4.505   0.425   3.206
 8804TIP3    H126353   4.508   0.330   3.206
 8804TIP3    H226354   4.549   0.451   3.125
 8805TIP3   OH226355   8.027   4.946   5.120
 8805TIP3    H126356   7.973   4.987   5.187
 8805TIP3    H226357   8.112   4.988   5.129
 8806TIP3   OH226358   6.464   5.761   5.778
 8806TIP3    H126359   6.395   5.695   5.782
 8806TIP3    H226360   6.484   5.769   5.685
 8807TIP3   OH226361   0.608   1.888   2.547
 8807TIP3    H126362   0.526   1.851   2.580
 8807TIP3    H226363   0.603   1.981   2.568
 8808TIP3   OH226364   1.348   1.094   2.699
 8808TIP3    H126365   1.416   1.030   2.720
 8808TIP3    H226366   1.301   1.107   2.781
 8809TIP3   OH226367   5.770   2.928   0.063
 8809TIP3    H126368   5.866   2.927   0.065
 8809TIP3    H226369   5.744   2.920   0.154
 8810TIP3   OH226370   5.231   4.871   6.117
 8810TIP3    H126371   5.159   4.933   6.120
 8810TIP3    H226372   5.189   4.785   6.127
 8811TIP3   OH226373   6.813   5.952   4.950
 8811TIP3    H126374   6.762   5.897   5.010
 8811TIP3    H226375   6.791   6.042   4.975
 8812TIP3   OH226376   0.909   2.666   0.677
 8812TIP3    H126377   1.003   2.679   0.663
 8812TIP3    H226378   0.896   2.690   0.769
 8813TIP3   OH226379   6.328   6.104   1.925
 8813TIP3    H126380   6.289   6.064   1.847
 8813TIP3    H226381   6.311   6.040   1.995
 8814TIP3   OH226382   1.156   3.852   1.462
 8814TIP3    H126383   1.183   3.780   1.406
 8814TIP3    H226384   1.229   3.914   1.458
 8815TIP3   OH226385   3.622   0.136   3.949
 8815TIP3    H126386   3.649   0.062   4.003
 8815TIP3    H226387   3.542   0.169   3.991
 8816TIP3   OH226388   8.140   7.628   5.737
 8816TIP3    H126389   8.194   7.549   5.732
 8816TIP3    H226390   8.062   7.601   5.786
 8817TIP3   OH226391   2.336   6.671   2.199
 8817TIP3    H126392   2.318   6.715   2.116
 8817TIP3    H226393   2.324   6.738   2.265
 8818TIP3   OH226394   0.444   5.990   4.667
 8818TIP3    H126395   0.364   6.014   4.714
 8818TIP3    H226396   0.419   5.994   4.575
 8819TIP3   OH226397   4.714   6.444   0.463
 8819TIP3    H126398   4.766   6.487   0.395
 8819TIP3    H226399   4.710   6.509   0.534
 8820TIP3   OH226400   3.215   5.516   5.760
 8820TIP3    H126401   3.273   5.442   5.740
 8820TIP3    H226402   3.141   5.477   5.806
 8821TIP3   OH226403   3.572   5.446   6.175
 8821TIP3    H126404   3.527   5.460   6.091
 8821TIP3    H226405   3.570   5.351   6.188
 8822TIP3   OH226406   5.605   5.382   1.741
 8822TIP3    H126407   5.535   5.324   1.768
 8822TIP3    H226408   5.568   5.470   1.750
 8823TIP3   OH226409   3.120   3.206   5.853
 8823TIP3    H126410   3.133   3.298   5.879
 8823TIP3    H226411   3.150   3.156   5.929
 8824TIP3   OH226412   2.544   7.404   0.110
 8824TIP3    H126413   2.536   7.366   0.198
 8824TIP3    H226414   2.472   7.365   0.061
 8825TIP3   OH226415   6.902   3.093   5.990
 8825TIP3    H126416   6.914   3.140   5.908
 8825TIP3    H226417   6.947   3.010   5.978
 8826TIP3   OH226418   3.905   6.893   0.677
 8826TIP3    H126419   3.853   6.824   0.717
 8826TIP3    H226420   3.995   6.872   0.700
 8827TIP3   OH226421   6.453   6.622   6.505
 8827TIP3    H126422   6.507   6.657   6.576
 8827TIP3    H226423   6.399   6.696   6.478
 8828TIP3   OH226424   6.688   7.157   1.910
 8828TIP3    H126425   6.765   7.100   1.916
 8828TIP3    H226426   6.713   7.226   1.849
 8829TIP3   OH226427   7.993   1.649   4.167
 8829TIP3    H126428   8.076   1.645   4.118
 8829TIP3    H226429   7.992   1.738   4.203
 8830TIP3   OH226430   6.505   0.671   4.419
 8830TIP3    H126431   6.551   0.692   4.501
 8830TIP3    H226432   6.496   0.755   4.374
 8831TIP3   OH226433   7.345   3.826   0.010
 8831TIP3    H126434   7.340   3.742   0.055
 8831TIP3    H226435   7.264   3.871   0.035
 8832TIP3   OH226436   7.217   3.971   5.883
 8832TIP3    H126437   7.178   4.057   5.867
 8832TIP3    H226438   7.160   3.931   5.948
 8833TIP3   OH226439   8.245   6.859   3.756
 8833TIP3    H126440   8.226   6.770   3.784
 8833TIP3    H226441   8.160   6.895   3.731
 8834TIP3   OH226442   3.781   4.010   6.565
 8834TIP3    H126443   3.736   4.040   6.643
 8834TIP3    H226444   3.729   3.934   6.536
 8835TIP3   OH226445   4.351   6.216   3.848
 8835TIP3    H126446   4.266   6.223   3.806
 8835TIP3    H226447   4.398   6.149   3.798
 8836TIP3   OH226448   7.265   2.630   0.427
 8836TIP3    H126449   7.280   2.678   0.346
 8836TIP3    H226450   7.338   2.568   0.432
 8837TIP3   OH226451   5.230   6.931   3.344
 8837TIP3    H126452   5.277   6.848   3.344
 8837TIP3    H226453   5.146   6.911   3.386
 8838TIP3   OH226454   4.395   0.653   4.703
 8838TIP3    H126455   4.458   0.583   4.687
 8838TIP3    H226456   4.321   0.609   4.744
 8839TIP3   OH226457   5.132   2.123   4.262
 8839TIP3    H126458   5.160   2.197   4.207
 8839TIP3    H226459   5.058   2.085   4.215
 8840TIP3   OH226460   5.009   7.601   5.758
 8840TIP3    H126461   4.996   7.638   5.845
 8840TIP3    H226462   5.099   7.570   5.758
 8841TIP3   OH226463   8.325   1.993   5.978
 8841TIP3    H126464   8.232   1.984   5.957
 8841TIP3    H226465   8.327   2.048   6.056
 8842TIP3   OH226466   2.579   6.045   5.694
 8842TIP3    H126467   2.603   6.111   5.628
 8842TIP3    H226468   2.490   6.070   5.721
 8843TIP3   OH226469   1.121   5.995   5.726
 8843TIP3    H126470   1.033   5.986   5.762
 8843TIP3    H226471   1.138   5.912   5.682
 8844TIP3   OH226472   2.057   0.168   5.620
 8844TIP3    H126473   2.113   0.185   5.695
 8844TIP3    H226474   1.969   0.190   5.650
 8845TIP3   OH226475   7.136   3.325   0.315
 8845TIP3    H126476   7.180   3.297   0.235
 8845TIP3    H226477   7.045   3.297   0.303
 8846TIP3   OH226478   7.400   5.592   0.667
 8846TIP3    H126479   7.391   5.682   0.635
 8846TIP3    H226480   7.323   5.579   0.723
 8847TIP3   OH226481   3.300   7.444   3.064
 8847TIP3    H126482   3.242   7.457   3.139
 8847TIP3    H226483   3.329   7.354   3.072
 8848TIP3   OH226484   6.234   6.831   2.034
 8848TIP3    H126485   6.306   6.780   2.072
 8848TIP3    H226486   6.276   6.883   1.965
 8849TIP3   OH226487   3.051   1.879   6.104
 8849TIP3    H126488   3.128   1.826   6.083
 8849TIP3    H226489   3.002   1.883   6.022
 8850TIP3   OH226490   2.192   5.578   4.934
 8850TIP3    H126491   2.267   5.637   4.936
 8850TIP3    H226492   2.209   5.521   4.858
 8851TIP3   OH226493   2.961   0.417   5.725
 8851TIP3    H126494   3.048   0.377   5.727
 8851TIP3    H226495   2.901   0.343   5.715
 8852TIP3   OH226496   8.187   7.892   0.297
 8852TIP3    H126497   8.260   7.877   0.356
 8852TIP3    H226498   8.145   7.806   0.288
 8853TIP3   OH226499   8.110   0.328   3.973
 8853TIP3    H126500   8.059   0.386   4.029
 8853TIP3    H226501   8.165   0.388   3.922
 8854TIP3   OH226502   1.967   3.334   1.635
 8854TIP3    H126503   2.007   3.274   1.697
 8854TIP3    H226504   1.874   3.335   1.658
 8855TIP3   OH226505   7.227   6.093   1.454
 8855TIP3    H126506   7.307   6.041   1.453
 8855TIP3    H226507   7.195   6.089   1.364
 8856TIP3   OH226508   1.149   6.985   0.353
 8856TIP3    H126509   1.066   6.943   0.377
 8856TIP3    H226510   1.214   6.941   0.407
 8857TIP3   OH226511   0.184   2.607   5.549
 8857TIP3    H126512   0.260   2.656   5.517
 8857TIP3    H226513   0.154   2.557   5.473
 8858TIP3   OH226514   2.304   3.080   5.403
 8858TIP3    H126515   2.366   3.042   5.341
 8858TIP3    H226516   2.289   3.169   5.372
 8859TIP3   OH226517   0.665   1.919   0.989
 8859TIP3    H126518   0.731   1.930   1.058
 8859TIP3    H226519   0.618   2.002   0.987
 8860TIP3   OH226520   4.849   3.274   0.745
 8860TIP3    H126521   4.764   3.304   0.713
 8860TIP3    H226522   4.839   3.274   0.841
 8861TIP3   OH226523   3.792   1.814   6.063
 8861TIP3    H126524   3.828   1.901   6.079
 8861TIP3    H226525   3.829   1.760   6.132
 8862TIP3   OH226526   5.446   3.064   0.491
 8862TIP3    H126527   5.443   2.980   0.536
 8862TIP3    H226528   5.406   3.047   0.405
 8863TIP3   OH226529   3.701   4.955   6.060
 8863TIP3    H126530   3.708   4.967   5.965
 8863TIP3    H226531   3.776   4.899   6.082
 8864TIP3   OH226532   4.291   2.953   4.856
 8864TIP3    H126533   4.336   2.982   4.936
 8864TIP3    H226534   4.265   3.035   4.813
 8865TIP3   OH226535   4.403   1.620   1.093
 8865TIP3    H126536   4.450   1.696   1.057
 8865TIP3    H226537   4.434   1.614   1.184
 8866TIP3   OH226538   1.253   2.687   5.717
 8866TIP3    H126539   1.245   2.719   5.807
 8866TIP3    H226540   1.166   2.656   5.695
 8867TIP3   OH226541   4.586   4.521   6.154
 8867TIP3    H126542   4.578   4.616   6.153
 8867TIP3    H226543   4.526   4.491   6.086
 8868TIP3   OH226544   7.842   1.307   5.553
 8868TIP3    H126545   7.921   1.353   5.524
 8868TIP3    H226546   7.772   1.343   5.499
 8869TIP3   OH226547   0.611   3.862   4.311
 8869TIP3    H126548   0.596   3.918   4.388
 8869TIP3    H226549   0.543   3.795   4.316
 8870TIP3   OH226550   3.293   1.189   1.054
 8870TIP3    H126551   3.257   1.105   1.084
 8870TIP3    H226552   3.382   1.168   1.025
 8871TIP3   OH226553   0.130   2.878   2.427
 8871TIP3    H126554   0.176   2.870   2.511
 8871TIP3    H226555   0.200   2.898   2.364
 8872TIP3   OH226556   2.761   5.771   4.186
 8872TIP3    H126557   2.728   5.776   4.096
 8872TIP3    H226558   2.705   5.705   4.228
 8873TIP3   OH226559   1.625   2.268   0.585
 8873TIP3    H126560   1.586   2.312   0.661
 8873TIP3    H226561   1.623   2.175   0.607
 8874TIP3   OH226562   7.925   7.749   6.344
 8874TIP3    H126563   7.868   7.822   6.369
 8874TIP3    H226564   8.000   7.755   6.404
 8875TIP3   OH226565   8.077   7.536   2.896
 8875TIP3    H126566   8.010   7.571   2.954
 8875TIP3    H226567   8.090   7.605   2.830
 8876TIP3   OH226568   5.969   0.583   2.666
 8876TIP3    H126569   5.919   0.577   2.748
 8876TIP3    H226570   6.048   0.631   2.690
 8877TIP3   OH226571   0.937   1.697   3.915
 8877TIP3    H126572   0.943   1.612   3.871
 8877TIP3    H226573   0.935   1.676   4.008
 8878TIP3   OH226574   7.802   5.886   2.436
 8878TIP3    H126575   7.853   5.906   2.514
 8878TIP3    H226576   7.722   5.846   2.469
 8879TIP3   OH226577   5.573   1.269   1.201
 8879TIP3    H126578   5.620   1.213   1.138
 8879TIP3    H226579   5.535   1.338   1.147
 8880TIP3   OH226580   7.056   2.933   5.253
 8880TIP3    H126581   6.988   2.869   5.274
 8880TIP3    H226582   7.030   3.012   5.300
 8881TIP3   OH226583   2.522   7.218   1.093
 8881TIP3    H126584   2.459   7.274   1.047
 8881TIP3    H226585   2.593   7.277   1.119
 8882TIP3   OH226586   7.793   2.513   6.740
 8882TIP3    H126587   7.859   2.544   6.678
 8882TIP3    H226588   7.842   2.462   6.804
 8883TIP3   OH226589   4.766   0.658   1.064
 8883TIP3    H126590   4.708   0.602   1.116
 8883TIP3    H226591   4.713   0.687   0.991
 8884TIP3   OH226592   2.241   5.131   4.044
 8884TIP3    H126593   2.216   5.156   4.133
 8884TIP3    H226594   2.171   5.072   4.016
 8885TIP3   OH226595   6.794   4.501   4.171
 8885TIP3    H126596   6.749   4.434   4.120
 8885TIP3    H226597   6.875   4.459   4.201
 8886TIP3   OH226598   0.737   2.197   2.781
 8886TIP3    H126599   0.713   2.289   2.788
 8886TIP3    H226600   0.672   2.151   2.834
 8887TIP3   OH226601   2.718   3.436   5.770
 8887TIP3    H126602   2.688   3.519   5.807
 8887TIP3    H226603   2.702   3.444   5.675
 8888TIP3   OH226604   6.324   0.289   0.703
 8888TIP3    H126605   6.418   0.287   0.718
 8888TIP3    H226606   6.295   0.372   0.741
 8889TIP3   OH226607   0.826   1.981   3.979
 8889TIP3    H126608   0.881   1.979   3.901
 8889TIP3    H226609   0.868   2.046   4.036
 8890TIP3   OH226610   7.776   0.124   0.416
 8890TIP3    H126611   7.755   0.162   0.330
 8890TIP3    H226612   7.725   0.043   0.419
 8891TIP3   OH226613   0.327   7.853   2.797
 8891TIP3    H126614   0.388   7.923   2.822
 8891TIP3    H226615   0.266   7.896   2.737
 8892TIP3   OH226616   5.076   0.320   6.715
 8892TIP3    H126617   5.023   0.351   6.788
 8892TIP3    H226618   5.166   0.346   6.738
 8893TIP3   OH226619   5.676   0.533   3.558
 8893TIP3    H126620   5.735   0.458   3.564
 8893TIP3    H226621   5.615   0.510   3.488
 8894TIP3   OH226622   5.666   4.756   5.118
 8894TIP3    H126623   5.739   4.806   5.083
 8894TIP3    H226624   5.703   4.670   5.140
 8895TIP3   OH226625   2.240   7.488   2.479
 8895TIP3    H126626   2.269   7.492   2.570
 8895TIP3    H226627   2.146   7.470   2.484
 8896TIP3   OH226628   5.333   6.440   3.205
 8896TIP3    H126629   5.269   6.390   3.155
 8896TIP3    H226630   5.369   6.377   3.268
 8897TIP3   OH226631   7.244   5.776   3.607
 8897TIP3    H126632   7.244   5.848   3.543
 8897TIP3    H226633   7.171   5.795   3.665
 8898TIP3   OH226634   0.079   4.916   2.479
 8898TIP3    H126635   0.130   4.841   2.512
 8898TIP3    H226636   0.001   4.917   2.534
 8899TIP3   OH226637   7.562   3.395   4.239
 8899TIP3    H126638   7.511   3.431   4.312
 8899TIP3    H226639   7.596   3.312   4.272
 8900TIP3   OH226640   5.438   3.741   4.845
 8900TIP3    H126641   5.502   3.792   4.894
 8900TIP3    H226642   5.359   3.795   4.843
 8901TIP3   OH226643   2.955   1.225   1.964
 8901TIP3    H126644   2.862   1.248   1.959
 8901TIP3    H226645   2.995   1.274   1.891
 8902TIP3   OH226646   7.080   5.155   3.222
 8902TIP3    H126647   7.170   5.126   3.208
 8902TIP3    H226648   7.062   5.214   3.148
 8903TIP3   OH226649   5.242   7.690   4.676
 8903TIP3    H126650   5.179   7.742   4.626
 8903TIP3    H226651   5.259   7.614   4.621
 8904TIP3   OH226652   4.308   1.411   1.329
 8904TIP3    H126653   4.371   1.483   1.334
 8904TIP3    H226654   4.361   1.335   1.305
 8905TIP3   OH226655   3.638   3.800   4.808
 8905TIP3    H126656   3.556   3.752   4.820
 8905TIP3    H226657   3.628   3.877   4.864
 8906TIP3   OH226658   7.991   2.966   4.613
 8906TIP3    H126659   8.085   2.969   4.630
 8906TIP3    H226660   7.962   2.885   4.654
 8907TIP3   OH226661   2.638   1.625   4.623
 8907TIP3    H126662   2.674   1.668   4.546
 8907TIP3    H226663   2.692   1.546   4.634
 8908TIP3   OH226664   4.136   6.457   3.890
 8908TIP3    H126665   4.140   6.475   3.796
 8908TIP3    H226666   4.044   6.439   3.907
 8909TIP3   OH226667   3.650   4.800   3.494
 8909TIP3    H126668   3.642   4.716   3.540
 8909TIP3    H226669   3.667   4.777   3.403
 8910TIP3   OH226670   3.245   1.862   6.390
 8910TIP3    H126671   3.283   1.774   6.393
 8910TIP3    H226672   3.170   1.854   6.332
 8911TIP3   OH226673   0.634   1.112   1.625
 8911TIP3    H126674   0.546   1.082   1.604
 8911TIP3    H226675   0.634   1.205   1.599
 8912TIP3   OH226676   6.717   7.339   6.470
 8912TIP3    H126677   6.626   7.316   6.447
 8912TIP3    H226678   6.768   7.262   6.445
 8913TIP3   OH226679   1.592   7.086   5.669
 8913TIP3    H126680   1.667   7.072   5.727
 8913TIP3    H226681   1.626   7.066   5.582
 8914TIP3   OH226682   1.048   2.933   5.797
 8914TIP3    H126683   1.003   2.853   5.825
 8914TIP3    H226684   1.056   2.985   5.877
 8915TIP3   OH226685   4.613   4.539   0.086
 8915TIP3    H126686   4.644   4.629   0.078
 8915TIP3    H226687   4.576   4.518   0.000
 8916TIP3   OH226688   2.190   2.383   2.700
 8916TIP3    H126689   2.184   2.291   2.728
 8916TIP3    H226690   2.258   2.421   2.756
 8917TIP3   OH226691   3.530   3.291   4.967
 8917TIP3    H126692   3.482   3.208   4.975
 8917TIP3    H226693   3.520   3.315   4.875
 8918TIP3   OH226694   6.956   4.109   2.505
 8918TIP3    H126695   6.886   4.043   2.503
 8918TIP3    H226696   6.961   4.136   2.597
 8919TIP3   OH226697   2.244   3.746   0.943
 8919TIP3    H126698   2.213   3.661   0.976
 8919TIP3    H226699   2.338   3.734   0.931
 8920TIP3   OH226700   6.529   1.872   3.848
 8920TIP3    H126701   6.521   1.925   3.768
 8920TIP3    H226702   6.479   1.921   3.913
 8921TIP3   OH226703   4.856   2.498   0.947
 8921TIP3    H126704   4.854   2.573   0.888
 8921TIP3    H226705   4.899   2.530   1.026
 8922TIP3   OH226706   6.441   7.332   5.635
 8922TIP3    H126707   6.408   7.328   5.545
 8922TIP3    H226708   6.410   7.252   5.676
 8923TIP3   OH226709   7.453   4.540   4.563
 8923TIP3    H126710   7.370   4.496   4.577
 8923TIP3    H226711   7.459   4.605   4.633
 8924TIP3   OH226712   4.098   1.983   2.509
 8924TIP3    H126713   4.048   1.919   2.458
 8924TIP3    H226714   4.144   1.931   2.575
 8925TIP3   OH226715   7.970  -0.011   2.425
 8925TIP3    H126716   7.983   0.084   2.434
 8925TIP3    H226717   8.019  -0.049   2.498
 8926TIP3   OH226718   0.165   4.049   3.071
 8926TIP3    H126719   0.260   4.045   3.056
 8926TIP3    H226720   0.129   4.074   2.986
 8927TIP3   OH226721   0.816   2.637   4.768
 8927TIP3    H126722   0.823   2.639   4.673
 8927TIP3    H226723   0.817   2.729   4.794
 8928TIP3   OH226724   5.281   3.767   5.138
 8928TIP3    H126725   5.239   3.691   5.099
 8928TIP3    H226726   5.274   3.836   5.071
 8929TIP3   OH226727   7.349   0.001   1.182
 8929TIP3    H126728   7.265  -0.032   1.153
 8929TIP3    H226729   7.360   0.083   1.133
 8930TIP3   OH226730   2.929   2.769   4.377
 8930TIP3    H126731   2.968   2.856   4.392
 8930TIP3    H226732   3.002   2.708   4.390
 8931TIP3   OH226733   2.842   5.559   2.284
 8931TIP3    H126734   2.920   5.504   2.277
 8931TIP3    H226735   2.868   5.631   2.342
 8932TIP3   OH226736   6.765   6.526   5.171
 8932TIP3    H126737   6.691   6.573   5.132
 8932TIP3    H226738   6.737   6.434   5.172
 8933TIP3   OH226739   0.286   3.974   0.474
 8933TIP3    H126740   0.250   4.037   0.411
 8933TIP3    H226741   0.210   3.937   0.518
 8934TIP3   OH226742   2.696   3.245   2.705
 8934TIP3    H126743   2.729   3.325   2.662
 8934TIP3    H226744   2.770   3.184   2.702
 8935TIP3   OH226745   1.590   1.699   2.390
 8935TIP3    H126746   1.636   1.721   2.309
 8935TIP3    H226747   1.524   1.768   2.398
 8936TIP3   OH226748   0.423   5.358   1.462
 8936TIP3    H126749   0.419   5.403   1.546
 8936TIP3    H226750   0.421   5.428   1.397
 8937TIP3   OH226751   0.179   1.857   3.059
 8937TIP3    H126752   0.271   1.831   3.060
 8937TIP3    H226753   0.132   1.780   3.091
 8938TIP3   OH226754   7.953   6.679   4.046
 8938TIP3    H126755   7.957   6.635   3.961
 8938TIP3    H226756   7.908   6.617   4.103
 8939TIP3   OH226757   1.813   2.943   4.200
 8939TIP3    H126758   1.764   2.863   4.216
 8939TIP3    H226759   1.904   2.915   4.193
 8940TIP3   OH226760   4.848   7.579   3.690
 8940TIP3    H126761   4.897   7.628   3.623
 8940TIP3    H226762   4.864   7.627   3.771
 8941TIP3   OH226763   8.029   5.439   6.001
 8941TIP3    H126764   8.107   5.419   6.051
 8941TIP3    H226765   8.000   5.355   5.967
 8942TIP3   OH226766   6.234   4.048   4.033
 8942TIP3    H126767   6.144   4.016   4.027
 8942TIP3    H226768   6.253   4.081   3.945
 8943TIP3   OH226769   2.817   6.056   2.103
 8943TIP3    H126770   2.852   5.973   2.072
 8943TIP3    H226771   2.888   6.095   2.154
 8944TIP3   OH226772   3.853   1.070   1.623
 8944TIP3    H126773   3.828   1.057   1.714
 8944TIP3    H226774   3.921   1.003   1.607
 8945TIP3   OH226775   5.920   2.435   1.366
 8945TIP3    H126776   5.884   2.347   1.376
 8945TIP3    H226777   5.965   2.453   1.448
 8946TIP3   OH226778   1.119   6.500   2.368
 8946TIP3    H126779   1.196   6.501   2.424
 8946TIP3    H226780   1.103   6.407   2.350
 8947TIP3   OH226781   7.856   1.481   1.547
 8947TIP3    H126782   7.863   1.543   1.620
 8947TIP3    H226783   7.769   1.442   1.558
 8948TIP3   OH226784   6.049   5.076   5.160
 8948TIP3    H126785   6.109   5.066   5.234
 8948TIP3    H226786   6.096   5.134   5.100
 8949TIP3   OH226787   2.328   2.947   0.933
 8949TIP3    H126788   2.282   2.864   0.943
 8949TIP3    H226789   2.343   2.955   0.839
 8950TIP3   OH226790   7.274   3.213   6.088
 8950TIP3    H126791   7.236   3.274   6.024
 8950TIP3    H226792   7.329   3.155   6.035
 8951TIP3   OH226793   2.501   7.891   2.447
 8951TIP3    H126794   2.479   7.926   2.361
 8951TIP3    H226795   2.551   7.811   2.429
 8952TIP3   OH226796   2.265   1.774   2.271
 8952TIP3    H126797   2.336   1.751   2.211
 8952TIP3    H226798   2.262   1.701   2.333
 8953TIP3   OH226799   7.006   6.828   2.141
 8953TIP3    H126800   6.987   6.737   2.123
 8953TIP3    H226801   6.959   6.877   2.073
 8954TIP3   OH226802   4.786   6.055   2.275
 8954TIP3    H126803   4.809   5.974   2.321
 8954TIP3    H226804   4.749   6.111   2.342
 8955TIP3   OH226805   2.411   0.435   5.254
 8955TIP3    H126806   2.351   0.469   5.320
 8955TIP3    H226807   2.496   0.472   5.278
 8956TIP3   OH226808   4.203   0.853   1.678
 8956TIP3    H126809   4.175   0.906   1.753
 8956TIP3    H226810   4.138   0.784   1.671
 8957TIP3   OH226811   3.869   5.654   5.190
 8957TIP3    H126812   3.964   5.649   5.177
 8957TIP3    H226813   3.840   5.563   5.194
 8958TIP3   OH226814   3.397   4.250   1.774
 8958TIP3    H126815   3.444   4.173   1.804
 8958TIP3    H226816   3.422   4.319   1.835
 8959TIP3   OH226817   1.357   5.314   6.544
 8959TIP3    H126818   1.279   5.298   6.597
 8959TIP3    H226819   1.429   5.310   6.607
 8960TIP3   OH226820   5.804   0.598   4.199
 8960TIP3    H126821   5.738   0.565   4.138
 8960TIP3    H226822   5.887   0.588   4.153
 8961TIP3   OH226823   7.878   5.769   3.742
 8961TIP3    H126824   7.862   5.821   3.664
 8961TIP3    H226825   7.921   5.690   3.709
 8962TIP3   OH226826   8.172   1.569   1.989
 8962TIP3    H126827   8.224   1.495   1.958
 8962TIP3    H226828   8.236   1.630   2.024
 8963TIP3   OH226829   7.073   7.347   1.264
 8963TIP3    H126830   7.117   7.262   1.271
 8963TIP3    H226831   6.980   7.327   1.273
 8964TIP3   OH226832   4.942   1.429   0.320
 8964TIP3    H126833   4.864   1.452   0.268
 8964TIP3    H226834   4.913   1.356   0.374
 8965TIP3   OH226835   0.227   5.185   0.947
 8965TIP3    H126836   0.321   5.186   0.963
 8965TIP3    H226837   0.219   5.185   0.851
 8966TIP3   OH226838   0.755   5.427   3.066
 8966TIP3    H126839   0.773   5.376   3.144
 8966TIP3    H226840   0.785   5.372   2.994
 8967TIP3   OH226841   2.177   7.525   0.244
 8967TIP3    H126842   2.221   7.444   0.269
 8967TIP3    H226843   2.152   7.564   0.328
 8968TIP3   OH226844   7.898   4.531   3.843
 8968TIP3    H126845   7.862   4.444   3.863
 8968TIP3    H226846   7.932   4.523   3.754
 8969TIP3   OH226847   1.058   0.886   2.246
 8969TIP3    H126848   1.011   0.847   2.172
 8969TIP3    H226849   0.992   0.936   2.293
 8970TIP3   OH226850   4.656   1.624   6.012
 8970TIP3    H126851   4.667   1.543   5.963
 8970TIP3    H226852   4.672   1.693   5.948
 8971TIP3   OH226853   6.961   0.293   1.547
 8971TIP3    H126854   7.056   0.307   1.537
 8971TIP3    H226855   6.926   0.307   1.459
 8972TIP3   OH226856   3.253   0.178   4.828
 8972TIP3    H126857   3.276   0.271   4.829
 8972TIP3    H226858   3.293   0.145   4.747
 8973TIP3   OH226859   2.961   1.441   2.491
 8973TIP3    H126860   3.033   1.494   2.455
 8973TIP3    H226861   2.887   1.502   2.495
 8974TIP3   OH226862   3.134   1.239   0.792
 8974TIP3    H126863   3.215   1.244   0.844
 8974TIP3    H226864   3.153   1.290   0.713
 8975TIP3   OH226865   0.478   0.567   1.005
 8975TIP3    H126866   0.573   0.553   1.011
 8975TIP3    H226867   0.447   0.551   1.094
 8976TIP3   OH226868   8.181   1.342   0.908
 8976TIP3    H126869   8.274   1.332   0.929
 8976TIP3    H226870   8.175   1.327   0.814
 8977TIP3   OH226871   3.817   0.009   3.190
 8977TIP3    H126872   3.850   0.098   3.197
 8977TIP3    H226873   3.763  -0.004   3.268
 8978TIP3   OH226874   1.930   3.951   1.572
 8978TIP3    H126875   2.009   3.902   1.550
 8978TIP3    H226876   1.865   3.884   1.591
 8979TIP3   OH226877   6.220   5.697   1.971
 8979TIP3    H126878   6.284   5.649   2.024
 8979TIP3    H226879   6.198   5.637   1.900
 8980TIP3   OH226880   1.814   5.933   0.589
 8980TIP3    H126881   1.905   5.906   0.582
 8980TIP3    H226882   1.817   6.029   0.583
 8981TIP3   OH226883   0.861   1.706   3.140
 8981TIP3    H126884   0.869   1.691   3.046
 8981TIP3    H226885   0.880   1.622   3.180
 8982TIP3   OH226886   3.202   6.550   4.492
 8982TIP3    H126887   3.290   6.513   4.482
 8982TIP3    H226888   3.184   6.545   4.585
 8983TIP3   OH226889   1.346   1.195   3.980
 8983TIP3    H126890   1.267   1.208   3.926
 8983TIP3    H226891   1.413   1.166   3.918
 8984TIP3   OH226892   6.173   1.692   5.573
 8984TIP3    H126893   6.171   1.729   5.661
 8984TIP3    H226894   6.128   1.607   5.582
 8985TIP3   OH226895   6.538   7.601   5.531
 8985TIP3    H126896   6.533   7.654   5.612
 8985TIP3    H226897   6.524   7.511   5.561
 8986TIP3   OH226898   6.677   3.579   6.828
 8986TIP3    H126899   6.765   3.540   6.823
 8986TIP3    H226900   6.648   3.585   6.737
 8987TIP3   OH226901   5.718   0.385   2.136
 8987TIP3    H126902   5.670   0.363   2.216
 8987TIP3    H226903   5.652   0.383   2.067
 8988TIP3   OH226904   5.838   2.882   2.825
 8988TIP3    H126905   5.874   2.795   2.842
 8988TIP3    H226906   5.914   2.934   2.798
 8989TIP3   OH226907   0.889   1.178   3.623
 8989TIP3    H126908   0.815   1.126   3.655
 8989TIP3    H226909   0.850   1.264   3.604
 8990TIP3   OH226910   5.420   5.854   6.831
 8990TIP3    H126911   5.447   5.776   6.879
 8990TIP3    H226912   5.488   5.867   6.766
 8991TIP3   OH226913   1.399   1.870   5.382
 8991TIP3    H126914   1.454   1.792   5.388
 8991TIP3    H226915   1.455   1.941   5.412
 8992TIP3   OH226916   5.939   1.531   2.958
 8992TIP3    H126917   5.970   1.462   3.017
 8992TIP3    H226918   5.913   1.603   3.016
 8993TIP3   OH226919   6.825   0.609   2.084
 8993TIP3    H126920   6.785   0.650   2.008
 8993TIP3    H226921   6.827   0.515   2.063
 8994TIP3   OH226922   5.653   3.893   4.568
 8994TIP3    H126923   5.627   3.984   4.576
 8994TIP3    H226924   5.746   3.892   4.589
 8995TIP3   OH226925   6.388   6.051   1.406
 8995TIP3    H126926   6.315   6.100   1.444
 8995TIP3    H226927   6.433   6.115   1.351
 8996TIP3   OH226928   1.629   1.416   2.737
 8996TIP3    H126929   1.710   1.426   2.687
 8996TIP3    H226930   1.564   1.390   2.672
 8997TIP3   OH226931   3.550   5.186   5.656
 8997TIP3    H126932   3.525   5.233   5.576
 8997TIP3    H226933   3.646   5.193   5.658
 8998TIP3   OH226934   1.313   7.573   5.928
 8998TIP3    H126935   1.379   7.563   5.859
 8998TIP3    H226936   1.292   7.483   5.954
 8999TIP3   OH226937   5.941   6.810   1.944
 8999TIP3    H126938   6.014   6.803   2.006
 8999TIP3    H226939   5.948   6.732   1.889
 9000TIP3   OH226940   6.995   7.477   4.487
 9000TIP3    H126941   6.974   7.563   4.450
 9000TIP3    H226942   6.937   7.469   4.563
 9001TIP3   OH226943   7.664   6.623   4.405
 9001TIP3    H126944   7.724   6.648   4.475
 9001TIP3    H226945   7.587   6.589   4.451
 9002TIP3   OH226946   3.664   6.387   1.771
 9002TIP3    H126947   3.728   6.412   1.705
 9002TIP3    H226948   3.629   6.303   1.741
 9003TIP3   OH226949   0.869   2.895   4.869
 9003TIP3    H126950   0.959   2.870   4.852
 9003TIP3    H226951   0.870   2.928   4.959
 9004TIP3   OH226952   4.034   6.745   0.374
 9004TIP3    H126953   4.125   6.756   0.346
 9004TIP3    H226954   4.030   6.656   0.408
 9005TIP3   OH226955   7.058   1.888   4.728
 9005TIP3    H126956   7.092   1.877   4.817
 9005TIP3    H226957   7.060   1.800   4.690
 9006TIP3   OH226958   5.897   7.829   1.677
 9006TIP3    H126959   5.813   7.861   1.646
 9006TIP3    H226960   5.943   7.800   1.598
 9007TIP3   OH226961   2.558   1.522   5.247
 9007TIP3    H126962   2.640   1.493   5.205
 9007TIP3    H226963   2.493   1.457   5.220
 9008TIP3   OH226964   6.117   5.349   3.961
 9008TIP3    H126965   6.208   5.335   3.935
 9008TIP3    H226966   6.122   5.417   4.028
 9009TIP3   OH226967   4.623   6.277  -0.015
 9009TIP3    H126968   4.577   6.295   0.067
 9009TIP3    H226969   4.705   6.236   0.011
 9010TIP3   OH226970   2.702   3.216   5.899
 9010TIP3    H126971   2.780   3.228   5.844
 9010TIP3    H226972   2.669   3.304   5.914
 9011TIP3   OH226973   5.560   7.803   3.477
 9011TIP3    H126974   5.522   7.883   3.514
 9011TIP3    H226975   5.597   7.757   3.552
 9012TIP3   OH226976   8.182   7.348   6.805
 9012TIP3    H126977   8.119   7.276   6.800
 9012TIP3    H226978   8.184   7.371   6.898
 9013TIP3   OH226979   1.688   7.019   0.331
 9013TIP3    H126980   1.784   7.015   0.332
 9013TIP3    H226981   1.667   7.085   0.264
 9014TIP3   OH226982   0.271   4.906   1.991
 9014TIP3    H126983   0.269   4.820   1.950
 9014TIP3    H226984   0.279   4.888   2.085
 9015TIP3   OH226985   5.588   4.146   3.927
 9015TIP3    H126986   5.592   4.093   3.848
 9015TIP3    H226987   5.497   4.141   3.956
 9016TIP3   OH226988   1.249   5.035   1.195
 9016TIP3    H126989   1.261   4.942   1.214
 9016TIP3    H226990   1.338   5.070   1.185
 9017TIP3   OH226991   5.078   1.636   1.198
 9017TIP3    H126992   5.014   1.705   1.209
 9017TIP3    H226993   5.035   1.571   1.142
 9018TIP3   OH226994   7.065   6.897   5.921
 9018TIP3    H126995   6.993   6.834   5.923
 9018TIP3    H226996   7.118   6.875   5.997
 9019TIP3   OH226997   7.974   5.157   4.954
 9019TIP3    H126998   8.043   5.218   4.927
 9019TIP3    H226999   8.022   5.082   4.991
 9020TIP3   OH227000   5.367   0.470   4.154
 9020TIP3    H127001   5.296   0.514   4.107
 9020TIP3    H227002   5.330   0.385   4.178
 9021TIP3   OH227003   4.464   6.134   1.320
 9021TIP3    H127004   4.436   6.094   1.238
 9021TIP3    H227005   4.384   6.139   1.373
 9022TIP3   OH227006   3.721   6.373   4.732
 9022TIP3    H127007   3.650   6.312   4.715
 9022TIP3    H227008   3.696   6.417   4.813
 9023TIP3   OH227009   2.799   1.545   5.695
 9023TIP3    H127010   2.843   1.514   5.617
 9023TIP3    H227011   2.710   1.565   5.666
 9024TIP3   OH227012   4.082   3.528   1.421
 9024TIP3    H127013   3.994   3.494   1.408
 9024TIP3    H227014   4.138   3.450   1.426
 9025TIP3   OH227015   1.818   6.692   1.064
 9025TIP3    H127016   1.873   6.767   1.040
 9025TIP3    H227017   1.829   6.683   1.159
 9026TIP3   OH227018   7.244   6.775   4.966
 9026TIP3    H127019   7.188   6.719   5.019
 9026TIP3    H227020   7.199   6.860   4.965
 9027TIP3   OH227021   2.388   1.329   2.988
 9027TIP3    H127022   2.387   1.247   2.937
 9027TIP3    H227023   2.313   1.320   3.048
 9028TIP3   OH227024   1.019   4.962   6.061
 9028TIP3    H127025   1.110   4.981   6.083
 9028TIP3    H227026   1.005   5.007   5.977
 9029TIP3   OH227027   0.670   5.161   0.233
 9029TIP3    H127028   0.632   5.134   0.150
 9029TIP3    H227029   0.717   5.242   0.214
 9030TIP3   OH227030   5.980   4.754   5.297
 9030TIP3    H127031   5.929   4.673   5.303
 9030TIP3    H227032   5.922   4.821   5.333
 9031TIP3   OH227033   2.344   3.522   6.547
 9031TIP3    H127034   2.305   3.469   6.617
 9031TIP3    H227035   2.362   3.460   6.477
 9032TIP3   OH227036   6.544   3.457   0.759
 9032TIP3    H127037   6.568   3.549   0.768
 9032TIP3    H227038   6.520   3.447   0.667
 9033TIP3   OH227039   0.035   1.955   2.554
 9033TIP3    H127040   0.052   2.038   2.600
 9033TIP3    H227041   0.071   1.968   2.466
 9034TIP3   OH227042   2.303   2.189   1.956
 9034TIP3    H127043   2.355   2.211   1.879
 9034TIP3    H227044   2.250   2.268   1.972
 9035TIP3   OH227045   5.866   3.549   1.757
 9035TIP3    H127046   5.864   3.603   1.835
 9035TIP3    H227047   5.957   3.554   1.726
 9036TIP3   OH227048   4.963   5.624   3.148
 9036TIP3    H127049   4.959   5.531   3.124
 9036TIP3    H227050   4.976   5.623   3.243
 9037TIP3   OH227051   7.985   2.967   2.817
 9037TIP3    H127052   7.900   2.923   2.819
 9037TIP3    H227053   8.040   2.917   2.877
 9038TIP3   OH227054   2.823   3.303   2.393
 9038TIP3    H127055   2.745   3.264   2.353
 9038TIP3    H227056   2.789   3.375   2.447
 9039TIP3   OH227057   3.517   6.693   6.003
 9039TIP3    H127058   3.527   6.640   5.924
 9039TIP3    H227059   3.460   6.641   6.060
 9040TIP3   OH227060   6.001   0.156   5.760
 9040TIP3    H127061   6.084   0.174   5.805
 9040TIP3    H227062   5.965   0.242   5.741
 9041TIP3   OH227063   2.959   0.820   0.984
 9041TIP3    H127064   3.040   0.808   0.934
 9041TIP3    H227065   2.957   0.914   1.002
 9042TIP3   OH227066   2.477   1.002   3.487
 9042TIP3    H127067   2.534   1.067   3.529
 9042TIP3    H227068   2.522   0.981   3.405
 9043TIP3   OH227069   2.652   1.414   1.366
 9043TIP3    H127070   2.728   1.367   1.331
 9043TIP3    H227071   2.577   1.373   1.322
 9044TIP3   OH227072   6.684   1.076   0.947
 9044TIP3    H127073   6.724   1.161   0.931
 9044TIP3    H227074   6.701   1.057   1.039
 9045TIP3   OH227075   6.543   7.209   4.494
 9045TIP3    H127076   6.469   7.269   4.505
 9045TIP3    H227077   6.609   7.261   4.448
 9046TIP3   OH227078   3.643   1.917   6.430
 9046TIP3    H127079   3.736   1.898   6.447
 9046TIP3    H227080   3.624   1.993   6.485
 9047TIP3   OH227081   3.108   4.612   6.121
 9047TIP3    H127082   3.180   4.612   6.184
 9047TIP3    H227083   3.029   4.617   6.175
 9048TIP3   OH227084   7.357   0.002   2.613
 9048TIP3    H127085   7.286  -0.060   2.594
 9048TIP3    H227086   7.314   0.072   2.662
 9049TIP3   OH227087   5.139   0.446   1.255
 9049TIP3    H127088   5.200   0.378   1.227
 9049TIP3    H227089   5.088   0.466   1.176
 9050TIP3   OH227090   6.148   6.434   2.813
 9050TIP3    H127091   6.163   6.516   2.859
 9050TIP3    H227092   6.135   6.459   2.722
 9051TIP3   OH227093   1.188   1.227   5.754
 9051TIP3    H127094   1.157   1.267   5.673
 9051TIP3    H227095   1.262   1.173   5.728
 9052TIP3   OH227096   1.059   0.136   6.820
 9052TIP3    H127097   0.995   0.161   6.753
 9052TIP3    H227098   1.026   0.175   6.900
 9053TIP3   OH227099   2.405   7.840   4.864
 9053TIP3    H127100   2.386   7.833   4.770
 9053TIP3    H227101   2.377   7.929   4.887
 9054TIP3   OH227102   6.703   0.353  -0.006
 9054TIP3    H127103   6.649   0.393   0.062
 9054TIP3    H227104   6.793   0.370   0.022
 9055TIP3   OH227105   3.937   1.019   0.744
 9055TIP3    H127106   3.876   0.945   0.745
 9055TIP3    H227107   4.023   0.979   0.749
 9056TIP3   OH227108   6.788   4.404   5.255
 9056TIP3    H127109   6.809   4.417   5.163
 9056TIP3    H227110   6.864   4.359   5.292
 9057TIP3   OH227111   6.352   2.644   1.292
 9057TIP3    H127112   6.282   2.678   1.346
 9057TIP3    H227113   6.400   2.583   1.349
 9058TIP3   OH227114   4.395   6.709   1.061
 9058TIP3    H127115   4.322   6.715   1.122
 9058TIP3    H227116   4.411   6.799   1.034
 9059TIP3   OH227117   2.612   6.514   2.689
 9059TIP3    H127118   2.659   6.597   2.699
 9059TIP3    H227119   2.681   6.449   2.675
 9060TIP3   OH227120   1.490   3.111   2.560
 9060TIP3    H127121   1.458   3.022   2.572
 9060TIP3    H227122   1.514   3.115   2.467
 9061TIP3   OH227123   7.341   4.734   5.001
 9061TIP3    H127124   7.422   4.694   5.031
 9061TIP3    H227125   7.308   4.782   5.077
 9062TIP3   OH227126   6.719   4.635   2.443
 9062TIP3    H127127   6.747   4.547   2.470
 9062TIP3    H227128   6.757   4.647   2.356
 9063TIP3   OH227129   5.600   4.123   2.571
 9063TIP3    H127130   5.655   4.053   2.536
 9063TIP3    H227131   5.523   4.078   2.606
 9064TIP3   OH227132   6.745   5.108   4.293
 9064TIP3    H127133   6.667   5.059   4.319
 9064TIP3    H227134   6.764   5.165   4.367
 9065TIP3   OH227135   4.639   0.498   6.801
 9065TIP3    H127136   4.589   0.417   6.811
 9065TIP3    H227137   4.610   0.553   6.873
 9066TIP3   OH227138   2.068   5.186   5.169
 9066TIP3    H127139   2.003   5.198   5.238
 9066TIP3    H227140   2.017   5.173   5.089
 9067TIP3   OH227141   5.515   7.278   2.189
 9067TIP3    H127142   5.610   7.268   2.197
 9067TIP3    H227143   5.495   7.250   2.100
 9068TIP3   OH227144   4.683   5.210   3.812
 9068TIP3    H127145   4.710   5.300   3.827
 9068TIP3    H227146   4.640   5.184   3.894
 9069TIP3   OH227147   0.312   4.617   0.945
 9069TIP3    H127148   0.273   4.592   1.028
 9069TIP3    H227149   0.305   4.713   0.943
 9070TIP3   OH227150   0.522   4.152   1.083
 9070TIP3    H127151   0.565   4.218   1.028
 9070TIP3    H227152   0.564   4.070   1.059
 9071TIP3   OH227153   4.988   0.521   2.175
 9071TIP3    H127154   5.018   0.589   2.114
 9071TIP3    H227155   4.920   0.475   2.126
 9072TIP3   OH227156   4.507   2.426   1.409
 9072TIP3    H127157   4.412   2.427   1.395
 9072TIP3    H227158   4.544   2.409   1.323
 9073TIP3   OH227159   0.561   3.386   4.823
 9073TIP3    H127160   0.478   3.340   4.835
 9073TIP3    H227161   0.622   3.343   4.883
 9074TIP3   OH227162   4.824   4.650   5.732
 9074TIP3    H127163   4.793   4.646   5.641
 9074TIP3    H227164   4.745   4.658   5.784
 9075TIP3   OH227165   2.140   6.084   2.052
 9075TIP3    H127166   2.102   6.002   2.084
 9075TIP3    H227167   2.218   6.056   2.003
 9076TIP3   OH227168   6.736   0.932   4.859
 9076TIP3    H127169   6.690   0.874   4.919
 9076TIP3    H227170   6.714   1.020   4.891
 9077TIP3   OH227171   0.030   3.042   5.908
 9077TIP3    H127172   0.093   2.980   5.869
 9077TIP3    H227173  -0.012   2.993   5.978
 9078TIP3   OH227174  -0.011   2.306   5.798
 9078TIP3    H127175   0.066   2.326   5.852
 9078TIP3    H227176   0.023   2.304   5.708
 9079TIP3   OH227177   0.657   2.993   1.086
 9079TIP3    H127178   0.665   2.998   0.991
 9079TIP3    H227179   0.654   2.899   1.105
 9080TIP3   OH227180   5.180   2.907   0.763
 9080TIP3    H127181   5.250   2.959   0.802
 9080TIP3    H227182   5.179   2.934   0.671
 9081TIP3   OH227183   4.924   3.289   3.263
 9081TIP3    H127184   4.831   3.281   3.281
 9081TIP3    H227185   4.946   3.208   3.216
 9082TIP3   OH227186   2.572   7.793   0.480
 9082TIP3    H127187   2.490   7.810   0.433
 9082TIP3    H227188   2.627   7.746   0.418
 9083TIP3   OH227189   7.960   3.720   4.675
 9083TIP3    H127190   8.022   3.683   4.612
 9083TIP3    H227191   8.015   3.770   4.735
 9084TIP3   OH227192   5.249   7.867   1.229
 9084TIP3    H127193   5.156   7.883   1.211
 9084TIP3    H227194   5.274   7.800   1.166
 9085TIP3   OH227195   3.082   0.546   4.870
 9085TIP3    H127196   3.076   0.638   4.896
 9085TIP3    H227197   3.176   0.527   4.869
 9086TIP3   OH227198   2.637   0.096   5.916
 9086TIP3    H127199   2.654   0.003   5.901
 9086TIP3    H227200   2.682   0.141   5.844
 9087TIP3   OH227201   7.437   7.363   6.521
 9087TIP3    H127202   7.399   7.402   6.443
 9087TIP3    H227203   7.373   7.380   6.590
 9088TIP3   OH227204   4.634   0.070   0.609
 9088TIP3    H127205   4.675   0.155   0.621
 9088TIP3    H227206   4.540   0.089   0.601
 9089TIP3   OH227207   4.723   6.427   6.304
 9089TIP3    H127208   4.758   6.341   6.328
 9089TIP3    H227209   4.693   6.464   6.387
 9090TIP3   OH227210   5.315   2.578   5.957
 9090TIP3    H127211   5.331   2.562   5.864
 9090TIP3    H227212   5.295   2.672   5.962
 9091TIP3   OH227213   1.678   6.165   2.253
 9091TIP3    H127214   1.726   6.088   2.222
 9091TIP3    H227215   1.598   6.130   2.292
 9092TIP3   OH227216   3.745   0.977   3.930
 9092TIP3    H127217   3.735   1.055   3.986
 9092TIP3    H227218   3.743   1.011   3.841
 9093TIP3   OH227219   1.539   6.167   4.981
 9093TIP3    H127220   1.519   6.095   4.921
 9093TIP3    H227221   1.479   6.155   5.054
 9094TIP3   OH227222   7.346   6.089   3.700
 9094TIP3    H127223   7.416   6.024   3.704
 9094TIP3    H227224   7.386   6.170   3.730
 9095TIP3   OH227225   2.502   6.760   3.762
 9095TIP3    H127226   2.466   6.837   3.805
 9095TIP3    H227227   2.582   6.740   3.810
 9096TIP3   OH227228   3.186   5.270   2.448
 9096TIP3    H127229   3.194   5.313   2.533
 9096TIP3    H227230   3.254   5.204   2.448
 9097TIP3   OH227231   6.992   5.806   3.745
 9097TIP3    H127232   6.901   5.831   3.762
 9097TIP3    H227233   7.008   5.731   3.801
 9098TIP3   OH227234   2.337   2.161   6.359
 9098TIP3    H127235   2.420   2.125   6.390
 9098TIP3    H227236   2.340   2.253   6.384
 9099TIP3   OH227237   4.490   6.417   2.415
 9099TIP3    H127238   4.433   6.470   2.470
 9099TIP3    H227239   4.522   6.476   2.347
 9100TIP3   OH227240   6.232   6.816   3.881
 9100TIP3    H127241   6.211   6.757   3.953
 9100TIP3    H227242   6.315   6.783   3.846
 9101TIP3   OH227243   1.110   4.592   6.169
 9101TIP3    H127244   1.055   4.655   6.122
 9101TIP3    H227245   1.090   4.508   6.129
 9102TIP3   OH227246   0.582   3.907   0.980
 9102TIP3    H127247   0.590   3.813   0.998
 9102TIP3    H227248   0.512   3.913   0.915
 9103TIP3   OH227249   4.659   1.170   0.330
 9103TIP3    H127250   4.751   1.164   0.357
 9103TIP3    H227251   4.623   1.241   0.383
 9104TIP3   OH227252   4.982   2.514   5.838
 9104TIP3    H127253   5.014   2.519   5.748
 9104TIP3    H227254   4.944   2.600   5.855
 9105TIP3   OH227255   3.569   1.626   5.806
 9105TIP3    H127256   3.656   1.665   5.803
 9105TIP3    H227257   3.552   1.614   5.900
 9106TIP3   OH227258   3.270   3.405   4.098
 9106TIP3    H127259   3.230   3.350   4.030
 9106TIP3    H227260   3.363   3.383   4.095
 9107TIP3   OH227261   0.666   4.354   3.709
 9107TIP3    H127262   0.593   4.396   3.664
 9107TIP3    H227263   0.662   4.388   3.798
 9108TIP3   OH227264   3.659   1.572   1.615
 9108TIP3    H127265   3.666   1.533   1.528
 9108TIP3    H227266   3.567   1.599   1.621
 9109TIP3   OH227267   1.521   1.535   3.785
 9109TIP3    H127268   1.572   1.515   3.863
 9109TIP3    H227269   1.456   1.464   3.780
 9110TIP3   OH227270   0.044   7.478   1.453
 9110TIP3    H127271  -0.018   7.443   1.518
 9110TIP3    H227272   0.007   7.563   1.430
 9111TIP3   OH227273   0.219   2.665   0.037
 9111TIP3    H127274   0.305   2.661   0.078
 9111TIP3    H227275   0.231   2.624  -0.048
 9112TIP3   OH227276   0.293   5.346   6.539
 9112TIP3    H127277   0.286   5.333   6.633
 9112TIP3    H227278   0.211   5.389   6.514
 9113TIP3   OH227279   1.449   6.896   0.078
 9113TIP3    H127280   1.357   6.908   0.099
 9113TIP3    H227281   1.459   6.933  -0.010
 9114TIP3   OH227282   3.766   4.405   5.291
 9114TIP3    H127283   3.816   4.349   5.351
 9114TIP3    H227284   3.681   4.416   5.334
 9115TIP3   OH227285   1.788   6.036   6.572
 9115TIP3    H127286   1.759   6.124   6.597
 9115TIP3    H227287   1.716   6.001   6.520
 9116TIP3   OH227288   4.102   2.019   1.646
 9116TIP3    H127289   4.109   2.114   1.637
 9116TIP3    H227290   4.008   2.001   1.635
 9117TIP3   OH227291   7.506   7.696   2.372
 9117TIP3    H127292   7.519   7.771   2.315
 9117TIP3    H227293   7.559   7.626   2.333
 9118TIP3   OH227294   5.586   3.896   6.848
 9118TIP3    H127295   5.537   3.901   6.765
 9118TIP3    H227296   5.555   3.971   6.898
 9119TIP3   OH227297   7.751   3.585   5.387
 9119TIP3    H127298   7.742   3.680   5.395
 9119TIP3    H227299   7.694   3.562   5.314
 9120TIP3   OH227300   4.402   4.085   4.528
 9120TIP3    H127301   4.322   4.062   4.480
 9120TIP3    H227302   4.399   4.181   4.533
 9121TIP3   OH227303   7.523   2.258   4.781
 9121TIP3    H127304   7.458   2.192   4.802
 9121TIP3    H227305   7.488   2.339   4.817
 9122TIP3   OH227306   1.292   0.605   6.479
 9122TIP3    H127307   1.340   0.524   6.461
 9122TIP3    H227308   1.249   0.590   6.563
 9123TIP3   OH227309   2.655   5.403   5.558
 9123TIP3    H127310   2.601   5.463   5.506
 9123TIP3    H227311   2.616   5.317   5.543
 9124TIP3   OH227312   5.862   1.122  -0.002
 9124TIP3    H127313   5.773   1.123  -0.038
 9124TIP3    H227314   5.868   1.203   0.048
 9125TIP3   OH227315   5.551   6.461   2.068
 9125TIP3    H127316   5.597   6.408   2.003
 9125TIP3    H227317   5.468   6.416   2.082
 9126TIP3   OH227318   8.200   5.137   5.757
 9126TIP3    H127319   8.285   5.142   5.800
 9126TIP3    H227320   8.218   5.087   5.677
 9127TIP3   OH227321   5.440   1.582   3.369
 9127TIP3    H127322   5.468   1.502   3.326
 9127TIP3    H227323   5.394   1.552   3.448
 9128TIP3   OH227324   2.661   0.900   0.984
 9128TIP3    H127325   2.574   0.931   0.959
 9128TIP3    H227326   2.666   0.915   1.078
 9129TIP3   OH227327   3.719   6.757   5.442
 9129TIP3    H127328   3.675   6.694   5.384
 9129TIP3    H227329   3.648   6.808   5.481
 9130TIP3   OH227330   5.491   2.046   3.934
 9130TIP3    H127331   5.538   2.024   4.014
 9130TIP3    H227332   5.542   2.003   3.865
 9131TIP3   OH227333   2.062   6.774   4.190
 9131TIP3    H127334   2.013   6.692   4.193
 9131TIP3    H227335   2.001   6.841   4.221
 9132TIP3   OH227336   0.361   3.400   1.844
 9132TIP3    H127337   0.305   3.466   1.885
 9132TIP3    H227338   0.448   3.416   1.881
 9133TIP3   OH227339   7.547   0.393   5.894
 9133TIP3    H127340   7.641   0.407   5.908
 9133TIP3    H227341   7.542   0.340   5.815
 9134TIP3   OH227342   7.797   6.072   5.516
 9134TIP3    H127343   7.844   5.988   5.512
 9134TIP3    H227344   7.864   6.138   5.504
 9135TIP3   OH227345   3.252   5.431   2.671
 9135TIP3    H127346   3.319   5.491   2.639
 9135TIP3    H227347   3.233   5.462   2.760
 9136TIP3   OH227348   7.699   1.917   0.942
 9136TIP3    H127349   7.752   1.917   0.863
 9136TIP3    H227350   7.651   1.999   0.939
 9137TIP3   OH227351   8.130   7.459   4.134
 9137TIP3    H127352   8.144   7.461   4.229
 9137TIP3    H227353   8.193   7.395   4.102
 9138TIP3   OH227354   8.173   7.197   3.960
 9138TIP3    H127355   8.118   7.119   3.959
 9138TIP3    H227356   8.138   7.253   3.890
 9139TIP3   OH227357   2.532   2.386   6.459
 9139TIP3    H127358   2.490   2.453   6.406
 9139TIP3    H227359   2.578   2.330   6.397
 9140TIP3   OH227360   3.610   3.360   6.230
 9140TIP3    H127361   3.649   3.300   6.293
 9140TIP3    H227362   3.677   3.371   6.162
 9141TIP3   OH227363   7.559   6.507   4.170
 9141TIP3    H127364   7.477   6.555   4.161
 9141TIP3    H227365   7.606   6.552   4.241
 9142TIP3   OH227366   2.409   4.382   6.486
 9142TIP3    H127367   2.339   4.383   6.552
 9142TIP3    H227368   2.417   4.473   6.459
 9143TIP3   OH227369   5.363   5.931   2.627
 9143TIP3    H127370   5.365   5.972   2.713
 9143TIP3    H227371   5.408   5.847   2.640
 9144TIP3   OH227372   3.392   0.508   5.808
 9144TIP3    H127373   3.391   0.514   5.903
 9144TIP3    H227374   3.430   0.422   5.789
 9145TIP3   OH227375   2.991   6.232   0.061
 9145TIP3    H127376   3.054   6.170   0.024
 9145TIP3    H227377   2.905   6.198   0.036
 9146TIP3   OH227378   4.919   6.265   2.113
 9146TIP3    H127379   4.867   6.197   2.154
 9146TIP3    H227380   4.986   6.287   2.178
 9147TIP3   OH227381   0.206   5.207   0.676
 9147TIP3    H127382   0.153   5.185   0.599
 9147TIP3    H227383   0.294   5.176   0.654
 9148TIP3   OH227384   0.209   6.112   2.360
 9148TIP3    H127385   0.283   6.065   2.398
 9148TIP3    H227386   0.135   6.052   2.369
 9149TIP3   OH227387   1.591   5.799   3.835
 9149TIP3    H127388   1.646   5.821   3.759
 9149TIP3    H227389   1.614   5.864   3.901
 9150TIP3   OH227390   0.137   0.790   4.003
 9150TIP3    H127391   0.091   0.866   3.970
 9150TIP3    H227392   0.093   0.715   3.962
 9151TIP3   OH227393   2.437   3.794   1.548
 9151TIP3    H127394   2.529   3.784   1.572
 9151TIP3    H227395   2.393   3.718   1.587
 9152TIP3   OH227396   0.667   2.725   0.310
 9152TIP3    H127397   0.630   2.745   0.395
 9152TIP3    H227398   0.755   2.763   0.313
 9153TIP3   OH227399   6.822   4.128   3.041
 9153TIP3    H127400   6.772   4.151   3.120
 9153TIP3    H227401   6.802   4.036   3.026
 9154TIP3   OH227402   4.085   0.170   3.369
 9154TIP3    H127403   4.169   0.176   3.414
 9154TIP3    H227404   4.020   0.175   3.440
 9155TIP3   OH227405   4.109   0.028   4.571
 9155TIP3    H127406   4.113  -0.015   4.656
 9155TIP3    H227407   4.031  -0.008   4.529
 9156TIP3   OH227408   6.946   0.587   1.735
 9156TIP3    H127409   6.850   0.585   1.730
 9156TIP3    H227410   6.968   0.680   1.723
 9157TIP3   OH227411   8.058   3.340   1.650
 9157TIP3    H127412   8.075   3.432   1.672
 9157TIP3    H227413   8.124   3.319   1.584
 9158TIP3   OH227414   7.005   2.677   4.303
 9158TIP3    H127415   6.984   2.770   4.315
 9158TIP3    H227416   6.922   2.637   4.277
 9159TIP3   OH227417   3.542   4.816   4.278
 9159TIP3    H127418   3.479   4.747   4.295
 9159TIP3    H227419   3.594   4.823   4.359
 9160TIP3   OH227420   1.410   6.392   6.147
 9160TIP3    H127421   1.406   6.444   6.066
 9160TIP3    H227422   1.346   6.433   6.205
 9161TIP3   OH227423   1.570   0.582   4.026
 9161TIP3    H127424   1.627   0.587   3.949
 9161TIP3    H227425   1.510   0.510   4.006
 9162TIP3   OH227426   6.865   0.795   1.065
 9162TIP3    H127427   6.835   0.803   0.975
 9162TIP3    H227428   6.905   0.879   1.086
 9163TIP3   OH227429   4.465   2.781   5.183
 9163TIP3    H127430   4.470   2.686   5.194
 9163TIP3    H227431   4.392   2.808   5.239
 9164TIP3   OH227432   6.300   3.121   0.387
 9164TIP3    H127433   6.306   3.188   0.320
 9164TIP3    H227434   6.313   3.038   0.340
 9165TIP3   OH227435   1.151   6.093   4.907
 9165TIP3    H127436   1.108   6.124   4.987
 9165TIP3    H227437   1.189   6.171   4.868
 9166TIP3   OH227438   1.406   1.467   6.130
 9166TIP3    H127439   1.347   1.408   6.178
 9166TIP3    H227440   1.375   1.554   6.154
 9167TIP3   OH227441   7.823   6.147   4.847
 9167TIP3    H127442   7.748   6.139   4.788
 9167TIP3    H227443   7.788   6.190   4.925
 9168TIP3   OH227444   7.264   4.228   1.983
 9168TIP3    H127445   7.323   4.279   1.927
 9168TIP3    H227446   7.322   4.169   2.032
 9169TIP3   OH227447   3.728   1.676   6.541
 9169TIP3    H127448   3.717   1.697   6.634
 9169TIP3    H227449   3.759   1.585   6.540
 9170TIP3   OH227450   2.448   0.611   4.090
 9170TIP3    H127451   2.529   0.561   4.103
 9170TIP3    H227452   2.442   0.624   3.996
 9171TIP3   OH227453   2.141   5.013   3.656
 9171TIP3    H127454   2.065   5.060   3.623
 9171TIP3    H227455   2.161   4.948   3.588
 9172TIP3   OH227456   4.205   1.149   6.114
 9172TIP3    H127457   4.211   1.056   6.137
 9172TIP3    H227458   4.126   1.180   6.158
 9173TIP3   OH227459   0.788   6.968   0.381
 9173TIP3    H127460   0.741   7.047   0.356
 9173TIP3    H227461   0.802   6.976   0.475
 9174TIP3   OH227462   5.389   3.426   5.868
 9174TIP3    H127463   5.351   3.497   5.921
 9174TIP3    H227464   5.316   3.394   5.816
 9175TIP3   OH227465   1.926   4.547   1.876
 9175TIP3    H127466   1.895   4.513   1.792
 9175TIP3    H227467   1.860   4.519   1.939
 9176TIP3   OH227468   1.115   5.226   3.847
 9176TIP3    H127469   1.178   5.297   3.855
 9176TIP3    H227470   1.167   5.150   3.821
 9177TIP3   OH227471   0.728   2.979   5.342
 9177TIP3    H127472   0.786   3.023   5.404
 9177TIP3    H227473   0.753   2.887   5.347
 9178TIP3   OH227474   7.450   4.155   5.174
 9178TIP3    H127475   7.435   4.076   5.226
 9178TIP3    H227476   7.370   4.166   5.123
 9179TIP3   OH227477   5.482   0.222   5.749
 9179TIP3    H127478   5.390   0.249   5.760
 9179TIP3    H227479   5.477   0.129   5.728
 9180TIP3   OH227480   5.492   0.645   3.801
 9180TIP3    H127481   5.546   0.569   3.781
 9180TIP3    H227482   5.524   0.675   3.886
 9181TIP3   OH227483   7.458   3.932   3.324
 9181TIP3    H127484   7.404   3.858   3.298
 9181TIP3    H227485   7.511   3.899   3.397
 9182TIP3   OH227486   7.603   2.884   5.862
 9182TIP3    H127487   7.542   2.934   5.916
 9182TIP3    H227488   7.589   2.916   5.773
 9183TIP3   OH227489   7.011   2.177   5.390
 9183TIP3    H127490   6.935   2.230   5.368
 9183TIP3    H227491   6.984   2.126   5.466
 9184TIP3   OH227492   0.357   3.626   2.855
 9184TIP3    H127493   0.274   3.615   2.901
 9184TIP3    H227494   0.349   3.709   2.809
 9185TIP3   OH227495   7.862   6.312   2.578
 9185TIP3    H127496   7.828   6.367   2.507
 9185TIP3    H227497   7.789   6.255   2.601
 9186TIP3   OH227498   7.118   0.480   3.763
 9186TIP3    H127499   7.104   0.464   3.670
 9186TIP3    H227500   7.126   0.393   3.802
 9187TIP3   OH227501   8.285   0.510   1.046
 9187TIP3    H127502   8.276   0.505   0.951
 9187TIP3    H227503   8.223   0.444   1.079
 9188TIP3   OH227504   7.709   1.048   1.294
 9188TIP3    H127505   7.667   1.097   1.366
 9188TIP3    H227506   7.671   0.961   1.299
 9189TIP3   OH227507   3.950   6.541   2.417
 9189TIP3    H127508   3.999   6.624   2.419
 9189TIP3    H227509   4.018   6.474   2.414
 9190TIP3   OH227510   3.006   2.853   3.361
 9190TIP3    H127511   3.013   2.945   3.337
 9190TIP3    H227512   3.092   2.832   3.399
 9191TIP3   OH227513   6.573   0.996   6.312
 9191TIP3    H127514   6.633   1.023   6.243
 9191TIP3    H227515   6.487   1.021   6.279
 9192TIP3   OH227516   6.571   1.140   5.502
 9192TIP3    H127517   6.610   1.054   5.492
 9192TIP3    H227518   6.617   1.179   5.576
 9193TIP3   OH227519   6.078   1.361   2.333
 9193TIP3    H127520   6.087   1.388   2.242
 9193TIP3    H227521   6.131   1.281   2.340
 9194TIP3   OH227522   5.905   2.032   3.846
 9194TIP3    H127523   5.929   2.051   3.937
 9194TIP3    H227524   5.988   2.006   3.805
 9195TIP3   OH227525   0.599   3.069   6.422
 9195TIP3    H127526   0.608   2.974   6.426
 9195TIP3    H227527   0.519   3.089   6.469
 9196TIP3   OH227528   5.570   6.741   2.028
 9196TIP3    H127529   5.536   6.759   2.116
 9196TIP3    H227530   5.569   6.646   2.021
 9197TIP3   OH227531   4.948   7.797   1.740
 9197TIP3    H127532   4.917   7.715   1.700
 9197TIP3    H227533   5.000   7.769   1.815
 9198TIP3   OH227534   6.010   4.352   4.717
 9198TIP3    H127535   6.032   4.259   4.711
 9198TIP3    H227536   5.947   4.358   4.789
 9199TIP3   OH227537   3.185   0.232   1.890
 9199TIP3    H127538   3.175   0.140   1.864
 9199TIP3    H227539   3.117   0.246   1.956
 9200TIP3   OH227540   2.072   3.469   5.257
 9200TIP3    H127541   2.023   3.387   5.250
 9200TIP3    H227542   2.013   3.528   5.305
 9201TIP3   OH227543   7.553   7.525   1.648
 9201TIP3    H127544   7.532   7.612   1.614
 9201TIP3    H227545   7.553   7.535   1.743
 9202TIP3   OH227546   5.233   2.910   2.770
 9202TIP3    H127547   5.248   2.969   2.696
 9202TIP3    H227548   5.276   2.952   2.844
 9203TIP3   OH227549   6.822   3.457   0.293
 9203TIP3    H127550   6.764   3.404   0.348
 9203TIP3    H227551   6.773   3.538   0.277
 9204TIP3   OH227552   1.227   0.319   2.225
 9204TIP3    H127553   1.155   0.368   2.186
 9204TIP3    H227554   1.279   0.290   2.150
 9205TIP3   OH227555   7.780   4.523   1.056
 9205TIP3    H127556   7.765   4.485   0.969
 9205TIP3    H227557   7.858   4.578   1.045
 9206TIP3   OH227558   7.983   4.017   5.254
 9206TIP3    H127559   7.910   4.079   5.257
 9206TIP3    H227560   7.977   3.978   5.167
 9207TIP3   OH227561   3.418   6.945   5.354
 9207TIP3    H127562   3.337   6.969   5.399
 9207TIP3    H227563   3.480   7.014   5.376
 9208TIP3   OH227564   3.837   1.970   5.380
 9208TIP3    H127565   3.879   2.002   5.300
 9208TIP3    H227566   3.905   1.919   5.423
 9209TIP3   OH227567   1.614   4.632   3.431
 9209TIP3    H127568   1.601   4.706   3.491
 9209TIP3    H227569   1.572   4.558   3.474
 9210TIP3   OH227570   6.331   1.167   5.095
 9210TIP3    H127571   6.286   1.095   5.050
 9210TIP3    H227572   6.373   1.125   5.170
 9211TIP3   OH227573   7.770   6.800   3.096
 9211TIP3    H127574   7.707   6.729   3.081
 9211TIP3    H227575   7.718   6.870   3.135
 9212TIP3   OH227576   8.318   7.188   3.582
 9212TIP3    H127577   8.284   7.124   3.519
 9212TIP3    H227578   8.272   7.269   3.561
 9213TIP3   OH227579   3.901   6.962   4.380
 9213TIP3    H127580   3.825   6.960   4.322
 9213TIP3    H227581   3.864   6.966   4.468
 9214TIP3   OH227582   6.084   3.313   1.483
 9214TIP3    H127583   6.063   3.221   1.498
 9214TIP3    H227584   6.072   3.354   1.569
 9215TIP3   OH227585   1.570   0.009   4.573
 9215TIP3    H127586   1.511   0.063   4.625
 9215TIP3    H227587   1.648   0.063   4.560
 9216TIP3   OH227588   2.843   4.179   0.141
 9216TIP3    H127589   2.758   4.222   0.147
 9216TIP3    H227590   2.850   4.154   0.049
 9217TIP3   OH227591   8.065   3.086   2.602
 9217TIP3    H127592   8.046   3.025   2.673
 9217TIP3    H227593   8.026   3.045   2.524
 9218TIP3   OH227594   7.631   3.446   3.556
 9218TIP3    H127595   7.698   3.388   3.592
 9218TIP3    H227596   7.597   3.494   3.631
 9219TIP3   OH227597   5.303   2.326   3.789
 9219TIP3    H127598   5.358   2.261   3.746
 9219TIP3    H227599   5.214   2.299   3.768
 9220TIP3   OH227600   0.798   7.443   1.827
 9220TIP3    H127601   0.824   7.357   1.793
 9220TIP3    H227602   0.866   7.466   1.890
 9221TIP3   OH227603   2.940   1.190   6.475
 9221TIP3    H127604   2.880   1.168   6.403
 9221TIP3    H227605   2.937   1.285   6.480
 9222TIP3   OH227606   7.304   3.921   3.994
 9222TIP3    H127607   7.330   3.994   4.051
 9222TIP3    H227608   7.321   3.953   3.905
 9223TIP3   OH227609   3.969   6.978   6.293
 9223TIP3    H127610   3.981   6.980   6.388
 9223TIP3    H227611   4.029   6.909   6.263
 9224TIP3   OH227612   5.312   1.555   6.715
 9224TIP3    H127613   5.240   1.528   6.772
 9224TIP3    H227614   5.310   1.651   6.717
 9225TIP3   OH227615   3.278   4.301   2.563
 9225TIP3    H127616   3.325   4.265   2.639
 9225TIP3    H227617   3.334   4.372   2.532
 9226TIP3   OH227618   6.995   1.522   2.589
 9226TIP3    H127619   6.932   1.525   2.661
 9226TIP3    H227620   7.075   1.489   2.630
 9227TIP3   OH227621   1.567   6.723   2.270
 9227TIP3    H127622   1.564   6.768   2.355
 9227TIP3    H227623   1.611   6.786   2.212
 9228TIP3   OH227624   2.538   5.216   0.666
 9228TIP3    H127625   2.574   5.234   0.579
 9228TIP3    H227626   2.540   5.120   0.673
 9229TIP3   OH227627   2.209   6.102   5.161
 9229TIP3    H127628   2.137   6.158   5.189
 9229TIP3    H227629   2.184   6.072   5.074
 9230TIP3   OH227630   4.319   7.089   3.577
 9230TIP3    H127631   4.338   7.125   3.663
 9230TIP3    H227632   4.282   7.003   3.594
 9231TIP3   OH227633   7.465   4.534   2.982
 9231TIP3    H127634   7.474   4.553   3.075
 9231TIP3    H227635   7.477   4.618   2.938
 9232TIP3   OH227636   7.898   1.896   5.077
 9232TIP3    H127637   7.949   1.972   5.103
 9232TIP3    H227638   7.862   1.862   5.159
 9233TIP3   OH227639   2.426   4.332   3.057
 9233TIP3    H127640   2.379   4.409   3.089
 9233TIP3    H227641   2.363   4.286   3.002
 9234TIP3   OH227642   7.576   5.152   3.851
 9234TIP3    H127643   7.601   5.081   3.910
 9234TIP3    H227644   7.590   5.117   3.763
 9235TIP3   OH227645   1.007   5.200   2.159
 9235TIP3    H127646   0.983   5.273   2.216
 9235TIP3    H227647   0.984   5.122   2.209
 9236TIP3   OH227648   2.770   0.478   5.168
 9236TIP3    H127649   2.730   0.403   5.123
 9236TIP3    H227650   2.704   0.505   5.231
 9237TIP3   OH227651   8.136   4.101   1.644
 9237TIP3    H127652   8.214   4.157   1.640
 9237TIP3    H227653   8.082   4.141   1.712
 9238TIP3   OH227654   7.257   6.230   5.546
 9238TIP3    H127655   7.195   6.176   5.496
 9238TIP3    H227656   7.231   6.217   5.637
 9239TIP3   OH227657  -0.024   6.249   1.506
 9239TIP3    H127658  -0.037   6.344   1.507
 9239TIP3    H227659   0.062   6.235   1.546
 9240TIP3   OH227660   6.289   4.025   5.451
 9240TIP3    H127661   6.272   3.974   5.531
 9240TIP3    H227662   6.202   4.054   5.423
 9241TIP3   OH227663   3.800   4.348   0.080
 9241TIP3    H127664   3.707   4.371   0.077
 9241TIP3    H227665   3.832   4.367  -0.008
 9242TIP3   OH227666   7.386   1.706   6.602
 9242TIP3    H127667   7.299   1.722   6.638
 9242TIP3    H227668   7.422   1.794   6.588
 9243TIP3   OH227669   0.184   6.095   3.878
 9243TIP3    H127670   0.198   6.090   3.972
 9243TIP3    H227671   0.105   6.042   3.863
 9244TIP3   OH227672   3.952   0.552   2.741
 9244TIP3    H127673   3.890   0.567   2.670
 9244TIP3    H227674   4.010   0.628   2.739
 9245TIP3   OH227675   2.003   0.282   4.389
 9245TIP3    H127676   2.015   0.232   4.309
 9245TIP3    H227677   2.012   0.217   4.459
 9246TIP3   OH227678   2.767   0.260   6.104
 9246TIP3    H127679   2.860   0.258   6.078
 9246TIP3    H227680   2.728   0.185   6.058
 9247TIP3   OH227681   1.692   0.459   5.185
 9247TIP3    H127682   1.762   0.401   5.155
 9247TIP3    H227683   1.720   0.547   5.159
 9248TIP3   OH227684   6.018   0.065   0.238
 9248TIP3    H127685   5.959   0.045   0.311
 9248TIP3    H227686   6.060  -0.018   0.217
 9249TIP3   OH227687   0.022   6.362   0.861
 9249TIP3    H127688  -0.073   6.366   0.869
 9249TIP3    H227689   0.053   6.440   0.908
 9250TIP3   OH227690   3.889   2.714   6.721
 9250TIP3    H127691   3.826   2.728   6.650
 9250TIP3    H227692   3.842   2.742   6.799
 9251TIP3   OH227693   1.147   2.257   0.198
 9251TIP3    H127694   1.104   2.190   0.251
 9251TIP3    H227695   1.091   2.334   0.207
 9252TIP3   OH227696   5.444   5.016   4.506
 9252TIP3    H127697   5.388   4.939   4.517
 9252TIP3    H227698   5.507   4.991   4.439
 9253TIP3   OH227699   0.660   5.848   3.020
 9253TIP3    H127700   0.569   5.836   3.049
 9253TIP3    H227701   0.711   5.792   3.078
 9254TIP3   OH227702   7.530   1.154   2.785
 9254TIP3    H127703   7.470   1.173   2.858
 9254TIP3    H227704   7.524   1.232   2.729
 9255TIP3   OH227705   2.135   1.929   4.057
 9255TIP3    H127706   2.125   1.836   4.034
 9255TIP3    H227707   2.048   1.966   4.043
 9256TIP3   OH227708   1.665   2.508   4.955
 9256TIP3    H127709   1.711   2.562   4.891
 9256TIP3    H227710   1.635   2.432   4.904
 9257TIP3   OH227711   3.838   6.558   2.149
 9257TIP3    H127712   3.874   6.551   2.238
 9257TIP3    H227713   3.837   6.468   2.117
 9258TIP3   OH227714   8.303   3.148   5.403
 9258TIP3    H127715   8.345   3.183   5.481
 9258TIP3    H227716   8.274   3.226   5.355
 9259TIP3   OH227717   5.630   7.760   5.083
 9259TIP3    H127718   5.678   7.696   5.031
 9259TIP3    H227719   5.638   7.842   5.035
 9260TIP3   OH227720   0.641   6.858   6.293
 9260TIP3    H127721   0.709   6.791   6.303
 9260TIP3    H227722   0.566   6.811   6.256
 9261TIP3   OH227723   2.852   0.829   2.590
 9261TIP3    H127724   2.927   0.870   2.547
 9261TIP3    H227725   2.792   0.808   2.519
 9262TIP3   OH227726   4.452   1.305   2.258
 9262TIP3    H127727   4.398   1.324   2.182
 9262TIP3    H227728   4.492   1.221   2.239
 9263TIP3   OH227729   2.469   4.886   0.331
 9263TIP3    H127730   2.530   4.814   0.347
 9263TIP3    H227731   2.409   4.884   0.406
 9264TIP3   OH227732   4.711   4.484   6.398
 9264TIP3    H127733   4.753   4.569   6.411
 9264TIP3    H227734   4.675   4.488   6.310
 9265TIP3   OH227735   1.968   5.710   3.717
 9265TIP3    H127736   2.049   5.729   3.765
 9265TIP3    H227737   1.915   5.789   3.727
 9266TIP3   OH227738   6.674   3.003   2.147
 9266TIP3    H127739   6.757   3.043   2.121
 9266TIP3    H227740   6.630   2.981   2.065
 9267TIP3   OH227741   6.488   2.398   4.093
 9267TIP3    H127742   6.437   2.413   4.013
 9267TIP3    H227743   6.575   2.432   4.073
 9268TIP3   OH227744   7.416   5.351   0.982
 9268TIP3    H127745   7.455   5.426   1.026
 9268TIP3    H227746   7.341   5.326   1.037
 9269TIP3   OH227747   5.779   0.247   3.638
 9269TIP3    H127748   5.759   0.155   3.653
 9269TIP3    H227749   5.875   0.250   3.639
 9270TIP3   OH227750   8.109   4.441   5.828
 9270TIP3    H127751   8.201   4.425   5.850
 9270TIP3    H227752   8.087   4.373   5.765
 9271TIP3   OH227753   5.911   5.733   0.449
 9271TIP3    H127754   5.999   5.765   0.471
 9271TIP3    H227755   5.858   5.758   0.524
 9272TIP3   OH227756   5.444   0.301   3.375
 9272TIP3    H127757   5.506   0.232   3.397
 9272TIP3    H227758   5.384   0.261   3.312
 9273TIP3   OH227759   2.959   1.299   5.815
 9273TIP3    H127760   2.900   1.363   5.854
 9273TIP3    H227761   2.934   1.216   5.855
 9274TIP3   OH227762   8.093   4.680   0.095
 9274TIP3    H127763   8.169   4.653   0.147
 9274TIP3    H227764   8.018   4.659   0.149
 9275TIP3   OH227765   2.641   6.527   6.523
 9275TIP3    H127766   2.594   6.565   6.597
 9275TIP3    H227767   2.692   6.600   6.486
 9276TIP3   OH227768   3.045   4.443   1.386
 9276TIP3    H127769   3.115   4.428   1.448
 9276TIP3    H227770   3.080   4.414   1.302
 9277TIP3   OH227771   1.010   4.245   3.059
 9277TIP3    H127772   0.995   4.150   3.065
 9277TIP3    H227773   1.090   4.259   3.108
 9278TIP3   OH227774   0.116   7.121   2.117
 9278TIP3    H127775   0.122   7.166   2.202
 9278TIP3    H227776   0.033   7.150   2.080
 9279TIP3   OH227777   3.310   5.052   4.093
 9279TIP3    H127778   3.237   5.030   4.152
 9279TIP3    H227779   3.377   5.087   4.151
 9280TIP3   OH227780   2.731   7.783   3.675
 9280TIP3    H127781   2.810   7.832   3.700
 9280TIP3    H227782   2.689   7.838   3.609
 9281TIP3   OH227783   5.482   6.861   0.183
 9281TIP3    H127784   5.575   6.862   0.158
 9281TIP3    H227785   5.473   6.787   0.242
 9282TIP3   OH227786   6.201   3.907   5.672
 9282TIP3    H127787   6.117   3.865   5.692
 9282TIP3    H227788   6.194   3.994   5.712
 9283TIP3   OH227789   7.005   5.091   6.076
 9283TIP3    H127790   7.076   5.154   6.089
 9283TIP3    H227791   7.024   5.020   6.138
 9284TIP3   OH227792   4.215   7.545   1.766
 9284TIP3    H127793   4.196   7.578   1.853
 9284TIP3    H227794   4.235   7.623   1.714
 9285TIP3   OH227795   3.274   4.158   4.971
 9285TIP3    H127796   3.329   4.139   5.047
 9285TIP3    H227797   3.213   4.085   4.966
 9286TIP3   OH227798   6.246   0.749   1.516
 9286TIP3    H127799   6.155   0.748   1.486
 9286TIP3    H227800   6.240   0.751   1.611
 9287TIP3   OH227801   2.747   6.739   1.970
 9287TIP3    H127802   2.659   6.716   1.940
 9287TIP3    H227803   2.774   6.663   2.022
 9288TIP3   OH227804   6.630   0.420   2.903
 9288TIP3    H127805   6.661   0.330   2.893
 9288TIP3    H227806   6.586   0.439   2.820
 9289TIP3   OH227807   0.035   3.698   2.173
 9289TIP3    H127808   0.116   3.684   2.223
 9289TIP3    H227809  -0.023   3.627   2.201
 9290TIP3   OH227810   6.192   1.679   5.156
 9290TIP3    H127811   6.281   1.711   5.142
 9290TIP3    H227812   6.203   1.587   5.180
 9291TIP3   OH227813   0.760   1.191   4.742
 9291TIP3    H127814   0.675   1.231   4.725
 9291TIP3    H227815   0.820   1.265   4.753
 9292TIP3   OH227816   4.613   0.761   0.823
 9292TIP3    H127817   4.635   0.854   0.823
 9292TIP3    H227818   4.517   0.759   0.822
 9293TIP3   OH227819   8.030   6.649   3.548
 9293TIP3    H127820   8.028   6.593   3.471
 9293TIP3    H227821   8.072   6.595   3.615
 9294TIP3   OH227822   7.348   6.224   2.848
 9294TIP3    H127823   7.363   6.147   2.794
 9294TIP3    H227824   7.294   6.282   2.794
 9295TIP3   OH227825   4.630   1.960   2.679
 9295TIP3    H127826   4.651   1.870   2.705
 9295TIP3    H227827   4.591   1.999   2.758
 9296TIP3   OH227828   6.372   6.880   1.448
 9296TIP3    H127829   6.344   6.834   1.368
 9296TIP3    H227830   6.445   6.827   1.481
 9297TIP3   OH227831   3.463   7.682   4.340
 9297TIP3    H127832   3.377   7.645   4.323
 9297TIP3    H227833   3.446   7.763   4.388
 9298TIP3   OH227834   6.955   6.949   3.227
 9298TIP3    H127835   6.953   7.017   3.294
 9298TIP3    H227836   6.953   6.867   3.275
 9299TIP3   OH227837   2.139   2.606   6.224
 9299TIP3    H127838   2.100   2.532   6.270
 9299TIP3    H227839   2.099   2.684   6.264
 9300TIP3   OH227840   4.445   1.647   1.367
 9300TIP3    H127841   4.362   1.687   1.395
 9300TIP3    H227842   4.498   1.644   1.447
 9301TIP3   OH227843   3.967   6.921   2.252
 9301TIP3    H127844   4.045   6.874   2.221
 9301TIP3    H227845   3.982   6.932   2.346
 9302TIP3   OH227846   5.390   4.082   2.925
 9302TIP3    H127847   5.313   4.032   2.951
 9302TIP3    H227848   5.463   4.039   2.967
 9303TIP3   OH227849   0.876   3.829   6.754
 9303TIP3    H127850   0.909   3.919   6.758
 9303TIP3    H227851   0.799   3.834   6.697
 9304TIP3   OH227852   1.139   6.477   5.543
 9304TIP3    H127853   1.132   6.419   5.619
 9304TIP3    H227854   1.218   6.529   5.559
 9305TIP3   OH227855   5.391   1.951   0.569
 9305TIP3    H127856   5.337   2.022   0.606
 9305TIP3    H227857   5.426   1.988   0.488
 9306TIP3   OH227858   8.169   7.371   6.013
 9306TIP3    H127859   8.252   7.355   6.058
 9306TIP3    H227860   8.111   7.406   6.080
 9307TIP3   OH227861   6.763   1.208   1.279
 9307TIP3    H127862   6.712   1.263   1.219
 9307TIP3    H227863   6.805   1.271   1.338
 9308TIP3   OH227864   0.146   4.012   6.693
 9308TIP3    H127865   0.159   3.917   6.696
 9308TIP3    H227866   0.123   4.035   6.783
 9309TIP3   OH227867   4.836   3.842   2.874
 9309TIP3    H127868   4.765   3.796   2.829
 9309TIP3    H227869   4.833   3.931   2.839
 9310TIP3   OH227870   3.525   5.345   3.688
 9310TIP3    H127871   3.476   5.424   3.712
 9310TIP3    H227872   3.485   5.275   3.739
 9311TIP3   OH227873   6.372   0.592   5.121
 9311TIP3    H127874   6.362   0.536   5.198
 9311TIP3    H227875   6.432   0.544   5.064
 9312TIP3   OH227876   8.264   2.737   0.405
 9312TIP3    H127877   8.257   2.645   0.380
 9312TIP3    H227878   8.345   2.742   0.456
 9313TIP3   OH227879   1.750   7.387   5.565
 9313TIP3    H127880   1.842   7.415   5.567
 9313TIP3    H227881   1.743   7.335   5.485
 9314TIP3   OH227882   3.986   0.452   5.305
 9314TIP3    H127883   3.930   0.381   5.338
 9314TIP3    H227884   4.069   0.440   5.351
 9315TIP3   OH227885   4.702   6.151   6.437
 9315TIP3    H127886   4.746   6.067   6.423
 9315TIP3    H227887   4.649   6.164   6.358
 9316TIP3   OH227888   1.852   5.894   4.018
 9316TIP3    H127889   1.878   5.920   4.107
 9316TIP3    H227890   1.791   5.822   4.031
 9317TIP3   OH227891   4.648   1.345   1.924
 9317TIP3    H127892   4.690   1.286   1.986
 9317TIP3    H227893   4.698   1.335   1.843
 9318TIP3   OH227894   7.436   3.109   5.897
 9318TIP3    H127895   7.375   3.105   5.823
 9318TIP3    H227896   7.503   3.172   5.869
 9319TIP3   OH227897   8.055   7.502   1.315
 9319TIP3    H127898   8.019   7.422   1.356
 9319TIP3    H227899   8.000   7.572   1.350
 9320TIP3   OH227900   7.329   1.872   4.419
 9320TIP3    H127901   7.277   1.797   4.389
 9320TIP3    H227902   7.327   1.933   4.346
 9321TIP3   OH227903   4.008   0.748   0.138
 9321TIP3    H127904   4.077   0.773   0.199
 9321TIP3    H227905   4.048   0.758   0.052
 9322TIP3   OH227906   0.410   2.729   5.439
 9322TIP3    H127907   0.463   2.661   5.397
 9322TIP3    H227908   0.382   2.785   5.366
 9323TIP3   OH227909   3.517   7.153   6.844
 9323TIP3    H127910   3.612   7.138   6.847
 9323TIP3    H227911   3.497   7.158   6.750
 9324TIP3   OH227912   6.255   2.751   5.575
 9324TIP3    H127913   6.343   2.727   5.545
 9324TIP3    H227914   6.216   2.798   5.502
 9325TIP3   OH227915   4.271   4.398   0.554
 9325TIP3    H127916   4.312   4.454   0.488
 9325TIP3    H227917   4.187   4.441   0.573
 9326TIP3   OH227918   2.299   1.469   0.330
 9326TIP3    H127919   2.262   1.418   0.402
 9326TIP3    H227920   2.228   1.526   0.301
 9327TIP3   OH227921   7.323   1.368   4.794
 9327TIP3    H127922   7.247   1.316   4.766
 9327TIP3    H227923   7.290   1.458   4.795
 9328TIP3   OH227924   0.073   4.304   1.152
 9328TIP3    H127925  -0.017   4.335   1.139
 9328TIP3    H227926   0.120   4.381   1.183
 9329TIP3   OH227927   7.736   5.592   4.341
 9329TIP3    H127928   7.743   5.651   4.265
 9329TIP3    H227929   7.827   5.566   4.359
 9330TIP3   OH227930   7.205   7.412   5.283
 9330TIP3    H127931   7.258   7.365   5.347
 9330TIP3    H227932   7.269   7.453   5.225
 9331TIP3   OH227933   5.762   1.251   6.604
 9331TIP3    H127934   5.840   1.209   6.568
 9331TIP3    H227935   5.693   1.234   6.539
 9332TIP3   OH227936   4.939   4.447   0.134
 9332TIP3    H127937   4.964   4.483   0.049
 9332TIP3    H227938   4.854   4.487   0.152
 9333TIP3   OH227939   0.937   6.371   4.932
 9333TIP3    H127940   1.008   6.428   4.961
 9333TIP3    H227941   0.865   6.389   4.992
 9334TIP3   OH227942   7.544   6.761   2.462
 9334TIP3    H127943   7.505   6.717   2.537
 9334TIP3    H227944   7.470   6.795   2.412
 9335TIP3   OH227945   8.197   4.959   3.375
 9335TIP3    H127946   8.209   4.916   3.459
 9335TIP3    H227947   8.162   5.045   3.396
 9336TIP3   OH227948   4.286   6.544   1.983
 9336TIP3    H127949   4.264   6.534   2.075
 9336TIP3    H227950   4.210   6.507   1.937
 9337TIP3   OH227951   1.934   0.984   0.596
 9337TIP3    H127952   1.907   1.030   0.517
 9337TIP3    H227953   2.008   1.035   0.629
 9338TIP3   OH227954   3.178   0.432   1.720
 9338TIP3    H127955   3.175   0.358   1.781
 9338TIP3    H227956   3.108   0.490   1.749
 9339TIP3   OH227957   1.001   3.707   5.167
 9339TIP3    H127958   1.067   3.758   5.119
 9339TIP3    H227959   1.008   3.619   5.130
 9340TIP3   OH227960   0.637   5.028   4.306
 9340TIP3    H127961   0.562   5.070   4.347
 9340TIP3    H227962   0.699   5.099   4.291
 9341TIP3   OH227963   1.532   6.654   1.097
 9341TIP3    H127964   1.498   6.617   1.016
 9341TIP3    H227965   1.618   6.690   1.073
 9342TIP3   OH227966   1.725   6.620   6.251
 9342TIP3    H127967   1.759   6.692   6.197
 9342TIP3    H227968   1.701   6.661   6.333
 9343TIP3   OH227969   4.026   7.809   3.144
 9343TIP3    H127970   4.013   7.774   3.232
 9343TIP3    H227971   4.070   7.738   3.096
 9344TIP3   OH227972   7.297   6.697   0.221
 9344TIP3    H127973   7.343   6.742   0.150
 9344TIP3    H227974   7.205   6.700   0.195
 9345TIP3   OH227975   5.357   6.759   4.894
 9345TIP3    H127976   5.323   6.749   4.805
 9345TIP3    H227977   5.448   6.729   4.888
 9346TIP3   OH227978   2.696   2.135   0.319
 9346TIP3    H127979   2.639   2.152   0.244
 9346TIP3    H227980   2.685   2.041   0.336
 9347TIP3   OH227981   6.303   7.657   3.600
 9347TIP3    H127982   6.364   7.730   3.592
 9347TIP3    H227983   6.240   7.671   3.529
 9348TIP3   OH227984   5.060   6.368   5.097
 9348TIP3    H127985   5.077   6.283   5.056
 9348TIP3    H227986   5.143   6.415   5.087
 9349TIP3   OH227987   2.220   3.329   2.773
 9349TIP3    H127988   2.155   3.312   2.841
 9349TIP3    H227989   2.240   3.422   2.780
 9350TIP3   OH227990   7.072   2.867   1.422
 9350TIP3    H127991   7.160   2.845   1.452
 9350TIP3    H227992   7.076   2.960   1.401
 9351TIP3   OH227993   5.921   1.971   5.063
 9351TIP3    H127994   5.946   1.899   5.006
 9351TIP3    H227995   5.866   1.931   5.130
 9352TIP3   OH227996   0.713   1.585   4.406
 9352TIP3    H127997   0.777   1.603   4.476
 9352TIP3    H227998   0.741   1.641   4.334
 9353TIP3   OH227999   8.121   6.404   2.943
 9353TIP3    H128000   8.111   6.311   2.960
 9353TIP3    H228001   8.160   6.408   2.856
 9354TIP3   OH228002   7.470   0.102   3.783
 9354TIP3    H128003   7.515   0.079   3.864
 9354TIP3    H228004   7.382   0.125   3.811
 9355TIP3   OH228005   0.483   1.870   1.355
 9355TIP3    H128006   0.559   1.813   1.339
 9355TIP3    H228007   0.418   1.811   1.394
 9356TIP3   OH228008   0.401   4.855   5.660
 9356TIP3    H128009   0.428   4.767   5.686
 9356TIP3    H228010   0.305   4.852   5.662
 9357TIP3   OH228011   0.714   5.662   3.197
 9357TIP3    H128012   0.689   5.632   3.285
 9357TIP3    H228013   0.739   5.582   3.151
 9358TIP3   OH228014   7.462   0.855   5.133
 9358TIP3    H128015   7.399   0.817   5.072
 9358TIP3    H228016   7.451   0.950   5.122
 9359TIP3   OH228017   7.409   0.166   4.655
 9359TIP3    H128018   7.490   0.169   4.706
 9359TIP3    H228019   7.427   0.102   4.586
 9360TIP3   OH228020   4.411   6.141   4.128
 9360TIP3    H128021   4.502   6.121   4.105
 9360TIP3    H228022   4.369   6.161   4.044
 9361TIP3   OH228023   2.037   6.611   0.788
 9361TIP3    H128024   1.952   6.605   0.832
 9361TIP3    H228025   2.076   6.524   0.800
 9362TIP3   OH228026   3.401   2.469   2.315
 9362TIP3    H128027   3.390   2.527   2.391
 9362TIP3    H228028   3.312   2.443   2.293
 9363TIP3   OH228029   3.906   4.485   0.296
 9363TIP3    H128030   3.914   4.543   0.221
 9363TIP3    H228031   3.878   4.401   0.259
 9364TIP3   OH228032   5.207   3.901   0.158
 9364TIP3    H128033   5.179   3.968   0.096
 9364TIP3    H228034   5.129   3.846   0.170
 9365TIP3   OH228035   5.045   0.039   2.298
 9365TIP3    H128036   5.007   0.099   2.234
 9365TIP3    H228037   5.071  -0.038   2.246
 9366TIP3   OH228038   1.395   0.770   2.078
 9366TIP3    H128039   1.423   0.702   2.139
 9366TIP3    H228040   1.364   0.841   2.134
 9367TIP3   OH228041   5.320   4.796   2.186
 9367TIP3    H128042   5.367   4.870   2.149
 9367TIP3    H228043   5.343   4.722   2.130
 9368TIP3   OH228044   1.242   5.054   4.764
 9368TIP3    H128045   1.298   5.131   4.770
 9368TIP3    H228046   1.266   5.014   4.681
 9369TIP3   OH228047   7.982   3.259   6.796
 9369TIP3    H128048   7.966   3.188   6.735
 9369TIP3    H228049   7.993   3.336   6.741
 9370TIP3   OH228050   2.661   2.514   5.076
 9370TIP3    H128051   2.731   2.469   5.124
 9370TIP3    H228052   2.585   2.457   5.085
 9371TIP3   OH228053   5.789   6.442   6.501
 9371TIP3    H128054   5.742   6.395   6.431
 9371TIP3    H228055   5.872   6.395   6.510
 9372TIP3   OH228056   2.945   1.055   4.153
 9372TIP3    H128057   3.039   1.036   4.153
 9372TIP3    H228058   2.917   1.036   4.063
 9373TIP3   OH228059   0.077   5.632   2.586
 9373TIP3    H128060   0.048   5.610   2.498
 9373TIP3    H228061   0.170   5.610   2.587
 9374TIP3   OH228062   4.291   3.271   0.270
 9374TIP3    H128063   4.269   3.337   0.336
 9374TIP3    H228064   4.210   3.220   0.260
 9375TIP3   OH228065   6.532   6.417   0.818
 9375TIP3    H128066   6.500   6.330   0.796
 9375TIP3    H228067   6.619   6.401   0.856
 9376TIP3   OH228068   8.105   0.574   4.895
 9376TIP3    H128069   8.147   0.655   4.922
 9376TIP3    H228070   8.081   0.588   4.803
 9377TIP3   OH228071   3.976   4.027   6.833
 9377TIP3    H128072   3.971   3.965   6.761
 9377TIP3    H228073   3.976   3.973   6.912
 9378TIP3   OH228074   2.621   7.729   4.990
 9378TIP3    H128075   2.545   7.774   4.953
 9378TIP3    H228076   2.690   7.739   4.924
 9379TIP3   OH228077   5.317   6.952   1.835
 9379TIP3    H128078   5.367   6.966   1.755
 9379TIP3    H228079   5.286   7.039   1.860
 9380TIP3   OH228080   4.283   6.411   4.325
 9380TIP3    H128081   4.309   6.425   4.234
 9380TIP3    H228082   4.293   6.496   4.366
 9381TIP3   OH228083   2.609   3.309   4.476
 9381TIP3    H128084   2.691   3.295   4.429
 9381TIP3    H228085   2.554   3.357   4.414
 9382TIP3   OH228086   0.885   6.094   4.829
 9382TIP3    H128087   0.944   6.021   4.809
 9382TIP3    H228088   0.942   6.170   4.839
 9383TIP3   OH228089   0.495   1.728   4.835
 9383TIP3    H128090   0.523   1.700   4.749
 9383TIP3    H228091   0.573   1.718   4.890
 9384TIP3   OH228092   0.908   6.348   6.432
 9384TIP3    H128093   0.989   6.302   6.456
 9384TIP3    H228094   0.840   6.281   6.435
 9385TIP3   OH228095   6.677   4.732   5.558
 9385TIP3    H128096   6.748   4.797   5.555
 9385TIP3    H228097   6.601   4.780   5.590
 9386TIP3   OH228098   5.005   4.717   1.910
 9386TIP3    H128099   5.080   4.673   1.871
 9386TIP3    H228100   5.034   4.741   1.998
 9387TIP3   OH228101   2.887   0.890   6.176
 9387TIP3    H128102   2.808   0.912   6.127
 9387TIP3    H228103   2.861   0.898   6.268
 9388TIP3   OH228104   1.117   7.035   2.884
 9388TIP3    H128105   1.185   7.092   2.849
 9388TIP3    H228106   1.119   6.957   2.828
 9389TIP3   OH228107   1.848   1.524   3.363
 9389TIP3    H128108   1.796   1.541   3.441
 9389TIP3    H228109   1.824   1.594   3.302
 9390TIP3   OH228110   8.105   7.506   0.581
 9390TIP3    H128111   8.188   7.486   0.539
 9390TIP3    H228112   8.101   7.602   0.584
 9391TIP3   OH228113   5.352   4.013   1.203
 9391TIP3    H128114   5.327   4.029   1.113
 9391TIP3    H228115   5.336   3.920   1.217
 9392TIP3   OH228116   3.655   3.876   3.237
 9392TIP3    H128117   3.703   3.823   3.301
 9392TIP3    H228118   3.564   3.851   3.250
 9393TIP3   OH228119   2.453   7.539   5.490
 9393TIP3    H128120   2.449   7.634   5.501
 9393TIP3    H228121   2.362   7.511   5.485
 9394TIP3   OH228122   0.934   7.542   0.435
 9394TIP3    H128123   0.882   7.473   0.475
 9394TIP3    H228124   0.909   7.540   0.343
 9395TIP3   OH228125   1.673   0.364   6.657
 9395TIP3    H128126   1.619   0.335   6.583
 9395TIP3    H228127   1.757   0.386   6.618
 9396TIP3   OH228128   1.209   5.514   2.572
 9396TIP3    H128129   1.258   5.590   2.542
 9396TIP3    H228130   1.162   5.544   2.649
 9397TIP3   OH228131   6.537   4.607   4.482
 9397TIP3    H128132   6.474   4.535   4.478
 9397TIP3    H228133   6.555   4.618   4.576
 9398TIP3   OH228134   1.541   7.078   5.325
 9398TIP3    H128135   1.511   7.109   5.240
 9398TIP3    H228136   1.632   7.053   5.311
 9399TIP3   OH228137   6.520   1.714   6.636
 9399TIP3    H128138   6.593   1.676   6.588
 9399TIP3    H228139   6.539   1.695   6.728
 9400TIP3   OH228140   4.782   2.090   1.122
 9400TIP3    H128141   4.708   2.150   1.111
 9400TIP3    H228142   4.857   2.146   1.142
 9401TIP3   OH228143   3.689   4.889   6.681
 9401TIP3    H128144   3.751   4.817   6.669
 9401TIP3    H228145   3.740   4.956   6.727
 9402TIP3   OH228146   4.987   6.200   4.469
 9402TIP3    H128147   4.970   6.207   4.375
 9402TIP3    H228148   4.929   6.265   4.509
 9403TIP3   OH228149   2.072   1.770   1.088
 9403TIP3    H128150   2.021   1.841   1.048
 9403TIP3    H228151   2.143   1.755   1.026
 9404TIP3   OH228152   3.706   7.370   6.449
 9404TIP3    H128153   3.674   7.280   6.459
 9404TIP3    H228154   3.742   7.392   6.535
 9405TIP3   OH228155   1.383   5.492   5.459
 9405TIP3    H128156   1.365   5.517   5.369
 9405TIP3    H228157   1.370   5.573   5.509
 9406TIP3   OH228158   6.684   1.557   6.514
 9406TIP3    H128159   6.664   1.470   6.551
 9406TIP3    H228160   6.650   1.554   6.425
 9407TIP3   OH228161   0.153   1.518   5.654
 9407TIP3    H128162   0.197   1.511   5.739
 9407TIP3    H228163   0.154   1.612   5.635
 9408TIP3   OH228164   6.558   7.299   4.150
 9408TIP3    H128165   6.626   7.348   4.104
 9408TIP3    H228166   6.511   7.365   4.201
 9409TIP3   OH228167   4.896   1.773   1.416
 9409TIP3    H128168   4.876   1.826   1.493
 9409TIP3    H228169   4.825   1.794   1.354
 9410TIP3   OH228170   5.212   6.688   1.937
 9410TIP3    H128171   5.247   6.762   1.887
 9410TIP3    H228172   5.253   6.696   2.023
 9411TIP3   OH228173   4.365   6.036   5.964
 9411TIP3    H128174   4.315   6.043   6.045
 9411TIP3    H228175   4.451   6.074   5.986
 9412TIP3   OH228176   5.054   2.234   3.685
 9412TIP3    H128177   4.989   2.250   3.617
 9412TIP3    H228178   5.041   2.143   3.710
 9413TIP3   OH228179   6.009   7.454   4.321
 9413TIP3    H128180   6.066   7.379   4.335
 9413TIP3    H228181   5.980   7.479   4.408
 9414TIP3   OH228182   6.362   6.067   5.561
 9414TIP3    H128183   6.346   5.980   5.597
 9414TIP3    H228184   6.416   6.110   5.627
 9415TIP3   OH228185   8.262   3.978   6.594
 9415TIP3    H128186   8.307   3.979   6.679
 9415TIP3    H228187   8.189   3.918   6.606
 9416TIP3   OH228188   4.235   0.895   4.910
 9416TIP3    H128189   4.321   0.856   4.928
 9416TIP3    H228190   4.230   0.969   4.970
 9417TIP3   OH228191   2.199   2.883   3.755
 9417TIP3    H128192   2.227   2.910   3.668
 9417TIP3    H228193   2.108   2.912   3.762
 9418TIP3   OH228194   1.619   1.859   1.495
 9418TIP3    H128195   1.567   1.792   1.538
 9418TIP3    H228196   1.578   1.942   1.521
 9419TIP3   OH228197   4.939   3.041   3.171
 9419TIP3    H128198   4.862   2.985   3.167
 9419TIP3    H228199   5.012   2.982   3.190
 9420TIP3   OH228200   3.584   7.887   5.352
 9420TIP3    H128201   3.570   7.975   5.316
 9420TIP3    H228202   3.513   7.835   5.316
 9421TIP3   OH228203   2.221   0.897   2.421
 9421TIP3    H128204   2.250   0.956   2.352
 9421TIP3    H228205   2.257   0.812   2.396
 9422TIP3   OH228206   2.140   0.964   5.449
 9422TIP3    H128207   2.226   0.925   5.431
 9422TIP3    H228208   2.092   0.896   5.495
 9423TIP3   OH228209   6.817   4.421   6.589
 9423TIP3    H128210   6.792   4.329   6.583
 9423TIP3    H228211   6.737   4.465   6.620
 9424TIP3   OH228212   6.210   5.190   2.171
 9424TIP3    H128213   6.132   5.168   2.119
 9424TIP3    H228214   6.221   5.115   2.229
 9425TIP3   OH228215   3.562   6.358   0.622
 9425TIP3    H128216   3.593   6.377   0.534
 9425TIP3    H228217   3.466   6.359   0.615
 9426TIP3   OH228218   1.376   1.728   6.200
 9426TIP3    H128219   1.391   1.717   6.294
 9426TIP3    H228220   1.375   1.823   6.187
 9427TIP3   OH228221   6.755   5.103   3.284
 9427TIP3    H128222   6.665   5.136   3.285
 9427TIP3    H228223   6.806   5.173   3.324
 9428TIP3   OH228224   7.536   5.739   3.329
 9428TIP3    H128225   7.443   5.728   3.310
 9428TIP3    H228226   7.574   5.772   3.248
 9429TIP3   OH228227   7.313   0.729   0.683
 9429TIP3    H128228   7.234   0.730   0.736
 9429TIP3    H228229   7.314   0.642   0.643
 9430TIP3   OH228230   6.229   0.666   0.171
 9430TIP3    H128231   6.264   0.577   0.182
 9430TIP3    H228232   6.154   0.654   0.114
 9431TIP3   OH228233   7.338   6.811   3.862
 9431TIP3    H128234   7.374   6.727   3.833
 9431TIP3    H228235   7.250   6.790   3.892
 9432TIP3   OH228236   0.591   2.450   4.485
 9432TIP3    H128237   0.535   2.454   4.407
 9432TIP3    H228238   0.543   2.396   4.547
 9433TIP3   OH228239   1.911   6.316   6.113
 9433TIP3    H128240   1.892   6.226   6.139
 9433TIP3    H228241   1.906   6.315   6.018
 9434TIP3   OH228242   6.747   5.492   3.892
 9434TIP3    H128243   6.693   5.427   3.937
 9434TIP3    H228244   6.818   5.441   3.853
 9435TIP3   OH228245   7.975   1.701   5.559
 9435TIP3    H128246   8.065   1.669   5.551
 9435TIP3    H228247   7.934   1.641   5.621
 9436TIP3   OH228248   5.442   1.900   3.032
 9436TIP3    H128249   5.525   1.945   3.020
 9436TIP3    H228250   5.392   1.919   2.953
 9437TIP3   OH228251   7.386   7.557   5.141
 9437TIP3    H128252   7.398   7.551   5.046
 9437TIP3    H228253   7.451   7.621   5.170
 9438TIP3   OH228254   5.851   3.922   6.799
 9438TIP3    H128255   5.864   3.926   6.704
 9438TIP3    H228256   5.756   3.913   6.809
 9439TIP3   OH228257   7.045   0.318   2.535
 9439TIP3    H128258   7.021   0.342   2.625
 9439TIP3    H228259   7.141   0.324   2.534
 9440TIP3   OH228260   0.807   5.130   6.215
 9440TIP3    H128261   0.881   5.090   6.171
 9440TIP3    H228262   0.778   5.064   6.278
 9441TIP3   OH228263   7.840   5.129   2.588
 9441TIP3    H128264   7.840   5.218   2.624
 9441TIP3    H228265   7.767   5.128   2.526
 9442TIP3   OH228266   7.381   4.240   0.258
 9442TIP3    H128267   7.474   4.236   0.233
 9442TIP3    H228268   7.335   4.248   0.174
 9443TIP3   OH228269   4.064   2.368   5.470
 9443TIP3    H128270   4.105   2.332   5.549
 9443TIP3    H228271   4.133   2.363   5.403
 9444TIP3   OH228272   6.337   0.090   1.428
 9444TIP3    H128273   6.248   0.117   1.403
 9444TIP3    H228274   6.393   0.128   1.360
 9445TIP3   OH228275   3.131   7.030   3.850
 9445TIP3    H128276   3.194   7.029   3.778
 9445TIP3    H228277   3.151   7.109   3.899
 9446TIP3   OH228278   1.660   1.096   2.630
 9446TIP3    H128279   1.707   1.063   2.706
 9446TIP3    H228280   1.679   1.034   2.560
 9447TIP3   OH228281   5.169   5.738   3.920
 9447TIP3    H128282   5.220   5.659   3.934
 9447TIP3    H228283   5.230   5.810   3.934
 9448TIP3   OH228284   3.357   6.299   2.178
 9448TIP3    H128285   3.332   6.316   2.087
 9448TIP3    H228286   3.442   6.256   2.172
 9449TIP3   OH228287   3.592   6.388   3.710
 9449TIP3    H128288   3.558   6.393   3.620
 9449TIP3    H228289   3.645   6.468   3.720
 9450TIP3   OH228290   0.816   5.428   3.523
 9450TIP3    H128291   0.859   5.354   3.566
 9450TIP3    H228292   0.859   5.506   3.560
 9451TIP3   OH228293   0.213   3.252   0.535
 9451TIP3    H128294   0.175   3.336   0.562
 9451TIP3    H228295   0.146   3.212   0.480
 9452TIP3   OH228296   0.716   0.308   2.285
 9452TIP3    H128297   0.651   0.332   2.219
 9452TIP3    H228298   0.664   0.277   2.360
 9453TIP3   OH228299   4.927   6.524   2.823
 9453TIP3    H128300   4.836   6.552   2.834
 9453TIP3    H228301   4.931   6.437   2.861
 9454TIP3   OH228302   4.101   0.890   5.672
 9454TIP3    H128303   4.029   0.862   5.616
 9454TIP3    H228304   4.063   0.899   5.759
 9455TIP3   OH228305   0.404   4.429   3.968
 9455TIP3    H128306   0.430   4.494   3.902
 9455TIP3    H228307   0.402   4.477   4.050
 9456TIP3   OH228308   4.659   1.429   3.333
 9456TIP3    H128309   4.606   1.490   3.384
 9456TIP3    H228310   4.733   1.408   3.389
 9457TIP3   OH228311   1.142   6.137   0.447
 9457TIP3    H128312   1.206   6.109   0.512
 9457TIP3    H228313   1.193   6.155   0.368
 9458TIP3   OH228314   8.049   1.117   0.285
 9458TIP3    H128315   8.132   1.154   0.256
 9458TIP3    H228316   8.043   1.033   0.241
 9459TIP3   OH228317   6.807   1.425   5.327
 9459TIP3    H128318   6.897   1.424   5.295
 9459TIP3    H228319   6.813   1.461   5.415
 9460TIP3   OH228320   1.309   4.107   0.936
 9460TIP3    H128321   1.273   4.196   0.929
 9460TIP3    H228322   1.322   4.094   1.030
 9461TIP3   OH228323   8.407   5.688   6.695
 9461TIP3    H128324   8.324   5.704   6.650
 9461TIP3    H228325   8.412   5.757   6.762
 9462TIP3   OH228326   4.456   7.783   4.404
 9462TIP3    H128327   4.411   7.821   4.480
 9462TIP3    H228328   4.488   7.699   4.434
 9463TIP3   OH228329   6.773   7.021   3.770
 9463TIP3    H128330   6.860   7.039   3.734
 9463TIP3    H228331   6.738   7.107   3.792
 9464TIP3   OH228332   0.284   7.939   3.123
 9464TIP3    H128333   0.189   7.949   3.127
 9464TIP3    H228334   0.297   7.857   3.075
 9465TIP3   OH228335   5.801   6.626   2.812
 9465TIP3    H128336   5.844   6.560   2.865
 9465TIP3    H228337   5.749   6.677   2.875
 9466TIP3   OH228338   8.304   2.403   2.189
 9466TIP3    H128339   8.288   2.473   2.125
 9466TIP3    H228340   8.382   2.431   2.236
 9467TIP3   OH228341   4.864   3.860   2.284
 9467TIP3    H128342   4.830   3.791   2.226
 9467TIP3    H228343   4.929   3.906   2.230
 9468TIP3   OH228344   4.469   6.003   1.077
 9468TIP3    H128345   4.402   5.936   1.084
 9468TIP3    H228346   4.461   6.036   0.987
 9469TIP3   OH228347   6.618   0.677   3.554
 9469TIP3    H128348   6.575   0.595   3.577
 9469TIP3    H228349   6.583   0.741   3.616
 9470TIP3   OH228350   3.574   4.679   1.189
 9470TIP3    H128351   3.552   4.617   1.120
 9470TIP3    H228352   3.530   4.760   1.164
 9471TIP3   OH228353   2.196   2.753   0.608
 9471TIP3    H128354   2.213   2.682   0.547
 9471TIP3    H228355   2.278   2.765   0.655
 9472TIP3   OH228356   5.281   4.434   6.422
 9472TIP3    H128357   5.246   4.347   6.445
 9472TIP3    H228358   5.229   4.462   6.347
 9473TIP3   OH228359   3.801   2.823   0.595
 9473TIP3    H128360   3.718   2.782   0.620
 9473TIP3    H228361   3.801   2.822   0.499
 9474TIP3   OH228362   4.272   2.798   3.370
 9474TIP3    H128363   4.298   2.781   3.461
 9474TIP3    H228364   4.355   2.813   3.324
 9475TIP3   OH228365   2.831   2.342   0.980
 9475TIP3    H128366   2.748   2.334   0.934
 9475TIP3    H228367   2.873   2.257   0.969
 9476TIP3   OH228368   1.666   5.889   6.029
 9476TIP3    H128369   1.708   5.848   6.105
 9476TIP3    H228370   1.729   5.956   6.000
 9477TIP3   OH228371   3.430   7.521   3.913
 9477TIP3    H128372   3.495   7.451   3.912
 9477TIP3    H228373   3.418   7.543   3.820
 9478TIP3   OH228374   4.593   7.522   6.776
 9478TIP3    H128375   4.519   7.532   6.836
 9478TIP3    H228376   4.568   7.573   6.699
 9479TIP3   OH228377   7.288   4.908   0.925
 9479TIP3    H128378   7.338   4.986   0.900
 9479TIP3    H228379   7.230   4.939   0.995
 9480TIP3   OH228380   0.512   5.312   6.367
 9480TIP3    H128381   0.467   5.323   6.283
 9480TIP3    H228382   0.447   5.337   6.433
 9481TIP3   OH228383   1.742   4.423   1.322
 9481TIP3    H128384   1.748   4.518   1.329
 9481TIP3    H228385   1.829   4.391   1.347
 9482TIP3   OH228386   1.693   4.474   4.338
 9482TIP3    H128387   1.638   4.543   4.302
 9482TIP3    H228388   1.775   4.481   4.289
 9483TIP3   OH228389   1.648   5.288   2.442
 9483TIP3    H128390   1.633   5.328   2.528
 9483TIP3    H228391   1.570   5.311   2.392
 9484TIP3   OH228392   4.398   6.632   0.132
 9484TIP3    H128393   4.487   6.653   0.160
 9484TIP3    H228394   4.361   6.582   0.205
 9485TIP3   OH228395   5.682   0.382   4.352
 9485TIP3    H128396   5.635   0.337   4.282
 9485TIP3    H228397   5.737   0.446   4.307
 9486TIP3   OH228398   3.930   2.460   2.656
 9486TIP3    H128399   3.971   2.374   2.662
 9486TIP3    H228400   3.976   2.514   2.720
 9487TIP3   OH228401   3.042   2.012   1.794
 9487TIP3    H128402   3.034   1.999   1.889
 9487TIP3    H228403   3.004   1.933   1.756
 9488TIP3   OH228404   2.924   0.233   5.418
 9488TIP3    H128405   2.843   0.282   5.433
 9488TIP3    H228406   2.925   0.167   5.487
 9489TIP3   OH228407   3.043   6.518   3.894
 9489TIP3    H128408   3.044   6.566   3.812
 9489TIP3    H228409   2.985   6.567   3.951
 9490TIP3   OH228410   7.807   5.631   5.915
 9490TIP3    H128411   7.713   5.620   5.902
 9490TIP3    H228412   7.844   5.546   5.892
 9491TIP3   OH228413   4.227   5.899   0.974
 9491TIP3    H128414   4.200   5.812   0.946
 9491TIP3    H228415   4.159   5.928   1.034
 9492TIP3   OH228416   5.430   7.765   0.407
 9492TIP3    H128417   5.409   7.817   0.329
 9492TIP3    H228418   5.524   7.779   0.421
 9493TIP3   OH228419   6.015   6.206   3.668
 9493TIP3    H128420   5.944   6.212   3.605
 9493TIP3    H228421   6.089   6.250   3.626
 9494TIP3   OH228422   4.474   4.468   5.040
 9494TIP3    H128423   4.381   4.475   5.021
 9494TIP3    H228424   4.510   4.414   4.970
 9495TIP3   OH228425   0.404   3.026   1.962
 9495TIP3    H128426   0.370   2.941   1.990
 9495TIP3    H228427   0.453   3.007   1.882
 9496TIP3   OH228428   4.609   4.782   5.320
 9496TIP3    H128429   4.599   4.843   5.247
 9496TIP3    H228430   4.586   4.834   5.397
 9497TIP3   OH228431   7.222   6.893   6.238
 9497TIP3    H128432   7.225   6.957   6.309
 9497TIP3    H228433   7.263   6.938   6.164
 9498TIP3   OH228434   2.372   2.532   1.471
 9498TIP3    H128435   2.292   2.574   1.442
 9498TIP3    H228436   2.351   2.438   1.473
 9499TIP3   OH228437   1.753   3.037   1.852
 9499TIP3    H128438   1.677   2.990   1.818
 9499TIP3    H228439   1.764   3.003   1.941
 9500TIP3   OH228440   4.573   2.509   5.929
 9500TIP3    H128441   4.603   2.594   5.962
 9500TIP3    H228442   4.517   2.474   5.998
 9501TIP3   OH228443   2.932   4.059   1.611
 9501TIP3    H128444   3.012   4.099   1.644
 9501TIP3    H228445   2.894   4.014   1.687
 9502TIP3   OH228446   2.848   4.428   5.905
 9502TIP3    H128447   2.866   4.519   5.929
 9502TIP3    H228448   2.865   4.425   5.811
 9503TIP3   OH228449   0.474   1.645   2.235
 9503TIP3    H128450   0.487   1.569   2.178
 9503TIP3    H228451   0.432   1.609   2.313
 9504TIP3   OH228452   2.200   5.303   6.089
 9504TIP3    H128453   2.154   5.332   6.167
 9504TIP3    H228454   2.193   5.376   6.028
 9505TIP3   OH228455   0.643   1.707   3.517
 9505TIP3    H128456   0.667   1.735   3.605
 9505TIP3    H228457   0.579   1.772   3.488
 9506TIP3   OH228458   3.565   4.060   1.464
 9506TIP3    H128459   3.590   4.041   1.554
 9506TIP3    H228460   3.641   4.036   1.411
 9507TIP3   OH228461   0.991   6.700   5.454
 9507TIP3    H128462   0.990   6.609   5.485
 9507TIP3    H228463   1.052   6.744   5.513
 9508TIP3   OH228464   5.984   0.704   1.403
 9508TIP3    H128465   5.942   0.756   1.335
 9508TIP3    H228466   5.911   0.661   1.448
 9509TIP3   OH228467   7.626   2.612   3.662
 9509TIP3    H128468   7.713   2.615   3.701
 9509TIP3    H228469   7.589   2.699   3.680
 9510TIP3   OH228470   3.294   0.602   4.029
 9510TIP3    H128471   3.310   0.691   3.997
 9510TIP3    H228472   3.270   0.613   4.121
 9511TIP3   OH228473   8.351   5.491   1.722
 9511TIP3    H128474   8.366   5.487   1.817
 9511TIP3    H228475   8.364   5.401   1.692
 9512TIP3   OH228476   4.776   3.473   4.007
 9512TIP3    H128477   4.785   3.554   3.958
 9512TIP3    H228478   4.791   3.404   3.943
 9513TIP3   OH228479   7.955   3.413   5.417
 9513TIP3    H128480   7.915   3.344   5.470
 9513TIP3    H228481   7.882   3.471   5.394
 9514TIP3   OH228482   6.165   5.717   1.156
 9514TIP3    H128483   6.210   5.707   1.240
 9514TIP3    H228484   6.082   5.671   1.167
 9515TIP3   OH228485   4.676   3.212   0.042
 9515TIP3    H128486   4.699   3.165   0.122
 9515TIP3    H228487   4.627   3.289   0.072
 9516TIP3   OH228488   5.332   3.771   2.646
 9516TIP3    H128489   5.338   3.858   2.607
 9516TIP3    H228490   5.266   3.782   2.716
 9517TIP3   OH228491   5.114   5.835   3.367
 9517TIP3    H128492   5.098   5.882   3.285
 9517TIP3    H228493   5.035   5.783   3.380
 9518TIP3   OH228494   5.830   0.083   5.368
 9518TIP3    H128495   5.844   0.018   5.437
 9518TIP3    H228496   5.736   0.098   5.368
 9519TIP3   OH228497   5.923   7.772   0.375
 9519TIP3    H128498   6.004   7.773   0.426
 9519TIP3    H228499   5.906   7.865   0.357
 9520TIP3   OH228500   3.400   3.529   4.617
 9520TIP3    H128501   3.448   3.545   4.536
 9520TIP3    H228502   3.408   3.434   4.630
 9521TIP3   OH228503   5.954   6.302   6.787
 9521TIP3    H128504   6.001   6.223   6.761
 9521TIP3    H228505   6.011   6.344   6.851
 9522TIP3   OH228506   4.150   2.710   4.761
 9522TIP3    H128507   4.242   2.687   4.771
 9522TIP3    H228508   4.145   2.803   4.784
 9523TIP3   OH228509   1.872   1.770   1.791
 9523TIP3    H128510   1.895   1.745   1.701
 9523TIP3    H228511   1.835   1.858   1.783
 9524TIP3   OH228512   7.849   0.494   0.934
 9524TIP3    H128513   7.814   0.533   0.855
 9524TIP3    H228514   7.791   0.524   1.004
 9525TIP3   OH228515   1.096   6.191   5.424
 9525TIP3    H128516   1.129   6.279   5.439
 9525TIP3    H228517   1.167   6.133   5.449
 9526TIP3   OH228518   1.147   6.256   2.293
 9526TIP3    H128519   1.174   6.165   2.306
 9526TIP3    H228520   1.130   6.262   2.199
 9527TIP3   OH228521   1.547   1.547   1.018
 9527TIP3    H128522   1.625   1.585   1.057
 9527TIP3    H228523   1.483   1.544   1.089
 9528TIP3   OH228524   3.825   1.773   4.310
 9528TIP3    H128525   3.800   1.792   4.400
 9528TIP3    H228526   3.819   1.677   4.304
 9529TIP3   OH228527   7.539   4.185   3.392
 9529TIP3    H128528   7.577   4.193   3.479
 9529TIP3    H228529   7.497   4.099   3.393
 9530TIP3   OH228530   7.082   4.398   2.117
 9530TIP3    H128531   7.091   4.332   2.185
 9530TIP3    H228532   7.116   4.356   2.038
 9531TIP3   OH228533   3.136   7.526   1.237
 9531TIP3    H128534   3.175   7.492   1.157
 9531TIP3    H228535   3.210   7.558   1.288
 9532TIP3   OH228536   6.867   7.891   4.882
 9532TIP3    H128537   6.850   7.836   4.805
 9532TIP3    H228538   6.896   7.974   4.845
 9533TIP3   OH228539   1.853   3.467   4.982
 9533TIP3    H128540   1.870   3.389   5.034
 9533TIP3    H228541   1.939   3.507   4.969
 9534TIP3   OH228542   4.512   0.431   4.624
 9534TIP3    H128543   4.552   0.406   4.707
 9534TIP3    H228544   4.573   0.397   4.558
 9535TIP3   OH228545   8.135   0.697   1.190
 9535TIP3    H128546   8.183   0.659   1.117
 9535TIP3    H228547   8.199   0.751   1.236
 9536TIP3   OH228548   8.143   5.610   3.841
 9536TIP3    H128549   8.131   5.673   3.912
 9536TIP3    H228550   8.126   5.525   3.882
 9537TIP3   OH228551   2.333   6.369   6.210
 9537TIP3    H128552   2.241   6.379   6.187
 9537TIP3    H228553   2.368   6.310   6.143
 9538TIP3   OH228554   3.428   5.286   0.358
 9538TIP3    H128555   3.436   5.313   0.450
 9538TIP3    H228556   3.334   5.273   0.345
 9539TIP3   OH228557   3.844   5.456   3.091
 9539TIP3    H128558   3.856   5.448   2.997
 9539TIP3    H228559   3.876   5.373   3.127
 9540TIP3   OH228560   0.972   6.584   2.028
 9540TIP3    H128561   1.063   6.612   2.028
 9540TIP3    H228562   0.927   6.646   2.085
 9541TIP3   OH228563   1.069   0.977   3.521
 9541TIP3    H128564   1.027   1.049   3.569
 9541TIP3    H228565   1.006   0.905   3.527
 9542TIP3   OH228566   7.696   3.787   5.110
 9542TIP3    H128567   7.693   3.769   5.016
 9542TIP3    H228568   7.787   3.810   5.128
 9543TIP3   OH228569   5.478   2.354   0.015
 9543TIP3    H128570   5.527   2.435   0.031
 9543TIP3    H228571   5.431   2.338   0.097
 9544TIP3   OH228572   1.122   7.308   4.555
 9544TIP3    H128573   1.149   7.230   4.506
 9544TIP3    H228574   1.204   7.344   4.589
 9545TIP3   OH228575   0.310   0.183   1.276
 9545TIP3    H128576   0.343   0.102   1.238
 9545TIP3    H228577   0.240   0.211   1.217
 9546TIP3   OH228578   3.219   1.131   2.347
 9546TIP3    H128579   3.196   1.223   2.359
 9546TIP3    H228580   3.310   1.125   2.376
 9547TIP3   OH228581   8.222   6.684   3.989
 9547TIP3    H128582   8.144   6.719   4.032
 9547TIP3    H228583   8.280   6.657   4.060
 9548TIP3   OH228584   2.432   5.803   5.879
 9548TIP3    H128585   2.383   5.735   5.926
 9548TIP3    H228586   2.364   5.863   5.848
 9549TIP3   OH228587   6.427   7.063   3.532
 9549TIP3    H128588   6.465   6.981   3.501
 9549TIP3    H228589   6.340   7.065   3.493
 9550TIP3   OH228590   5.889   2.271   0.636
 9550TIP3    H128591   5.885   2.305   0.726
 9550TIP3    H228592   5.799   2.246   0.615
 9551TIP3   OH228593   1.147   1.703   1.962
 9551TIP3    H128594   1.079   1.677   1.901
 9551TIP3    H228595   1.228   1.702   1.910
 9552TIP3   OH228596   7.376   6.394   1.963
 9552TIP3    H128597   7.403   6.436   1.881
 9552TIP3    H228598   7.458   6.372   2.006
 9553TIP3   OH228599   6.290   1.524   2.472
 9553TIP3    H128600   6.356   1.454   2.467
 9553TIP3    H228601   6.208   1.478   2.488
 9554TIP3   OH228602   2.011   0.204   6.834
 9554TIP3    H128603   1.991   0.118   6.872
 9554TIP3    H228604   1.992   0.194   6.741
 9555TIP3   OH228605   3.206   7.316   4.836
 9555TIP3    H128606   3.190   7.239   4.890
 9555TIP3    H228607   3.149   7.304   4.760
 9556TIP3   OH228608   6.702   5.337   1.070
 9556TIP3    H128609   6.792   5.314   1.045
 9556TIP3    H228610   6.690   5.425   1.033
 9557TIP3   OH228611   4.322   2.245   0.575
 9557TIP3    H128612   4.268   2.290   0.511
 9557TIP3    H228613   4.411   2.255   0.543
 9558TIP3   OH228614   3.607   5.747   4.058
 9558TIP3    H128615   3.570   5.757   4.146
 9558TIP3    H228616   3.700   5.732   4.072
 9559TIP3   OH228617   6.359   7.415   0.502
 9559TIP3    H128618   6.418   7.436   0.575
 9559TIP3    H228619   6.295   7.355   0.540
 9560TIP3   OH228620   7.564   5.320   2.468
 9560TIP3    H128621   7.487   5.373   2.447
 9560TIP3    H228622   7.636   5.383   2.472
 9561TIP3   OH228623   0.502   5.583   5.362
 9561TIP3    H128624   0.411   5.590   5.388
 9561TIP3    H228625   0.499   5.574   5.266
 9562TIP3   OH228626   2.825   0.891   4.353
 9562TIP3    H128627   2.830   0.826   4.282
 9562TIP3    H228628   2.750   0.863   4.405
 9563TIP3   OH228629   1.034   2.612   3.649
 9563TIP3    H128630   0.949   2.571   3.669
 9563TIP3    H228631   1.062   2.568   3.568
 9564TIP3   OH228632   8.386   2.593   3.915
 9564TIP3    H128633   8.378   2.635   3.830
 9564TIP3    H228634   8.407   2.664   3.975
 9565TIP3   OH228635   1.547   3.016   2.271
 9565TIP3    H128636   1.484   2.945   2.259
 9565TIP3    H228637   1.625   2.973   2.307
 9566TIP3   OH228638   3.371   4.934   2.811
 9566TIP3    H128639   3.370   5.021   2.771
 9566TIP3    H228640   3.304   4.885   2.763
 9567TIP3   OH228641   1.116   4.689   2.257
 9567TIP3    H128642   1.073   4.775   2.262
 9567TIP3    H228643   1.198   4.701   2.304
 9568TIP3   OH228644   6.169   5.748   0.531
 9568TIP3    H128645   6.235   5.760   0.463
 9568TIP3    H228646   6.199   5.803   0.604
 9569TIP3   OH228647   1.284   2.077   2.018
 9569TIP3    H128648   1.286   2.167   1.986
 9569TIP3    H228649   1.194   2.048   2.003
 9570TIP3   OH228650   7.802   4.526   3.008
 9570TIP3    H128651   7.794   4.490   3.096
 9570TIP3    H228652   7.785   4.620   3.019
 9571TIP3   OH228653   3.421   6.041   4.957
 9571TIP3    H128654   3.355   6.020   5.023
 9571TIP3    H228655   3.467   6.118   4.993
 9572TIP3   OH228656   5.115   3.434   4.748
 9572TIP3    H128657   5.031   3.454   4.789
 9572TIP3    H228658   5.115   3.484   4.666
 9573TIP3   OH228659   2.162   5.548   6.240
 9573TIP3    H128660   2.196   5.628   6.280
 9573TIP3    H228661   2.079   5.532   6.285
 9574TIP3   OH228662   1.123   1.479   4.201
 9574TIP3    H128663   1.186   1.550   4.185
 9574TIP3    H228664   1.154   1.407   4.146
 9575TIP3   OH228665   5.318   5.688   2.373
 9575TIP3    H128666   5.318   5.597   2.404
 9575TIP3    H228667   5.231   5.721   2.397
 9576TIP3   OH228668   6.262   5.777   2.555
 9576TIP3    H128669   6.213   5.731   2.487
 9576TIP3    H228670   6.247   5.726   2.635
 9577TIP3   OH228671   3.878   3.166   5.861
 9577TIP3    H128672   3.925   3.196   5.784
 9577TIP3    H228673   3.855   3.075   5.842
 9578TIP3   OH228674   6.611   2.433   0.680
 9578TIP3    H128675   6.631   2.386   0.760
 9578TIP3    H228676   6.598   2.524   0.707
 9579TIP3   OH228677   1.058   3.355   1.439
 9579TIP3    H128678   1.015   3.317   1.516
 9579TIP3    H228679   1.151   3.355   1.463
 9580TIP3   OH228680   0.922   4.929   3.609
 9580TIP3    H128681   0.992   4.865   3.622
 9580TIP3    H228682   0.868   4.892   3.540
 9581TIP3   OH228683   5.147   3.224   0.818
 9581TIP3    H128684   5.136   3.212   0.912
 9581TIP3    H228685   5.060   3.208   0.781
 9582TIP3   OH228686   3.257   5.594   6.086
 9582TIP3    H128687   3.271   5.578   5.993
 9582TIP3    H228688   3.254   5.507   6.126
 9583TIP3   OH228689   4.651   4.434   5.259
 9583TIP3    H128690   4.560   4.438   5.229
 9583TIP3    H228691   4.693   4.370   5.202
 9584TIP3   OH228692   1.027   6.827   4.513
 9584TIP3    H128693   1.007   6.795   4.425
 9584TIP3    H228694   0.949   6.876   4.538
 9585TIP3   OH228695   2.330   7.579   0.594
 9585TIP3    H128696   2.390   7.630   0.649
 9585TIP3    H228697   2.308   7.637   0.522
 9586TIP3   OH228698   5.812   7.100   0.758
 9586TIP3    H128699   5.820   7.174   0.818
 9586TIP3    H228700   5.774   7.137   0.679
 9587TIP3   OH228701   3.837   5.127   5.336
 9587TIP3    H128702   3.801   5.072   5.405
 9587TIP3    H228703   3.817   5.082   5.255
 9588TIP3   OH228704   6.671   3.721   4.833
 9588TIP3    H128705   6.754   3.716   4.787
 9588TIP3    H228706   6.694   3.706   4.925
 9589TIP3   OH228707   3.110   0.013   0.786
 9589TIP3    H128708   3.137   0.047   0.701
 9589TIP3    H228709   3.037  -0.046   0.766
 9590TIP3   OH228710   3.154   2.046   2.128
 9590TIP3    H128711   3.103   2.117   2.089
 9590TIP3    H228712   3.090   1.997   2.180
 9591TIP3   OH228713   3.798   1.558   2.494
 9591TIP3    H128714   3.858   1.593   2.560
 9591TIP3    H228715   3.722   1.530   2.543
 9592TIP3   OH228716   3.686   5.947   6.016
 9592TIP3    H128717   3.722   6.012   6.077
 9592TIP3    H228718   3.630   5.892   6.071
 9593TIP3   OH228719   7.794   3.538   5.794
 9593TIP3    H128720   7.867   3.486   5.829
 9593TIP3    H228721   7.836   3.618   5.761
 9594TIP3   OH228722   4.624   2.375   3.154
 9594TIP3    H128723   4.618   2.322   3.075
 9594TIP3    H228724   4.534   2.401   3.173
 9595TIP3   OH228725   7.102   3.899   0.300
 9595TIP3    H128726   7.082   3.825   0.358
 9595TIP3    H228727   7.190   3.925   0.325
 9596TIP3   OH228728   7.849   3.831   0.418
 9596TIP3    H128729   7.860   3.907   0.476
 9596TIP3    H228730   7.839   3.757   0.477
 9597TIP3   OH228731   3.860   0.407   0.261
 9597TIP3    H128732   3.947   0.409   0.301
 9597TIP3    H228733   3.876   0.415   0.167
 9598TIP3   OH228734   1.657   2.608   1.340
 9598TIP3    H128735   1.624   2.666   1.271
 9598TIP3    H228736   1.579   2.570   1.380
 9599TIP3   OH228737   7.399   1.757   4.969
 9599TIP3    H128738   7.331   1.769   4.902
 9599TIP3    H228739   7.479   1.790   4.928
 9600TIP3   OH228740   7.266   1.114   2.471
 9600TIP3    H128741   7.310   1.068   2.400
 9600TIP3    H228742   7.332   1.172   2.507
 9601TIP3   OH228743   5.142   1.379   3.217
 9601TIP3    H128744   5.057   1.423   3.213
 9601TIP3    H228745   5.124   1.296   3.261
 9602TIP3   OH228746   3.844   3.719   5.312
 9602TIP3    H128747   3.779   3.679   5.253
 9602TIP3    H228748   3.927   3.707   5.267
 9603TIP3   OH228749   2.981   4.241   0.486
 9603TIP3    H128750   2.898   4.211   0.450
 9603TIP3    H228751   2.972   4.336   0.494
 9604TIP3   OH228752   0.417   4.715   4.425
 9604TIP3    H128753   0.433   4.766   4.504
 9604TIP3    H228754   0.478   4.641   4.431
 9605TIP3   OH228755   7.072   7.456   2.711
 9605TIP3    H128756   6.993   7.488   2.666
 9605TIP3    H228757   7.087   7.519   2.781
 9606TIP3   OH228758   6.553   0.865   3.027
 9606TIP3    H128759   6.523   0.775   3.015
 9606TIP3    H228760   6.500   0.899   3.099
 9607TIP3   OH228761   2.812   4.906   4.041
 9607TIP3    H128762   2.821   4.813   4.024
 9607TIP3    H228763   2.819   4.915   4.136
 9608TIP3   OH228764   5.532   6.310   6.070
 9608TIP3    H128765   5.584   6.389   6.085
 9608TIP3    H228766   5.468   6.310   6.141
 9609TIP3   OH228767   6.140   2.311   1.239
 9609TIP3    H128768   6.063   2.351   1.278
 9609TIP3    H228769   6.178   2.380   1.185
 9610TIP3   OH228770   1.648   4.783   5.828
 9610TIP3    H128771   1.688   4.789   5.915
 9610TIP3    H228772   1.556   4.763   5.846
 9611TIP3   OH228773   5.675   7.715   3.146
 9611TIP3    H128774   5.730   7.778   3.193
 9611TIP3    H228775   5.704   7.722   3.055
 9612TIP3   OH228776   0.039   6.003   5.250
 9612TIP3    H128777   0.076   6.081   5.208
 9612TIP3    H228778  -0.053   6.025   5.266
 9613TIP3   OH228779   3.733   1.289   1.821
 9613TIP3    H128780   3.817   1.274   1.778
 9613TIP3    H228781   3.687   1.349   1.762
 9614TIP3   OH228782   4.570   1.468   4.323
 9614TIP3    H128783   4.545   1.424   4.242
 9614TIP3    H228784   4.516   1.427   4.390
 9615TIP3   OH228785   5.896   2.718   1.685
 9615TIP3    H128786   5.825   2.730   1.622
 9615TIP3    H228787   5.914   2.806   1.718
 9616TIP3   OH228788   0.480   5.215   1.015
 9616TIP3    H128789   0.536   5.202   1.092
 9616TIP3    H228790   0.520   5.288   0.968
 9617TIP3   OH228791   5.779   5.877   6.024
 9617TIP3    H128792   5.855   5.833   5.987
 9617TIP3    H228793   5.704   5.835   5.982
 9618TIP3   OH228794   7.171   4.518   1.056
 9618TIP3    H128795   7.221   4.548   0.980
 9618TIP3    H228796   7.131   4.436   1.028
 9619TIP3   OH228797   0.801   7.033   0.053
 9619TIP3    H128798   0.735   6.995   0.110
 9619TIP3    H228799   0.839   6.959   0.007
 9620TIP3   OH228800   0.496   1.791   4.269
 9620TIP3    H128801   0.492   1.855   4.340
 9620TIP3    H228802   0.413   1.802   4.223
 9621TIP3   OH228803   2.318   7.800   0.385
 9621TIP3    H128804   2.223   7.810   0.388
 9621TIP3    H228805   2.350   7.882   0.347
 9622TIP3   OH228806   5.171   6.005   4.207
 9622TIP3    H128807   5.095   6.050   4.169
 9622TIP3    H228808   5.160   5.913   4.181
 9623TIP3   OH228809   2.706   3.836   1.453
 9623TIP3    H128810   2.714   3.795   1.539
 9623TIP3    H228811   2.717   3.930   1.470
 9624TIP3   OH228812   2.682   2.889   0.866
 9624TIP3    H128813   2.616   2.820   0.872
 9624TIP3    H228814   2.632   2.970   0.853
 9625TIP3   OH228815   2.818   5.853   5.133
 9625TIP3    H128816   2.899   5.802   5.137
 9625TIP3    H228817   2.749   5.790   5.156
 9626TIP3   OH228818   0.130   2.838   1.593
 9626TIP3    H128819   0.169   2.759   1.630
 9626TIP3    H228820   0.128   2.821   1.498
 9627TIP3   OH228821   3.692   0.529   6.003
 9627TIP3    H128822   3.648   0.610   5.978
 9627TIP3    H228823   3.704   0.537   6.098
 9628TIP3   OH228824   8.099   4.427  -0.031
 9628TIP3    H128825   8.092   4.514   0.008
 9628TIP3    H228826   8.165   4.382   0.023
 9629TIP3   OH228827   6.475   6.725   6.006
 9629TIP3    H128828   6.384   6.705   5.985
 9629TIP3    H228829   6.469   6.786   6.080
 9630TIP3   OH228830   8.352   4.256   1.678
 9630TIP3    H128831   8.428   4.203   1.654
 9630TIP3    H228832   8.354   4.260   1.774
 9631TIP3   OH228833   2.125   6.326   3.437
 9631TIP3    H128834   2.217   6.337   3.459
 9631TIP3    H228835   2.080   6.397   3.483
 9632TIP3   OH228836   1.494   1.622   1.587
 9632TIP3    H128837   1.570   1.565   1.599
 9632TIP3    H228838   1.435   1.572   1.531
 9633TIP3   OH228839   4.978   7.714   3.882
 9633TIP3    H128840   4.929   7.788   3.918
 9633TIP3    H228841   5.063   7.718   3.926
 9634TIP3   OH228842   5.441   5.490   2.706
 9634TIP3    H128843   5.494   5.459   2.633
 9634TIP3    H228844   5.470   5.438   2.781
 9635TIP3   OH228845   4.807   4.120   1.265
 9635TIP3    H128846   4.799   4.203   1.310
 9635TIP3    H228847   4.788   4.054   1.332
 9636TIP3   OH228848   4.496   5.354   5.383
 9636TIP3    H128849   4.519   5.299   5.308
 9636TIP3    H228850   4.448   5.295   5.441
 9637TIP3   OH228851   6.797   6.108   6.584
 9637TIP3    H128852   6.757   6.150   6.660
 9637TIP3    H228853   6.873   6.063   6.619
 9638TIP3   OH228854   4.586   5.547   5.223
 9638TIP3    H128855   4.574   5.637   5.255
 9638TIP3    H228856   4.555   5.492   5.294
 9639TIP3   OH228857   3.333   1.394   3.170
 9639TIP3    H128858   3.240   1.370   3.165
 9639TIP3    H228859   3.332   1.487   3.191
 9640TIP3   OH228860   1.156   3.435   3.921
 9640TIP3    H128861   1.214   3.445   3.996
 9640TIP3    H228862   1.068   3.440   3.958
 9641TIP3   OH228863   2.287   1.294   4.565
 9641TIP3    H128864   2.224   1.309   4.636
 9641TIP3    H228865   2.333   1.215   4.592
 9642TIP3   OH228866   4.821   5.155   6.775
 9642TIP3    H128867   4.746   5.119   6.728
 9642TIP3    H228868   4.873   5.079   6.799
 9643TIP3   OH228869   3.991   1.147   3.509
 9643TIP3    H128870   4.010   1.158   3.602
 9643TIP3    H228871   3.984   1.237   3.475
 9644TIP3   OH228872   4.757   0.326   0.624
 9644TIP3    H128873   4.850   0.333   0.646
 9644TIP3    H228874   4.730   0.415   0.605
 9645TIP3   OH228875   5.053   5.845   3.051
 9645TIP3    H128876   5.023   5.754   3.052
 9645TIP3    H228877   4.978   5.895   3.022
 9646TIP3   OH228878   3.669   6.030   5.733
 9646TIP3    H128879   3.763   6.025   5.754
 9646TIP3    H228880   3.629   5.959   5.783
 9647TIP3   OH228881   6.746   0.609   1.503
 9647TIP3    H128882   6.669   0.661   1.482
 9647TIP3    H228883   6.717   0.518   1.492
 9648TIP3   OH228884   7.881   7.087   1.122
 9648TIP3    H128885   7.896   7.039   1.041
 9648TIP3    H228886   7.860   7.176   1.094
 9649TIP3   OH228887   5.491   0.162   2.402
 9649TIP3    H128888   5.510   0.106   2.327
 9649TIP3    H228889   5.435   0.109   2.458
 9650TIP3   OH228890   2.689   1.308   3.729
 9650TIP3    H128891   2.629   1.306   3.654
 9650TIP3    H228892   2.650   1.372   3.789
 9651TIP3   OH228893   1.793   6.962   5.504
 9651TIP3    H128894   1.809   6.912   5.423
 9651TIP3    H228895   1.855   7.034   5.500
 9652TIP3   OH228896   6.958   4.606   5.815
 9652TIP3    H128897   6.889   4.609   5.882
 9652TIP3    H228898   6.913   4.633   5.735
 9653TIP3   OH228899   4.845   1.765   6.422
 9653TIP3    H128900   4.832   1.841   6.367
 9653TIP3    H228901   4.925   1.724   6.390
 9654TIP3   OH228902   8.359   5.768   5.664
 9654TIP3    H128903   8.411   5.849   5.665
 9654TIP3    H228904   8.278   5.792   5.708
 9655TIP3   OH228905   3.871   6.494   3.968
 9655TIP3    H128906   3.916   6.517   4.049
 9655TIP3    H228907   3.786   6.538   3.974
 9656TIP3   OH228908   5.080   7.186   5.680
 9656TIP3    H128909   5.154   7.235   5.645
 9656TIP3    H228910   5.110   7.155   5.766
 9657TIP3   OH228911   6.927   6.856   4.168
 9657TIP3    H128912   6.911   6.947   4.194
 9657TIP3    H228913   6.976   6.819   4.241
 9658TIP3   OH228914   2.430   4.096   1.531
 9658TIP3    H128915   2.429   4.005   1.562
 9658TIP3    H228916   2.513   4.105   1.485
 9659TIP3   OH228917   0.683   7.245   3.392
 9659TIP3    H128918   0.642   7.305   3.329
 9659TIP3    H228919   0.767   7.285   3.412
 9660TIP3   OH228920   3.762   5.452   1.022
 9660TIP3    H128921   3.703   5.514   1.065
 9660TIP3    H228922   3.717   5.427   0.942
 9661TIP3   OH228923   5.063   3.664   6.611
 9661TIP3    H128924   5.144   3.648   6.660
 9661TIP3    H228925   4.997   3.611   6.656
 9662TIP3   OH228926   0.226   1.083   2.094
 9662TIP3    H128927   0.142   1.124   2.111
 9662TIP3    H228928   0.205   1.009   2.037
 9663TIP3   OH228929   5.615   1.780   3.240
 9663TIP3    H128930   5.566   1.835   3.179
 9663TIP3    H228931   5.547   1.740   3.295
 9664TIP3   OH228932   2.755   1.189   4.391
 9664TIP3    H128933   2.789   1.277   4.407
 9664TIP3    H228934   2.705   1.198   4.310
 9665TIP3   OH228935   5.049   0.160   5.824
 9665TIP3    H128936   4.981   0.205   5.774
 9665TIP3    H228937   5.116   0.227   5.839
 9666TIP3   OH228938   7.054   6.534   3.655
 9666TIP3    H128939   6.991   6.537   3.727
 9666TIP3    H228940   7.017   6.472   3.592
 9667TIP3   OH228941   7.282   3.158   2.016
 9667TIP3    H128942   7.261   3.241   2.060
 9667TIP3    H228943   7.376   3.150   2.025
 9668TIP3   OH228944   2.093   4.861   0.712
 9668TIP3    H128945   2.003   4.872   0.744
 9668TIP3    H228946   2.089   4.785   0.655
 9669TIP3   OH228947   6.986   3.010   4.977
 9669TIP3    H128948   7.039   2.990   5.054
 9669TIP3    H228949   6.896   2.993   5.005
 9670TIP3   OH228950   6.444   3.776   3.509
 9670TIP3    H128951   6.509   3.789   3.578
 9670TIP3    H228952   6.411   3.687   3.523
 9671TIP3   OH228953   1.045   5.055   0.773
 9671TIP3    H128954   1.136   5.035   0.797
 9671TIP3    H228955   1.052   5.135   0.720
 9672TIP3   OH228956   1.059   0.578   6.014
 9672TIP3    H128957   1.104   0.606   6.093
 9672TIP3    H228958   1.047   0.658   5.963
 9673TIP3   OH228959   6.155   0.839   0.412
 9673TIP3    H128960   6.175   0.810   0.323
 9673TIP3    H228961   6.184   0.767   0.468
 9674TIP3   OH228962   3.538   0.226   4.421
 9674TIP3    H128963   3.500   0.313   4.434
 9674TIP3    H228964   3.610   0.240   4.360
 9675TIP3   OH228965   2.008   7.541   6.306
 9675TIP3    H128966   1.947   7.482   6.351
 9675TIP3    H228967   2.029   7.608   6.370
 9676TIP3   OH228968   4.398   3.197   3.710
 9676TIP3    H128969   4.417   3.286   3.739
 9676TIP3    H228970   4.467   3.144   3.750
 9677TIP3   OH228971   7.701   6.592   2.069
 9677TIP3    H128972   7.690   6.686   2.076
 9677TIP3    H228973   7.791   6.576   2.100
 9678TIP3   OH228974   6.697   3.043   1.530
 9678TIP3    H128975   6.757   2.993   1.474
 9678TIP3    H228976   6.657   2.977   1.587
 9679TIP3   OH228977   1.312   3.106   2.987
 9679TIP3    H128978   1.265   3.154   2.920
 9679TIP3    H228979   1.403   3.135   2.978
 9680TIP3   OH228980   0.733   3.275   5.861
 9680TIP3    H128981   0.823   3.295   5.838
 9680TIP3    H228982   0.703   3.353   5.909
 9681TIP3   OH228983   1.521   3.098   3.334
 9681TIP3    H128984   1.511   3.185   3.372
 9681TIP3    H228985   1.444   3.087   3.279
 9682TIP3   OH228986   0.932   4.629   5.172
 9682TIP3    H128987   0.915   4.585   5.089
 9682TIP3    H228988   0.846   4.662   5.200
 9683TIP3   OH228989   8.200   7.320   4.502
 9683TIP3    H128990   8.129   7.303   4.564
 9683TIP3    H228991   8.199   7.244   4.444
 9684TIP3   OH228992   0.360   4.964   6.596
 9684TIP3    H128993   0.356   4.994   6.687
 9684TIP3    H228994   0.394   4.875   6.602
 9685TIP3   OH228995   2.275   3.819   4.529
 9685TIP3    H128996   2.343   3.752   4.533
 9685TIP3    H228997   2.198   3.777   4.568
 9686TIP3   OH228998   6.387   4.866   5.678
 9686TIP3    H128999   6.311   4.821   5.642
 9686TIP3    H229000   6.372   4.958   5.658
 9687TIP3   OH229001   1.769   4.490   6.708
 9687TIP3    H129002   1.784   4.442   6.626
 9687TIP3    H229003   1.676   4.479   6.726
 9688TIP3   OH229004   4.199   7.238   0.372
 9688TIP3    H129005   4.265   7.284   0.319
 9688TIP3    H229006   4.119   7.242   0.319
 9689TIP3   OH229007   2.356   7.805   3.085
 9689TIP3    H129008   2.412   7.879   3.111
 9689TIP3    H229009   2.383   7.734   3.144
 9690TIP3   OH229010   3.830   7.894   1.115
 9690TIP3    H129011   3.765   7.946   1.068
 9690TIP3    H229012   3.794   7.805   1.116
 9691TIP3   OH229013   3.592   5.647   1.170
 9691TIP3    H129014   3.554   5.716   1.116
 9691TIP3    H229015   3.589   5.682   1.259
 9692TIP3   OH229016   0.949   0.445   2.197
 9692TIP3    H129017   0.933   0.421   2.105
 9692TIP3    H229018   0.879   0.402   2.245
 9693TIP3   OH229019   5.271   4.180   0.551
 9693TIP3    H129020   5.252   4.124   0.476
 9693TIP3    H229021   5.356   4.149   0.584
 9694TIP3   OH229022   6.839   4.801   0.591
 9694TIP3    H129023   6.919   4.854   0.594
 9694TIP3    H229024   6.798   4.815   0.676
 9695TIP3   OH229025   7.891   0.142   3.382
 9695TIP3    H129026   7.947   0.133   3.305
 9695TIP3    H229027   7.925   0.078   3.445
 9696TIP3   OH229028   3.680   2.113   0.699
 9696TIP3    H129029   3.695   2.122   0.605
 9696TIP3    H229030   3.614   2.180   0.719
 9697TIP3   OH229031   0.411   2.945   2.355
 9697TIP3    H129032   0.404   2.924   2.262
 9697TIP3    H229033   0.494   2.992   2.363
 9698TIP3   OH229034   4.009   0.536   1.958
 9698TIP3    H129035   3.946   0.528   2.030
 9698TIP3    H229036   3.959   0.510   1.880
 9699TIP3   OH229037   4.060   5.218   6.465
 9699TIP3    H129038   4.065   5.254   6.553
 9699TIP3    H229039   3.968   5.195   6.453
 9700TIP3   OH229040   1.859   1.161   2.919
 9700TIP3    H129041   1.939   1.110   2.903
 9700TIP3    H229042   1.890   1.249   2.940
 9701TIP3   OH229043   4.040   6.325   0.107
 9701TIP3    H129044   4.087   6.301   0.186
 9701TIP3    H229045   4.053   6.251   0.047
 9702TIP3   OH229046   3.045   3.013   4.467
 9702TIP3    H129047   3.065   2.979   4.554
 9702TIP3    H229048   3.125   3.057   4.439
 9703TIP3   OH229049   6.757   5.850   4.488
 9703TIP3    H129050   6.790   5.766   4.518
 9703TIP3    H229051   6.819   5.877   4.420
 9704TIP3   OH229052   2.728   3.704   0.335
 9704TIP3    H129053   2.656   3.705   0.272
 9704TIP3    H229054   2.685   3.709   0.421
 9705TIP3   OH229055   2.717   5.107   0.332
 9705TIP3    H129056   2.721   5.128   0.239
 9705TIP3    H229057   2.641   5.049   0.340
 9706TIP3   OH229058   1.484   5.832   2.913
 9706TIP3    H129059   1.415   5.858   2.852
 9706TIP3    H229060   1.544   5.907   2.914
 9707TIP3   OH229061   0.746   5.747   3.500
 9707TIP3    H129062   0.686   5.821   3.493
 9707TIP3    H229063   0.701   5.685   3.558
 9708TIP3   OH229064   4.489   2.754   4.161
 9708TIP3    H129065   4.503   2.758   4.256
 9708TIP3    H229066   4.577   2.752   4.123
 9709TIP3   OH229067   2.952   2.208   2.438
 9709TIP3    H129068   3.024   2.262   2.471
 9709TIP3    H229069   2.985   2.118   2.442
 9710TIP3   OH229070   6.000   4.542   3.212
 9710TIP3    H129071   5.957   4.567   3.293
 9710TIP3    H229072   6.033   4.624   3.176
 9711TIP3   OH229073   4.554   0.791   4.334
 9711TIP3    H129074   4.570   0.813   4.426
 9711TIP3    H229075   4.516   0.703   4.336
 9712TIP3   OH229076   0.281   1.129   6.769
 9712TIP3    H129077   0.239   1.208   6.734
 9712TIP3    H229078   0.219   1.059   6.749
 9713TIP3   OH229079   5.501   1.057   6.223
 9713TIP3    H129080   5.436   1.128   6.222
 9713TIP3    H229081   5.577   1.095   6.267
 9714TIP3   OH229082   0.300   7.817   0.280
 9714TIP3    H129083   0.385   7.783   0.254
 9714TIP3    H229084   0.237   7.767   0.228
 9715TIP3   OH229085   0.052   4.308   5.771
 9715TIP3    H129086   0.124   4.371   5.777
 9715TIP3    H229087   0.096   4.223   5.766
 9716TIP3   OH229088   2.681   4.550   1.799
 9716TIP3    H129089   2.604   4.508   1.761
 9716TIP3    H229090   2.751   4.531   1.737
 9717TIP3   OH229091   0.698   4.927   2.512
 9717TIP3    H129092   0.768   4.873   2.549
 9717TIP3    H229093   0.619   4.899   2.556
 9718TIP3   OH229094   2.515   2.356   2.740
 9718TIP3    H129095   2.485   2.266   2.750
 9718TIP3    H229096   2.589   2.349   2.680
 9719TIP3   OH229097   1.877   3.272   3.303
 9719TIP3    H129098   1.850   3.181   3.315
 9719TIP3    H229099   1.797   3.322   3.322
 9720TIP3   OH229100   4.463   1.387   0.927
 9720TIP3    H129101   4.441   1.448   0.997
 9720TIP3    H229102   4.382   1.375   0.879
 9721TIP3   OH229103   6.774   3.554   6.357
 9721TIP3    H129104   6.854   3.554   6.303
 9721TIP3    H229105   6.776   3.639   6.401
 9722TIP3   OH229106   3.595   3.909   4.545
 9722TIP3    H129107   3.589   3.879   4.636
 9722TIP3    H229108   3.663   3.854   4.506
 9723TIP3   OH229109   7.074   1.945   3.190
 9723TIP3    H129110   7.029   1.915   3.269
 9723TIP3    H229111   7.137   1.875   3.170
 9724TIP3   OH229112   7.628   3.042   2.489
 9724TIP3    H129113   7.578   3.019   2.410
 9724TIP3    H229114   7.719   3.026   2.465
 9725TIP3   OH229115   7.271   3.017   5.687
 9725TIP3    H129116   7.231   2.933   5.712
 9725TIP3    H229117   7.198   3.068   5.652
 9726TIP3   OH229118   1.862   5.552   1.266
 9726TIP3    H129119   1.809   5.473   1.254
 9726TIP3    H229120   1.813   5.620   1.220
 9727TIP3   OH229121   5.818   0.168   1.887
 9727TIP3    H129122   5.840   0.201   1.974
 9727TIP3    H229123   5.904   0.150   1.846
 9728TIP3   OH229124   6.876   6.208   5.604
 9728TIP3    H129125   6.881   6.253   5.520
 9728TIP3    H229126   6.908   6.120   5.587
 9729TIP3   OH229127   7.552   2.344   4.256
 9729TIP3    H129128   7.582   2.300   4.335
 9729TIP3    H229129   7.503   2.420   4.288
 9730TIP3   OH229130   6.500   4.486   6.303
 9730TIP3    H129131   6.462   4.510   6.219
 9730TIP3    H229132   6.527   4.570   6.342
 9731TIP3   OH229133   8.249   5.422   3.560
 9731TIP3    H129134   8.246   5.339   3.512
 9731TIP3    H229135   8.267   5.396   3.651
 9732TIP3   OH229136   1.432   5.170   5.168
 9732TIP3    H129137   1.403   5.239   5.109
 9732TIP3    H229138   1.527   5.167   5.158
 9733TIP3   OH229139   4.981   5.736   4.334
 9733TIP3    H129140   5.003   5.794   4.407
 9733TIP3    H229141   4.887   5.748   4.321
 9734TIP3   OH229142   7.498   5.777   2.427
 9734TIP3    H129143   7.485   5.764   2.333
 9734TIP3    H229144   7.429   5.838   2.452
 9735TIP3   OH229145   4.182   5.448   2.114
 9735TIP3    H129146   4.171   5.434   2.209
 9735TIP3    H229147   4.094   5.468   2.083
 9736TIP3   OH229148   4.464   7.247   1.168
 9736TIP3    H129149   4.546   7.297   1.164
 9736TIP3    H229150   4.433   7.259   1.258
 9737TIP3   OH229151   1.347   3.711   6.121
 9737TIP3    H129152   1.309   3.667   6.045
 9737TIP3    H229153   1.282   3.701   6.190
 9738TIP3   OH229154   4.787   7.734   2.888
 9738TIP3    H129155   4.822   7.661   2.837
 9738TIP3    H229156   4.816   7.812   2.840
 9739TIP3   OH229157   4.139   5.389   3.967
 9739TIP3    H129158   4.151   5.299   3.998
 9739TIP3    H229159   4.228   5.421   3.951
 9740TIP3   OH229160   2.087   1.034   4.095
 9740TIP3    H129161   2.139   1.114   4.083
 9740TIP3    H229162   1.997   1.066   4.108
 9741TIP3   OH229163   1.509   5.770   1.430
 9741TIP3    H129164   1.413   5.766   1.421
 9741TIP3    H229165   1.541   5.729   1.349
 9742TIP3   OH229166   1.298   0.304   1.757
 9742TIP3    H129167   1.326   0.319   1.848
 9742TIP3    H229168   1.312   0.211   1.743
 9743TIP3   OH229169   7.905   6.394   0.671
 9743TIP3    H129170   7.843   6.371   0.740
 9743TIP3    H229171   7.903   6.321   0.610
 9744TIP3   OH229172   3.155   6.496   4.775
 9744TIP3    H129173   3.211   6.547   4.833
 9744TIP3    H229174   3.132   6.418   4.827
 9745TIP3   OH229175   6.323   2.414   3.813
 9745TIP3    H129176   6.357   2.504   3.810
 9745TIP3    H229177   6.297   2.396   3.723
 9746TIP3   OH229178   1.774   0.609   3.194
 9746TIP3    H129179   1.769   0.696   3.232
 9746TIP3    H229180   1.684   0.576   3.196
 9747TIP3   OH229181   8.214   7.696   2.459
 9747TIP3    H129182   8.173   7.782   2.459
 9747TIP3    H229183   8.167   7.646   2.392
 9748TIP3   OH229184   2.369   7.339   0.358
 9748TIP3    H129185   2.412   7.264   0.399
 9748TIP3    H229186   2.424   7.414   0.381
 9749TIP3   OH229187   5.301   3.028   2.536
 9749TIP3    H129188   5.392   3.034   2.505
 9749TIP3    H229189   5.255   3.099   2.492
 9750TIP3   OH229190   4.737   0.596   4.188
 9750TIP3    H129191   4.678   0.646   4.131
 9750TIP3    H229192   4.690   0.515   4.206
 9751TIP3   OH229193   2.168   5.439   4.715
 9751TIP3    H129194   2.158   5.436   4.620
 9751TIP3    H229195   2.084   5.408   4.749
 9752TIP3   OH229196   0.925   4.254   2.782
 9752TIP3    H129197   0.934   4.178   2.840
 9752TIP3    H229198   0.881   4.320   2.836
 9753TIP3   OH229199   0.264   2.210   4.461
 9753TIP3    H129200   0.172   2.185   4.475
 9753TIP3    H229201   0.259   2.296   4.418
 9754TIP3   OH229202   2.406   5.643   3.814
 9754TIP3    H129203   2.425   5.555   3.781
 9754TIP3    H229204   2.491   5.675   3.845
 9755TIP3   OH229205   1.979   7.097   0.718
 9755TIP3    H129206   2.032   7.098   0.797
 9755TIP3    H229207   1.909   7.034   0.736
 9756TIP3   OH229208   1.344   5.368   4.250
 9756TIP3    H129209   1.277   5.418   4.296
 9756TIP3    H229210   1.393   5.433   4.200
 9757TIP3   OH229211   4.771   6.598   1.945
 9757TIP3    H129212   4.751   6.553   2.028
 9757TIP3    H229213   4.768   6.529   1.879
 9758TIP3   OH229214   0.192   0.814   2.713
 9758TIP3    H129215   0.115   0.779   2.758
 9758TIP3    H229216   0.234   0.871   2.777
 9759TIP3   OH229217   5.237   0.462   0.395
 9759TIP3    H129218   5.186   0.407   0.455
 9759TIP3    H229219   5.182   0.472   0.318
 9760TIP3   OH229220   0.904   2.463   5.118
 9760TIP3    H129221   0.953   2.491   5.041
 9760TIP3    H229222   0.966   2.470   5.190
 9761TIP3   OH229223   7.765   2.823   2.828
 9761TIP3    H129224   7.685   2.860   2.791
 9761TIP3    H229225   7.734   2.760   2.893
 9762TIP3   OH229226   3.882   0.856   6.275
 9762TIP3    H129227   3.963   0.806   6.275
 9762TIP3    H229228   3.893   0.919   6.204
 9763TIP3   OH229229   2.867   6.713   6.456
 9763TIP3    H129230   2.945   6.763   6.480
 9763TIP3    H229231   2.810   6.776   6.413
 9764TIP3   OH229232   8.302   4.710   2.812
 9764TIP3    H129233   8.274   4.714   2.721
 9764TIP3    H229234   8.222   4.714   2.863
 9765TIP3   OH229235   2.600   4.306   0.116
 9765TIP3    H129236   2.599   4.383   0.059
 9765TIP3    H229237   2.532   4.323   0.181
 9766TIP3   OH229238   8.241   2.940   4.746
 9766TIP3    H129239   8.308   2.879   4.715
 9766TIP3    H229240   8.219   2.908   4.834
 9767TIP3   OH229241   2.311   5.804   4.711
 9767TIP3    H129242   2.376   5.734   4.707
 9767TIP3    H229243   2.360   5.884   4.693
 9768TIP3   OH229244   6.681   0.885   5.385
 9768TIP3    H129245   6.629   0.808   5.407
 9768TIP3    H229246   6.770   0.862   5.409
 9769TIP3   OH229247   2.831   5.355   6.411
 9769TIP3    H129248   2.873   5.385   6.492
 9769TIP3    H229249   2.766   5.422   6.392
 9770TIP3   OH229250   5.763   4.971   4.508
 9770TIP3    H129251   5.762   4.882   4.543
 9770TIP3    H229252   5.856   4.990   4.494
 9771TIP3   OH229253   4.828   5.972   1.961
 9771TIP3    H129254   4.756   6.000   2.016
 9771TIP3    H229255   4.849   6.048   1.907
 9772TIP3   OH229256   2.446   7.266   4.742
 9772TIP3    H129257   2.461   7.294   4.652
 9772TIP3    H229258   2.530   7.281   4.787
 9773TIP3   OH229259   2.227   6.140   0.308
 9773TIP3    H129260   2.310   6.105   0.340
 9773TIP3    H229261   2.183   6.174   0.386
 9774TIP3   OH229262   7.447   7.170   5.720
 9774TIP3    H129263   7.463   7.222   5.799
 9774TIP3    H229264   7.505   7.208   5.654
 9775TIP3   OH229265   7.041   6.699   3.308
 9775TIP3    H129266   7.031   6.610   3.273
 9775TIP3    H229267   7.133   6.721   3.292
 9776TIP3   OH229268   2.401   0.759   6.656
 9776TIP3    H129269   2.465   0.826   6.634
 9776TIP3    H229270   2.447   0.703   6.719
 9777TIP3   OH229271   6.743   7.899   5.357
 9777TIP3    H129272   6.761   7.990   5.332
 9777TIP3    H229273   6.807   7.848   5.307
 9778TIP3   OH229274   5.367   1.564   2.449
 9778TIP3    H129275   5.311   1.553   2.372
 9778TIP3    H229276   5.419   1.484   2.452
 9779TIP3   OH229277   1.304   4.610   2.839
 9779TIP3    H129278   1.273   4.698   2.817
 9779TIP3    H229279   1.225   4.564   2.867
 9780TIP3   OH229280   1.333   1.417   6.468
 9780TIP3    H129281   1.406   1.368   6.430
 9780TIP3    H229282   1.363   1.442   6.555
 9781TIP3   OH229283   0.531   0.898   3.261
 9781TIP3    H129284   0.443   0.899   3.221
 9781TIP3    H229285   0.576   0.972   3.220
 9782TIP3   OH229286   0.315   1.076   4.536
 9782TIP3    H129287   0.366   1.151   4.504
 9782TIP3    H229288   0.320   1.012   4.464
 9783TIP3   OH229289   3.056   7.698   4.744
 9783TIP3    H129290   3.056   7.617   4.693
 9783TIP3    H229291   3.077   7.766   4.680
 9784TIP3   OH229292   0.447   6.939   2.826
 9784TIP3    H129293   0.467   6.871   2.762
 9784TIP3    H229294   0.408   6.893   2.900
 9785TIP3   OH229295   7.975   6.705   1.799
 9785TIP3    H129296   8.051   6.734   1.748
 9785TIP3    H229297   7.951   6.781   1.852
 9786TIP3   OH229298   5.575   3.032   2.450
 9786TIP3    H129299   5.616   3.118   2.446
 9786TIP3    H229300   5.630   2.981   2.509
 9787TIP3   OH229301   0.450   0.466   3.118
 9787TIP3    H129302   0.495   0.510   3.190
 9787TIP3    H229303   0.374   0.424   3.159
 9788TIP3   OH229304   1.575   5.356   1.855
 9788TIP3    H129305   1.669   5.354   1.838
 9788TIP3    H229306   1.559   5.281   1.912
 9789TIP3   OH229307   2.969   0.838   4.967
 9789TIP3    H129308   2.942   0.923   4.933
 9789TIP3    H229309   2.953   0.843   5.062
 9790TIP3   OH229310   6.024   1.469   5.660
 9790TIP3    H129311   6.043   1.393   5.714
 9790TIP3    H229312   5.966   1.435   5.591
 9791TIP3   OH229313   7.008   7.639   6.348
 9791TIP3    H129314   6.971   7.585   6.279
 9791TIP3    H229315   6.996   7.588   6.428
 9792TIP3   OH229316   3.970   3.487   2.394
 9792TIP3    H129317   3.918   3.540   2.333
 9792TIP3    H229318   3.905   3.444   2.450
 9793TIP3   OH229319   0.076   4.515   1.657
 9793TIP3    H129320   0.105   4.424   1.664
 9793TIP3    H229321  -0.018   4.508   1.639
 9794TIP3   OH229322   7.694   6.464   1.572
 9794TIP3    H129323   7.735   6.543   1.537
 9794TIP3    H229324   7.621   6.446   1.512
 9795TIP3   OH229325   0.300   2.404   2.407
 9795TIP3    H129326   0.236   2.475   2.408
 9795TIP3    H229327   0.371   2.434   2.464
 9796TIP3   OH229328   6.110   0.470   4.285
 9796TIP3    H129329   6.061   0.389   4.298
 9796TIP3    H229330   6.194   0.454   4.329
 9797TIP3   OH229331   7.411   6.197   4.524
 9797TIP3    H129332   7.469   6.125   4.547
 9797TIP3    H229333   7.433   6.218   4.433
 9798TIP3   OH229334   4.615   3.342   1.519
 9798TIP3    H129335   4.591   3.409   1.583
 9798TIP3    H229336   4.551   3.272   1.533
 9799TIP3   OH229337   7.557   2.193   3.948
 9799TIP3    H129338   7.584   2.281   3.976
 9799TIP3    H229339   7.590   2.135   4.017
 9800TIP3   OH229340   3.496   5.848   0.435
 9800TIP3    H129341   3.417   5.870   0.483
 9800TIP3    H229342   3.470   5.853   0.343
 9801TIP3   OH229343   4.710  -0.015   2.932
 9801TIP3    H129344   4.615  -0.027   2.937
 9801TIP3    H229345   4.722   0.077   2.910
 9802TIP3   OH229346   6.927   1.617   6.098
 9802TIP3    H129347   6.995   1.648   6.038
 9802TIP3    H229348   6.963   1.537   6.136
 9803TIP3   OH229349   3.832   3.205   3.935
 9803TIP3    H129350   3.844   3.217   4.029
 9803TIP3    H229351   3.848   3.291   3.897
 9804TIP3   OH229352   7.296   2.195   5.368
 9804TIP3    H129353   7.211   2.187   5.412
 9804TIP3    H229354   7.347   2.120   5.399
 9805TIP3   OH229355   5.859   0.054   0.459
 9805TIP3    H129356   5.915   0.062   0.536
 9805TIP3    H229357   5.771   0.069   0.492
 9806TIP3   OH229358   2.278   7.530   1.999
 9806TIP3    H129359   2.302   7.458   2.057
 9806TIP3    H229360   2.264   7.605   2.058
 9807TIP3   OH229361   7.874   2.536   1.836
 9807TIP3    H129362   7.857   2.573   1.749
 9807TIP3    H229363   7.806   2.470   1.847
 9808TIP3   OH229364   3.354   7.054   4.954
 9808TIP3    H129365   3.276   7.082   5.001
 9808TIP3    H229366   3.384   6.976   5.001
 9809TIP3   OH229367   1.070   2.105   3.466
 9809TIP3    H129368   1.031   2.079   3.383
 9809TIP3    H229369   1.161   2.076   3.460
 9810TIP3   OH229370   4.763   1.843   0.180
 9810TIP3    H129371   4.671   1.819   0.185
 9810TIP3    H229372   4.764   1.927   0.135
 9811TIP3   OH229373   3.786   4.374   4.783
 9811TIP3    H129374   3.719   4.336   4.841
 9811TIP3    H229375   3.868   4.335   4.812
 9812TIP3   OH229376   3.458   2.894   6.654
 9812TIP3    H129377   3.485   2.808   6.621
 9812TIP3    H229378   3.369   2.881   6.686
 9813TIP3   OH229379   2.640   2.157   1.181
 9813TIP3    H129380   2.715   2.123   1.132
 9813TIP3    H229381   2.591   2.209   1.117
 9814TIP3   OH229382   3.293   0.177   5.111
 9814TIP3    H129383   3.245   0.190   5.030
 9814TIP3    H229384   3.258   0.243   5.171
 9815TIP3   OH229385   1.502   4.450   6.768
 9815TIP3    H129386   1.469   4.524   6.718
 9815TIP3    H229387   1.464   4.373   6.724
 9816TIP3   OH229388   3.703   0.976   4.447
 9816TIP3    H129389   3.739   0.892   4.418
 9816TIP3    H229390   3.762   1.005   4.516
 9817TIP3   OH229391   2.469   6.948   1.024
 9817TIP3    H129392   2.451   6.913   1.111
 9817TIP3    H229393   2.461   7.043   1.034
 9818TIP3   OH229394   6.799   1.865   2.079
 9818TIP3    H129395   6.737   1.856   2.007
 9818TIP3    H229396   6.849   1.784   2.079
 9819TIP3   OH229397   5.244   6.287   4.714
 9819TIP3    H129398   5.237   6.374   4.674
 9819TIP3    H229399   5.243   6.226   4.640
 9820TIP3   OH229400   5.208   7.715   6.048
 9820TIP3    H129401   5.200   7.727   6.143
 9820TIP3    H229402   5.302   7.704   6.033
 9821TIP3   OH229403   5.563   5.660   2.943
 9821TIP3    H129404   5.527   5.661   2.854
 9821TIP3    H229405   5.654   5.634   2.932
 9822TIP3   OH229406   4.050   0.478   2.355
 9822TIP3    H129407   4.005   0.477   2.270
 9822TIP3    H229408   3.989   0.435   2.415
 9823TIP3   OH229409   6.310   1.520   2.955
 9823TIP3    H129410   6.311   1.612   2.982
 9823TIP3    H229411   6.397   1.505   2.917
 9824TIP3   OH229412   0.304   1.830   6.320
 9824TIP3    H129413   0.279   1.752   6.271
 9824TIP3    H229414   0.279   1.903   6.263
 9825TIP3   OH229415   7.042   3.854   0.033
 9825TIP3    H129416   7.050   3.867   0.127
 9825TIP3    H229417   7.011   3.938  -0.001
 9826TIP3   OH229418   2.806   0.112   3.841
 9826TIP3    H129419   2.765   0.102   3.927
 9826TIP3    H229420   2.877   0.049   3.840
 9827TIP3   OH229421   4.251   0.786   0.301
 9827TIP3    H129422   4.236   0.880   0.297
 9827TIP3    H229423   4.337   0.777   0.343
 9828TIP3   OH229424   2.587   3.904   6.714
 9828TIP3    H129425   2.580   3.998   6.725
 9828TIP3    H229426   2.500   3.877   6.682
 9829TIP3   OH229427   4.015   2.289   6.362
 9829TIP3    H129428   4.096   2.260   6.320
 9829TIP3    H229429   3.999   2.225   6.431
 9830TIP3   OH229430   3.100   3.682   1.471
 9830TIP3    H129431   3.176   3.736   1.450
 9830TIP3    H229432   3.036   3.703   1.403
 9831TIP3   OH229433   7.274   1.470   0.112
 9831TIP3    H129434   7.340   1.407   0.142
 9831TIP3    H229435   7.190   1.427   0.128
 9832TIP3   OH229436   6.156   2.803   6.283
 9832TIP3    H129437   6.091   2.753   6.333
 9832TIP3    H229438   6.179   2.876   6.340
 9833TIP3   OH229439   1.632   1.862   0.986
 9833TIP3    H129440   1.586   1.933   0.942
 9833TIP3    H229441   1.642   1.892   1.076
 9834TIP3   OH229442   1.422   6.365   5.284
 9834TIP3    H129443   1.404   6.453   5.249
 9834TIP3    H229444   1.512   6.371   5.316
 9835TIP3   OH229445   1.486   7.501   0.791
 9835TIP3    H129446   1.412   7.527   0.735
 9835TIP3    H229447   1.558   7.556   0.761
 9836TIP3   OH229448   3.872   5.841   1.370
 9836TIP3    H129449   3.799   5.787   1.399
 9836TIP3    H229450   3.937   5.778   1.338
 9837TIP3   OH229451   7.389   4.510   0.246
 9837TIP3    H129452   7.332   4.580   0.277
 9837TIP3    H229453   7.375   4.439   0.308
 9838TIP3   OH229454   7.395   1.852   0.223
 9838TIP3    H129455   7.454   1.888   0.158
 9838TIP3    H229456   7.316   1.828   0.174
 9839TIP3   OH229457   8.056   2.028   2.578
 9839TIP3    H129458   8.089   1.983   2.656
 9839TIP3    H229459   8.118   2.100   2.563
 9840TIP3   OH229460   0.147   2.049   0.446
 9840TIP3    H129461   0.165   2.024   0.355
 9840TIP3    H229462   0.153   1.967   0.495
 9841TIP3   OH229463   3.962   3.110   1.566
 9841TIP3    H129464   3.994   3.024   1.591
 9841TIP3    H229465   3.868   3.098   1.553
 9842TIP3   OH229466   3.135   4.698   4.624
 9842TIP3    H129467   3.206   4.761   4.635
 9842TIP3    H229468   3.110   4.673   4.713
 9843TIP3   OH229469   0.543   2.789   6.382
 9843TIP3    H129470   0.605   2.717   6.368
 9843TIP3    H229471   0.496   2.765   6.462
 9844TIP3   OH229472   7.769   4.806   2.997
 9844TIP3    H129473   7.733   4.856   3.070
 9844TIP3    H229474   7.739   4.853   2.919
 9845TIP3   OH229475   5.582   1.227   5.980
 9845TIP3    H129476   5.497   1.265   6.002
 9845TIP3    H229477   5.646   1.292   6.010
 9846TIP3   OH229478   0.073   6.178   6.690
 9846TIP3    H129479   0.068   6.216   6.778
 9846TIP3    H229480  -0.018   6.178   6.659
 9847TIP3   OH229481   4.022   3.851   2.603
 9847TIP3    H129482   4.097   3.911   2.598
 9847TIP3    H229483   4.058   3.766   2.578
 9848TIP3   OH229484   0.121   6.016   5.653
 9848TIP3    H129485   0.165   5.997   5.571
 9848TIP3    H229486   0.054   6.081   5.631
 9849TIP3   OH229487   2.448   2.383   5.599
 9849TIP3    H129488   2.468   2.476   5.608
 9849TIP3    H229489   2.376   2.367   5.659
 9850TIP3   OH229490   1.911   5.105   3.551
 9850TIP3    H129491   1.909   5.118   3.456
 9850TIP3    H229492   1.831   5.147   3.583
 9851TIP3   OH229493   7.197   3.824   6.268
 9851TIP3    H129494   7.190   3.852   6.359
 9851TIP3    H229495   7.292   3.819   6.251
 9852TIP3   OH229496   5.614   1.526   2.146
 9852TIP3    H129497   5.681   1.505   2.080
 9852TIP3    H229498   5.542   1.562   2.095
 9853TIP3   OH229499   7.091   4.060   3.044
 9853TIP3    H129500   7.091   4.051   2.949
 9853TIP3    H229501   7.012   4.110   3.064
 9854TIP3   OH229502   3.436   2.898   4.465
 9854TIP3    H129503   3.467   2.960   4.399
 9854TIP3    H229504   3.505   2.830   4.467
 9855TIP3   OH229505   3.383   3.996   2.072
 9855TIP3    H129506   3.453   3.936   2.046
 9855TIP3    H229507   3.373   3.982   2.166
 9856TIP3   OH229508   6.380   3.252   6.170
 9856TIP3    H129509   6.286   3.268   6.166
 9856TIP3    H229510   6.409   3.259   6.079
 9857TIP3   OH229511   2.691   5.619   0.854
 9857TIP3    H129512   2.704   5.578   0.939
 9857TIP3    H229513   2.602   5.596   0.829
 9858TIP3   OH229514  -0.033   6.036   4.838
 9858TIP3    H129515   0.032   5.979   4.881
 9858TIP3    H229516   0.018   6.085   4.774
 9859TIP3   OH229517   7.778   0.827   1.638
 9859TIP3    H129518   7.813   0.785   1.717
 9859TIP3    H229519   7.833   0.792   1.567
 9860TIP3   OH229520   2.928   6.532   0.365
 9860TIP3    H129521   3.015   6.558   0.394
 9860TIP3    H229522   2.933   6.533   0.269
 9861TIP3   OH229523   2.679   0.066   1.299
 9861TIP3    H129524   2.628   0.119   1.360
 9861TIP3    H229525   2.630  -0.016   1.292
 9862TIP3   OH229526   3.336   2.259   1.734
 9862TIP3    H129527   3.243   2.274   1.716
 9862TIP3    H229528   3.350   2.302   1.818
 9863TIP3   OH229529   1.144   3.536   0.416
 9863TIP3    H129530   1.206   3.463   0.424
 9863TIP3    H229531   1.076   3.516   0.481
 9864TIP3   OH229532   2.006   6.908   4.503
 9864TIP3    H129533   1.986   6.955   4.584
 9864TIP3    H229534   2.101   6.895   4.506
 9865TIP3   OH229535   6.910   7.036   2.613
 9865TIP3    H129536   6.817   7.058   2.609
 9865TIP3    H229537   6.954   7.107   2.565
 9866TIP3   OH229538   3.231   0.866   2.374
 9866TIP3    H129539   3.284   0.849   2.297
 9866TIP3    H229540   3.221   0.961   2.376
 9867TIP3   OH229541   6.864   0.988   3.894
 9867TIP3    H129542   6.879   0.903   3.935
 9867TIP3    H229543   6.815   1.038   3.959
 9868TIP3   OH229544   1.289   7.471   5.549
 9868TIP3    H129545   1.344   7.392   5.543
 9868TIP3    H229546   1.202   7.438   5.571
 9869TIP3   OH229547   5.274   0.628   3.609
 9869TIP3    H129548   5.333   0.603   3.538
 9869TIP3    H229549   5.332   0.642   3.684
 9870TIP3   OH229550   6.876   4.816   4.545
 9870TIP3    H129551   6.794   4.866   4.551
 9870TIP3    H229552   6.869   4.769   4.462
 9871TIP3   OH229553   5.166   4.198   5.088
 9871TIP3    H129554   5.258   4.176   5.071
 9871TIP3    H229555   5.126   4.114   5.109
 9872TIP3   OH229556   2.655   6.341   3.731
 9872TIP3    H129557   2.585   6.399   3.701
 9872TIP3    H229558   2.630   6.317   3.820
 9873TIP3   OH229559   1.061   5.149   6.507
 9873TIP3    H129560   1.021   5.216   6.451
 9873TIP3    H229561   1.091   5.197   6.584
 9874TIP3   OH229562   1.061   6.488   0.543
 9874TIP3    H129563   1.026   6.576   0.526
 9874TIP3    H229564   1.139   6.482   0.489
 9875TIP3   OH229565   3.949   3.906   2.873
 9875TIP3    H129566   4.042   3.926   2.874
 9875TIP3    H229567   3.930   3.880   2.783
 9876TIP3   OH229568   4.443   6.961   4.036
 9876TIP3    H129569   4.486   7.037   3.998
 9876TIP3    H229570   4.437   6.982   4.130
 9877TIP3   OH229571   3.360   0.902   2.947
 9877TIP3    H129572   3.384   0.863   2.862
 9877TIP3    H229573   3.265   0.903   2.946
 9878TIP3   OH229574   1.944   5.942   3.273
 9878TIP3    H129575   1.970   5.999   3.201
 9878TIP3    H229576   1.910   6.002   3.340
 9879TIP3   OH229577   2.388   3.336   2.251
 9879TIP3    H129578   2.313   3.281   2.273
 9879TIP3    H229579   2.399   3.393   2.327
 9880TIP3   OH229580   5.506   1.269   3.755
 9880TIP3    H129581   5.496   1.182   3.717
 9880TIP3    H229582   5.539   1.253   3.844
 9881TIP3   OH229583   6.826   3.298   6.483
 9881TIP3    H129584   6.817   3.393   6.486
 9881TIP3    H229585   6.769   3.271   6.411
 9882TIP3   OH229586   7.623  -0.003   2.671
 9882TIP3    H129587   7.531  -0.022   2.690
 9882TIP3    H229588   7.622   0.041   2.586
 9883TIP3   OH229589   1.511   7.155   4.112
 9883TIP3    H129590   1.606   7.140   4.111
 9883TIP3    H229591   1.481   7.107   4.190
 9884TIP3   OH229592   6.621   5.368   5.960
 9884TIP3    H129593   6.633   5.278   5.929
 9884TIP3    H229594   6.708   5.407   5.955
 9885TIP3   OH229595   7.607   2.597   5.076
 9885TIP3    H129596   7.612   2.549   5.159
 9885TIP3    H229597   7.553   2.541   5.020
 9886TIP3   OH229598   3.290   3.463   0.041
 9886TIP3    H129599   3.385   3.464   0.040
 9886TIP3    H229600   3.264   3.551   0.014
 9887TIP3   OH229601   6.426   1.267   3.487
 9887TIP3    H129602   6.507   1.316   3.475
 9887TIP3    H229603   6.360   1.334   3.504
 9888TIP3   OH229604   4.745   7.334   3.793
 9888TIP3    H129605   4.790   7.385   3.725
 9888TIP3    H229606   4.692   7.399   3.840
 9889TIP3   OH229607   2.116   1.930   0.155
 9889TIP3    H129608   2.206   1.897   0.164
 9889TIP3    H229609   2.086   1.942   0.245
 9890TIP3   OH229610   0.911   4.480   4.961
 9890TIP3    H129611   0.977   4.511   4.899
 9890TIP3    H229612   0.843   4.441   4.905
 9891TIP3   OH229613   7.145   1.183   0.398
 9891TIP3    H129614   7.230   1.214   0.430
 9891TIP3    H229615   7.143   1.091   0.422
 9892TIP3   OH229616   4.729   3.359   4.684
 9892TIP3    H129617   4.763   3.409   4.610
 9892TIP3    H229618   4.785   3.383   4.758
 9893TIP3   OH229619   3.458   4.250   1.092
 9893TIP3    H129620   3.513   4.184   1.049
 9893TIP3    H229621   3.468   4.329   1.039
 9894TIP3   OH229622   2.746   6.465   2.138
 9894TIP3    H129623   2.828   6.437   2.097
 9894TIP3    H229624   2.685   6.394   2.121
 9895TIP3   OH229625   5.942   5.026   5.667
 9895TIP3    H129626   5.888   5.042   5.590
 9895TIP3    H229627   5.916   5.093   5.730
 9896TIP3   OH229628   0.506   6.424   2.488
 9896TIP3    H129629   0.449   6.501   2.486
 9896TIP3    H229630   0.459   6.361   2.542
 9897TIP3   OH229631   3.855   5.738   4.162
 9897TIP3    H129632   3.853   5.775   4.251
 9897TIP3    H229633   3.947   5.719   4.146
 9898TIP3   OH229634   8.353   5.970   3.837
 9898TIP3    H129635   8.289   6.033   3.870
 9898TIP3    H229636   8.304   5.916   3.775
 9899TIP3   OH229637   4.983   2.949   0.920
 9899TIP3    H129638   5.048   2.932   0.852
 9899TIP3    H229639   5.034   2.967   0.999
 9900TIP3   OH229640   2.990   5.855   4.299
 9900TIP3    H129641   2.963   5.946   4.303
 9900TIP3    H229642   2.921   5.811   4.250
 9901TIP3   OH229643   1.980   6.105   1.003
 9901TIP3    H129644   1.921   6.171   0.966
 9901TIP3    H229645   1.964   6.027   0.951
 9902TIP3   OH229646   8.295   6.165   5.541
 9902TIP3    H129647   8.353   6.207   5.477
 9902TIP3    H229648   8.237   6.110   5.488
 9903TIP3   OH229649   0.094   4.001   5.780
 9903TIP3    H129650   0.153   3.973   5.710
 9903TIP3    H229651   0.032   3.929   5.789
 9904TIP3   OH229652   2.896   0.589   0.766
 9904TIP3    H129653   2.956   0.662   0.749
 9904TIP3    H229654   2.811   0.630   0.780
 9905TIP3   OH229655   2.783   0.647   6.435
 9905TIP3    H129656   2.851   0.607   6.381
 9905TIP3    H229657   2.761   0.580   6.499
 9906TIP3   OH229658   3.400   4.928   5.797
 9906TIP3    H129659   3.489   4.896   5.780
 9906TIP3    H229660   3.395   4.937   5.892
 9907TIP3   OH229661   2.999   1.687   4.833
 9907TIP3    H129662   2.942   1.670   4.759
 9907TIP3    H229663   3.078   1.637   4.815
 9908TIP3   OH229664   8.155   1.271   1.177
 9908TIP3    H129665   8.164   1.268   1.082
 9908TIP3    H229666   8.102   1.349   1.194
 9909TIP3   OH229667   0.943   3.085   2.482
 9909TIP3    H129668   0.911   3.010   2.532
 9909TIP3    H229669   1.038   3.071   2.476
 9910TIP3   OH229670   4.317   5.759   2.021
 9910TIP3    H129671   4.389   5.764   2.084
 9910TIP3    H229672   4.239   5.785   2.070
 9911TIP3   OH229673   0.779   6.556   6.003
 9911TIP3    H129674   0.803   6.591   5.917
 9911TIP3    H229675   0.710   6.492   5.984
 9912TIP3   OH229676   4.477   7.942   3.377
 9912TIP3    H129677   4.410   7.877   3.354
 9912TIP3    H229678   4.560   7.899   3.360
 9913TIP3   OH229679   4.911   0.116   5.392
 9913TIP3    H129680   4.860   0.064   5.453
 9913TIP3    H229681   4.846   0.167   5.343
 9914TIP3   OH229682   1.378   6.168   0.805
 9914TIP3    H129683   1.403   6.235   0.741
 9914TIP3    H229684   1.282   6.169   0.803
 9915TIP3   OH229685   3.107   0.325   2.360
 9915TIP3    H129686   3.137   0.416   2.352
 9915TIP3    H229687   3.142   0.296   2.445
 9916TIP3   OH229688   1.248   6.467   3.723
 9916TIP3    H129689   1.173   6.413   3.747
 9916TIP3    H229690   1.319   6.404   3.711
 9917TIP3   OH229691   4.481   2.012   1.601
 9917TIP3    H129692   4.434   2.095   1.602
 9917TIP3    H229693   4.499   1.992   1.693
 9918TIP3   OH229694   3.539   7.220   3.765
 9918TIP3    H129695   3.588   7.297   3.739
 9918TIP3    H229696   3.451   7.235   3.731
 9919TIP3   OH229697   2.489   3.561   2.916
 9919TIP3    H129698   2.518   3.470   2.915
 9919TIP3    H229699   2.428   3.567   2.990
 9920TIP3   OH229700   2.596   1.717   5.487
 9920TIP3    H129701   2.659   1.767   5.435
 9920TIP3    H229702   2.594   1.761   5.571
 9921TIP3   OH229703   1.698   1.842   4.682
 9921TIP3    H129704   1.729   1.930   4.704
 9921TIP3    H229705   1.623   1.828   4.740
 9922TIP3   OH229706   5.958   3.975   3.996
 9922TIP3    H129707   5.900   3.934   4.060
 9922TIP3    H229708   6.010   3.902   3.961
 9923TIP3   OH229709   5.774   2.235   1.466
 9923TIP3    H129710   5.705   2.212   1.529
 9923TIP3    H229711   5.729   2.237   1.382
 9924TIP3   OH229712   5.721   4.914   6.403
 9924TIP3    H129713   5.796   4.965   6.372
 9924TIP3    H229714   5.655   4.923   6.335
 9925TIP3   OH229715   6.630   6.381   6.816
 9925TIP3    H129716   6.630   6.320   6.889
 9925TIP3    H229717   6.705   6.438   6.832
 9926TIP3   OH229718   5.349   0.325   4.454
 9926TIP3    H129719   5.404   0.302   4.529
 9926TIP3    H229720   5.346   0.420   4.455
 9927TIP3   OH229721   2.416   6.781   5.241
 9927TIP3    H129722   2.370   6.741   5.167
 9927TIP3    H229723   2.442   6.868   5.209
 9928TIP3   OH229724   0.852   4.044   4.183
 9928TIP3    H129725   0.765   4.061   4.146
 9928TIP3    H229726   0.894   4.130   4.186
 9929TIP3   OH229727   4.255   0.603   2.913
 9929TIP3    H129728   4.270   0.650   2.995
 9929TIP3    H229729   4.259   0.510   2.938
 9930TIP3   OH229730   5.749   2.325   4.016
 9930TIP3    H129731   5.701   2.290   3.940
 9930TIP3    H229732   5.775   2.247   4.065
 9931TIP3   OH229733   6.760   1.467   0.534
 9931TIP3    H129734   6.800   1.553   0.520
 9931TIP3    H229735   6.834   1.407   0.538
 9932TIP3   OH229736   8.134   0.955   5.539
 9932TIP3    H129737   8.139   0.950   5.634
 9932TIP3    H229738   8.225   0.947   5.510
 9933TIP3   OH229739   4.598   0.197   5.301
 9933TIP3    H129740   4.542   0.230   5.231
 9933TIP3    H229741   4.599   0.102   5.289
 9934TIP3   OH229742   6.007   2.691   5.424
 9934TIP3    H129743   6.075   2.633   5.389
 9934TIP3    H229744   5.936   2.632   5.450
 9935TIP3   OH229745   1.796   5.320   0.779
 9935TIP3    H129746   1.882   5.280   0.767
 9935TIP3    H229747   1.736   5.246   0.787
 9936TIP3   OH229748   0.737   4.151   3.194
 9936TIP3    H129749   0.786   4.229   3.168
 9936TIP3    H229750   0.646   4.179   3.194
 9937TIP3   OH229751   5.714   6.794   5.041
 9937TIP3    H129752   5.693   6.871   5.094
 9937TIP3    H229753   5.670   6.721   5.086
 9938TIP3   OH229754   2.947   5.884   6.152
 9938TIP3    H129755   2.969   5.811   6.093
 9938TIP3    H229756   2.884   5.846   6.213
 9939TIP3   OH229757   2.448   0.105   3.783
 9939TIP3    H129758   2.399   0.112   3.865
 9939TIP3    H229759   2.515   0.039   3.799
 9940TIP3   OH229760   0.351   1.650   0.333
 9940TIP3    H129761   0.388   1.607   0.409
 9940TIP3    H229762   0.425   1.695   0.292
 9941TIP3   OH229763   2.305   0.323   4.607
 9941TIP3    H129764   2.358   0.318   4.527
 9941TIP3    H229765   2.335   0.250   4.660
 9942TIP3   OH229766   3.427   0.539   2.504
 9942TIP3    H129767   3.396   0.628   2.487
 9942TIP3    H229768   3.386   0.515   2.587
 9943TIP3   OH229769   4.063   6.178   0.591
 9943TIP3    H129770   4.130   6.124   0.550
 9943TIP3    H229771   3.988   6.172   0.532
 9944TIP3   OH229772   7.649   0.657   5.193
 9944TIP3    H129773   7.678   0.685   5.279
 9944TIP3    H229774   7.606   0.733   5.156
 9945TIP3   OH229775   8.213   2.565   6.253
 9945TIP3    H129776   8.150   2.588   6.322
 9945TIP3    H229777   8.258   2.487   6.286
 9946TIP3   OH229778   4.364   2.295   3.826
 9946TIP3    H129779   4.395   2.368   3.879
 9946TIP3    H229780   4.390   2.317   3.737
 9947TIP3   OH229781   1.737   4.736   1.359
 9947TIP3    H129782   1.774   4.798   1.297
 9947TIP3    H229783   1.649   4.770   1.377
 9948TIP3   OH229784   6.519   0.594   2.131
 9948TIP3    H129785   6.589   0.556   2.185
 9948TIP3    H229786   6.457   0.523   2.119
 9949TIP3   OH229787   4.065   6.544   5.945
 9949TIP3    H129788   4.036   6.564   5.856
 9949TIP3    H229789   4.106   6.625   5.975
 9950TIP3   OH229790   3.049   5.758   2.894
 9950TIP3    H129791   3.052   5.853   2.888
 9950TIP3    H229792   2.991   5.741   2.968
 9951TIP3   OH229793   5.582   2.251   1.258
 9951TIP3    H129794   5.528   2.176   1.230
 9951TIP3    H229795   5.554   2.323   1.202
 9952TIP3   OH229796   4.578   7.343   2.620
 9952TIP3    H129797   4.513   7.351   2.550
 9952TIP3    H229798   4.558   7.416   2.679
 9953TIP3   OH229799   0.318   3.125   5.250
 9953TIP3    H129800   0.253   3.058   5.274
 9953TIP3    H229801   0.265   3.197   5.214
 9954TIP3   OH229802   7.741   3.841   5.417
 9954TIP3    H129803   7.739   3.923   5.368
 9954TIP3    H229804   7.664   3.845   5.474
 9955TIP3   OH229805   0.429   5.164   4.437
 9955TIP3    H129806   0.421   5.247   4.484
 9955TIP3    H229807   0.339   5.134   4.426
 9956TIP3   OH229808   3.058   1.715   2.244
 9956TIP3    H129809   3.128   1.653   2.225
 9956TIP3    H229810   3.007   1.718   2.163
 9957TIP3   OH229811   7.886   2.973   3.963
 9957TIP3    H129812   7.975   2.939   3.969
 9957TIP3    H229813   7.857   2.947   3.875
 9958TIP3   OH229814   6.361   3.532   0.416
 9958TIP3    H129815   6.391   3.447   0.450
 9958TIP3    H229816   6.378   3.594   0.487
 9959TIP3   OH229817   4.166   3.296   4.116
 9959TIP3    H129818   4.210   3.212   4.124
 9959TIP3    H229819   4.111   3.287   4.038
 9960TIP3   OH229820   0.731   3.254   4.976
 9960TIP3    H129821   0.689   3.211   5.050
 9960TIP3    H229822   0.818   3.214   4.971
 9961TIP3   OH229823   7.803   1.765  -0.012
 9961TIP3    H129824   7.854   1.754   0.069
 9961TIP3    H229825   7.733   1.700  -0.005
 9962TIP3   OH229826   6.987   4.365   0.247
 9962TIP3    H129827   7.053   4.428   0.274
 9962TIP3    H229828   7.000   4.355   0.152
 9963TIP3   OH229829   2.967   2.619   6.151
 9963TIP3    H129830   2.873   2.600   6.153
 9963TIP3    H229831   2.983   2.649   6.061
 9964TIP3   OH229832   4.116   0.853   3.496
 9964TIP3    H129833   4.073   0.813   3.420
 9964TIP3    H229834   4.100   0.947   3.487
 9965TIP3   OH229835   5.414   5.885   3.937
 9965TIP3    H129836   5.442   5.820   3.873
 9965TIP3    H229837   5.495   5.917   3.976
 9966TIP3   OH229838   8.013   5.822   5.576
 9966TIP3    H129839   8.077   5.849   5.511
 9966TIP3    H229840   8.050   5.848   5.660
 9967TIP3   OH229841   5.127   6.286   0.380
 9967TIP3    H129842   5.055   6.239   0.423
 9967TIP3    H229843   5.196   6.289   0.446
 9968TIP3   OH229844   2.196   5.067   4.592
 9968TIP3    H129845   2.116   5.054   4.642
 9968TIP3    H229846   2.264   5.022   4.642
 9969TIP3   OH229847   0.229   1.963   0.193
 9969TIP3    H129848   0.312   2.005   0.172
 9969TIP3    H229849   0.238   1.874   0.160
 9970TIP3   OH229850   0.143   0.232   4.945
 9970TIP3    H129851   0.205   0.188   4.886
 9970TIP3    H229852   0.120   0.313   4.898
 9971TIP3   OH229853   6.673   2.206   1.927
 9971TIP3    H129854   6.767   2.216   1.914
 9971TIP3    H229855   6.653   2.264   2.000
 9972TIP3   OH229856   4.008   1.038   3.011
 9972TIP3    H129857   4.082   1.044   2.951
 9972TIP3    H229858   4.032   1.095   3.084
 9973TIP3   OH229859   7.969   0.598   0.585
 9973TIP3    H129860   8.054   0.557   0.600
 9973TIP3    H229861   7.950   0.578   0.493
 9974TIP3   OH229862   7.248   4.227   6.529
 9974TIP3    H129863   7.263   4.136   6.503
 9974TIP3    H229864   7.335   4.261   6.550
 9975TIP3   OH229865   0.054   2.408   4.894
 9975TIP3    H129866   0.070   2.460   4.972
 9975TIP3    H229867  -0.033   2.371   4.907
 9976TIP3   OH229868   3.201   1.041   5.253
 9976TIP3    H129869   3.272   1.050   5.317
 9976TIP3    H229870   3.218   1.110   5.188
 9977TIP3   OH229871   1.949   1.536   0.034
 9977TIP3    H129872   1.935   1.626   0.004
 9977TIP3    H229873   2.038   1.516   0.005
 9978TIP3   OH229874   7.041   6.089   4.004
 9978TIP3    H129875   6.980   6.128   4.066
 9978TIP3    H229876   6.986   6.034   3.948
 9979TIP3   OH229877   7.858   2.689   2.568
 9979TIP3    H129878   7.829   2.724   2.652
 9979TIP3    H229879   7.778   2.656   2.527
 9980TIP3   OH229880   1.495   6.524   0.848
 9980TIP3    H129881   1.522   6.545   0.759
 9980TIP3    H229882   1.436   6.450   0.839
 9981TIP3   OH229883   7.801   5.720   6.480
 9981TIP3    H129884   7.861   5.700   6.552
 9981TIP3    H229885   7.821   5.654   6.414
 9982TIP3   OH229886   4.845   6.019   2.811
 9982TIP3    H129887   4.858   5.925   2.801
 9982TIP3    H229888   4.777   6.041   2.748
 9983TIP3   OH229889   8.086   6.933   1.005
 9983TIP3    H129890   8.120   7.013   0.965
 9983TIP3    H229891   8.073   6.872   0.932
 9984TIP3   OH229892   3.645   6.919   2.849
 9984TIP3    H129893   3.614   6.945   2.762
 9984TIP3    H229894   3.643   6.824   2.847
 9985TIP3   OH229895   6.301   3.608   0.145
 9985TIP3    H129896   6.322   3.589   0.237
 9985TIP3    H229897   6.232   3.673   0.149
 9986TIP3   OH229898   6.092   0.423   1.976
 9986TIP3    H129899   6.047   0.348   2.016
 9986TIP3    H229900   6.177   0.426   2.021
 9987TIP3   OH229901   6.459   4.174   0.463
 9987TIP3    H129902   6.480   4.197   0.373
 9987TIP3    H229903   6.528   4.113   0.490
 9988TIP3   OH229904   2.854   3.837   5.606
 9988TIP3    H129905   2.788   3.848   5.675
 9988TIP3    H229906   2.852   3.744   5.585
 9989TIP3   OH229907   3.038   7.131   6.250
 9989TIP3    H129908   2.981   7.145   6.174
 9989TIP3    H229909   2.989   7.167   6.324
 9990TIP3   OH229910   6.819   0.030   1.521
 9990TIP3    H129911   6.807   0.013   1.614
 9990TIP3    H229912   6.839   0.124   1.516
 9991TIP3   OH229913   6.246   1.742   4.849
 9991TIP3    H129914   6.320   1.757   4.789
 9991TIP3    H229915   6.288   1.713   4.930
 9992TIP3   OH229916   2.436   0.621   4.764
 9992TIP3    H129917   2.381   0.680   4.713
 9992TIP3    H229918   2.376   0.553   4.795
 9993TIP3   OH229919   4.227   1.278   6.835
 9993TIP3    H129920   4.184   1.363   6.842
 9993TIP3    H229921   4.157   1.214   6.845
 9994TIP3   OH229922   1.300   2.697   0.402
 9994TIP3    H129923   1.366   2.766   0.393
 9994TIP3    H229924   1.297   2.655   0.316
 9995TIP3   OH229925   2.046   7.674   0.436
 9995TIP3    H129926   2.027   7.763   0.407
 9995TIP3    H229927   1.961   7.631   0.442
 9996TIP3   OH229928   7.164   0.794   3.364
 9996TIP3    H129929   7.068   0.799   3.370
 9996TIP3    H229930   7.195   0.880   3.393
 9997TIP3   OH229931   5.463   0.353   6.143
 9997TIP3    H129932   5.445   0.272   6.095
 9997TIP3    H229933   5.380   0.376   6.184
 9998TIP3   OH229934   3.109   5.324   1.770
 9998TIP3    H129935   3.106   5.378   1.691
 9998TIP3    H229936   3.185   5.357   1.818
 9999TIP3   OH229937   1.530   4.952   1.225
 9999TIP3    H129938   1.526   4.882   1.160
 9999TIP3    H229939   1.559   5.029   1.176
10000TIP3   OH229940   6.685   5.061   4.876
10000TIP3    H129941   6.647   5.137   4.921
10000TIP3    H229942   6.697   4.996   4.946
10001TIP3   OH229943   4.506   4.765   2.061
10001TIP3    H129944   4.537   4.852   2.086
10001TIP3    H229945   4.577   4.706   2.086
10002TIP3   OH229946   6.164   7.559   5.144
10002TIP3    H129947   6.197   7.514   5.066
10002TIP3    H229948   6.170   7.652   5.123
10003TIP3   OH229949   1.921   7.945   2.202
10003TIP3    H129950   1.959   7.870   2.158
10003TIP3    H229951   1.933   7.928   2.295
10004TIP3   OH229952   1.252   3.377   5.725
10004TIP3    H129953   1.345   3.368   5.703
10004TIP3    H229954   1.215   3.428   5.653
10005TIP3   OH229955   3.381   0.639   3.183
10005TIP3    H129956   3.387   0.699   3.257
10005TIP3    H229957   3.447   0.571   3.201
10006TIP3   OH229958   3.025   1.380   5.183
10006TIP3    H129959   3.011   1.291   5.216
10006TIP3    H229960   2.996   1.437   5.255
10007TIP3   OH229961   2.892   3.571   5.441
10007TIP3    H129962   2.874   3.481   5.414
10007TIP3    H229963   2.938   3.562   5.525
10008TIP3   OH229964   0.069   5.493   0.293
10008TIP3    H129965   0.035   5.406   0.271
10008TIP3    H229966   0.129   5.477   0.366
10009TIP3   OH229967   2.133   2.446   3.040
10009TIP3    H129968   2.152   2.427   3.132
10009TIP3    H229969   2.219   2.469   3.003
10010TIP3   OH229970   1.990   2.420   0.081
10010TIP3    H129971   2.006   2.373   0.000
10010TIP3    H229972   2.005   2.355   0.150
10011TIP3   OH229973   3.552   6.112   0.833
10011TIP3    H129974   3.643   6.135   0.813
10011TIP3    H229975   3.516   6.190   0.876
10012TIP3   OH229976   6.355   3.218   3.556
10012TIP3    H129977   6.402   3.272   3.620
10012TIP3    H229978   6.309   3.152   3.608
10013TIP3   OH229979   6.715   1.323   6.630
10013TIP3    H129980   6.767   1.259   6.678
10013TIP3    H229981   6.711   1.288   6.541
10014TIP3   OH229982   3.258   6.394   1.282
10014TIP3    H129983   3.295   6.475   1.248
10014TIP3    H229984   3.218   6.351   1.206
10015TIP3   OH229985   0.136   6.691   4.933
10015TIP3    H129986   0.092   6.722   4.854
10015TIP3    H229987   0.227   6.717   4.921
10016TIP3   OH229988   3.631   1.365   0.792
10016TIP3    H129989   3.703   1.326   0.841
10016TIP3    H229990   3.599   1.295   0.736
10017TIP3   OH229991   2.776   6.283   6.628
10017TIP3    H129992   2.819   6.351   6.576
10017TIP3    H229993   2.684   6.308   6.630
10018TIP3   OH229994   7.689   4.362   1.945
10018TIP3    H129995   7.604   4.373   1.901
10018TIP3    H229996   7.667   4.349   2.037
10019TIP3   OH229997   6.921   3.886   4.496
10019TIP3    H129998   6.940   3.944   4.570
10019TIP3    H229999   6.826   3.884   4.491
10020TIP3   OH230000   2.340   5.702   0.549
10020TIP3    H130001   2.356   5.671   0.638
10020TIP3    H230002   2.428   5.713   0.512
10021TIP3   OH230003   3.634   6.690   1.448
10021TIP3    H130004   3.590   6.772   1.428
10021TIP3    H230005   3.562   6.627   1.461
10022TIP3   OH230006   5.525   0.106   1.857
10022TIP3    H130007   5.538   0.074   1.768
10022TIP3    H230008   5.574   0.188   1.860
10023TIP3   OH230009   3.804   7.497   3.476
10023TIP3    H130010   3.713   7.517   3.455
10023TIP3    H230011   3.799   7.418   3.530
10024TIP3   OH230012   5.845   5.489   4.541
10024TIP3    H130013   5.783   5.418   4.525
10024TIP3    H230014   5.799   5.548   4.600
10025TIP3   OH230015   3.593   3.161   5.588
10025TIP3    H130016   3.529   3.231   5.599
10025TIP3    H230017   3.557   3.106   5.518
10026TIP3   OH230018   4.384   1.306   2.512
10026TIP3    H130019   4.344   1.223   2.489
10026TIP3    H230020   4.440   1.328   2.437
10027TIP3   OH230021   2.356   5.428   5.661
10027TIP3    H130022   2.398   5.513   5.675
10027TIP3    H230023   2.310   5.438   5.577
10028TIP3   OH230024   4.093   4.358   1.773
10028TIP3    H130025   4.134   4.358   1.859
10028TIP3    H230026   4.130   4.282   1.729
10029TIP3   OH230027   3.695   3.888   0.521
10029TIP3    H130028   3.636   3.818   0.494
10029TIP3    H230029   3.727   3.927   0.439
10030TIP3   OH230030   3.958   6.796   5.109
10030TIP3    H130031   3.944   6.707   5.077
10030TIP3    H230032   3.939   6.791   5.203
10031TIP3   OH230033   5.907   7.682   0.818
10031TIP3    H130034   5.965   7.748   0.856
10031TIP3    H230035   5.831   7.731   0.788
10032TIP3   OH230036   5.844   3.242   2.175
10032TIP3    H130037   5.849   3.164   2.230
10032TIP3    H230038   5.771   3.293   2.212
10033TIP3   OH230039   7.564   3.188   1.034
10033TIP3    H130040   7.651   3.215   1.005
10033TIP3    H230041   7.553   3.229   1.120
10034TIP3   OH230042   0.572   2.716   2.819
10034TIP3    H130043   0.488   2.721   2.864
10034TIP3    H230044   0.577   2.797   2.769
10035TIP3   OH230045   4.481   2.800   3.206
10035TIP3    H130046   4.487   2.750   3.124
10035TIP3    H230047   4.569   2.792   3.245
10036TIP3   OH230048   2.070   4.324   6.371
10036TIP3    H130049   2.085   4.378   6.293
10036TIP3    H230050   2.116   4.242   6.351
10037TIP3   OH230051   7.885   2.530   2.957
10037TIP3    H130052   7.870   2.469   2.885
10037TIP3    H230053   7.837   2.494   3.031
10038TIP3   OH230054   2.891   2.966   1.894
10038TIP3    H130055   2.857   2.919   1.818
10038TIP3    H230056   2.986   2.957   1.888
10039TIP3   OH230057   1.783   6.878   0.627
10039TIP3    H130058   1.837   6.800   0.637
10039TIP3    H230059   1.767   6.885   0.533
10040TIP3   OH230060   6.561   0.123   2.815
10040TIP3    H130061   6.560   0.133   2.910
10040TIP3    H230062   6.628   0.057   2.798
10041TIP3   OH230063   7.645   7.212   6.662
10041TIP3    H130064   7.589   7.189   6.736
10041TIP3    H230065   7.585   7.251   6.598
10042TIP3   OH230066   5.704   6.040   3.991
10042TIP3    H130067   5.692   6.100   3.917
10042TIP3    H230068   5.720   6.098   4.066
10043TIP3   OH230069   1.540   7.901   4.411
10043TIP3    H130070   1.506   7.858   4.333
10043TIP3    H230071   1.465   7.909   4.469
10044TIP3   OH230072   5.816   6.307   0.223
10044TIP3    H130073   5.891   6.273   0.174
10044TIP3    H230074   5.742   6.254   0.194
10045TIP3   OH230075   7.089   6.862   6.829
10045TIP3    H130076   7.123   6.773   6.825
10045TIP3    H230077   7.167   6.918   6.824
10046TIP3   OH230078   8.377   4.459   6.081
10046TIP3    H130079   8.391   4.543   6.038
10046TIP3    H230080   8.346   4.481   6.169
10047TIP3   OH230081   7.533   5.156   0.568
10047TIP3    H130082   7.605   5.096   0.590
10047TIP3    H230083   7.569   5.212   0.499
10048TIP3   OH230084   1.127   3.710   6.276
10048TIP3    H130085   1.119   3.669   6.362
10048TIP3    H230086   1.123   3.804   6.294
10049TIP3   OH230087   3.719   4.107   0.668
10049TIP3    H130088   3.720   4.023   0.623
10049TIP3    H230089   3.681   4.168   0.606
10050TIP3   OH230090   3.085   6.203   4.572
10050TIP3    H130091   3.131   6.212   4.488
10050TIP3    H230092   2.993   6.191   4.547
10051TIP3   OH230093   3.415   5.359   3.445
10051TIP3    H130094   3.459   5.349   3.530
10051TIP3    H230095   3.392   5.270   3.419
10052TIP3   OH230096   0.338   6.228   2.611
10052TIP3    H130097   0.252   6.268   2.628
10052TIP3    H230098   0.319   6.135   2.602
10053TIP3   OH230099   2.685   2.887   2.674
10053TIP3    H130100   2.677   2.792   2.681
10053TIP3    H230101   2.669   2.920   2.763
10054TIP3   OH230102   2.322   3.984   1.972
10054TIP3    H130103   2.286   4.033   2.046
10054TIP3    H230104   2.246   3.956   1.922
10055TIP3   OH230105   5.447   5.998   0.378
10055TIP3    H130106   5.439   5.929   0.313
10055TIP3    H230107   5.482   6.073   0.329
10056TIP3   OH230108   3.921   1.272   5.853
10056TIP3    H130109   4.000   1.272   5.799
10056TIP3    H230110   3.860   1.217   5.805
10057TIP3   OH230111   6.842   4.366   2.470
10057TIP3    H130112   6.807   4.363   2.559
10057TIP3    H230113   6.885   4.281   2.458
10058TIP3   OH230114   2.883   6.250   0.825
10058TIP3    H130115   2.966   6.235   0.779
10058TIP3    H230116   2.823   6.185   0.789
10059TIP3   OH230117   3.914   3.727   6.697
10059TIP3    H130118   3.940   3.681   6.777
10059TIP3    H230119   3.828   3.764   6.719
10060TIP3   OH230120   5.218   3.116   1.815
10060TIP3    H130121   5.226   3.021   1.811
10060TIP3    H230122   5.298   3.146   1.857
10061TIP3   OH230123   3.172   5.276   4.029
10061TIP3    H130124   3.102   5.235   4.081
10061TIP3    H230125   3.238   5.207   4.019
10062TIP3   OH230126   2.081   1.514   1.612
10062TIP3    H130127   2.142   1.441   1.620
10062TIP3    H230128   2.086   1.540   1.520
10063TIP3   OH230129   0.457   4.244   5.959
10063TIP3    H130130   0.536   4.293   5.935
10063TIP3    H230131   0.430   4.202   5.878
10064TIP3   OH230132   0.818   6.960   4.636
10064TIP3    H130133   0.774   6.962   4.721
10064TIP3    H230134   0.848   7.050   4.622
10065TIP3   OH230135   5.794   7.923   6.737
10065TIP3    H130136   5.792   7.847   6.678
10065TIP3    H230137   5.709   7.965   6.725
10066TIP3   OH230138   6.032   5.793   4.188
10066TIP3    H130139   6.049   5.762   4.099
10066TIP3    H230140   6.036   5.888   4.182
10067TIP3   OH230141   7.497   3.657   2.986
10067TIP3    H130142   7.592   3.663   2.972
10067TIP3    H230143   7.460   3.652   2.898
10068TIP3   OH230144   1.295   3.813   4.670
10068TIP3    H130145   1.322   3.904   4.683
10068TIP3    H230146   1.220   3.801   4.728
10069TIP3   OH230147   3.184   0.219   4.084
10069TIP3    H130148   3.229   0.139   4.055
10069TIP3    H230149   3.200   0.223   4.178
10070TIP3   OH230150   7.821   0.352   2.300
10070TIP3    H130151   7.855   0.391   2.381
10070TIP3    H230152   7.876   0.389   2.231
10071TIP3   OH230153   2.970   2.599   5.838
10071TIP3    H130154   3.024   2.523   5.816
10071TIP3    H230155   3.028   2.674   5.828
10072TIP3   OH230156   7.489   6.170   0.573
10072TIP3    H130157   7.420   6.214   0.623
10072TIP3    H230158   7.446   6.144   0.491
10073TIP3   OH230159   3.898   3.492   0.420
10073TIP3    H130160   3.830   3.508   0.485
10073TIP3    H230161   3.860   3.522   0.338
10074TIP3   OH230162   7.409   6.389   1.391
10074TIP3    H130163   7.375   6.415   1.306
10074TIP3    H230164   7.342   6.332   1.428
10075TIP3   OH230165   3.783   7.856   2.438
10075TIP3    H130166   3.759   7.874   2.347
10075TIP3    H230167   3.862   7.907   2.452
10076TIP3   OH230168   0.220   5.317   1.192
10076TIP3    H130169   0.217   5.261   1.115
10076TIP3    H230170   0.265   5.264   1.259
10077TIP3   OH230171   4.192   1.856   3.605
10077TIP3    H130172   4.153   1.944   3.606
10077TIP3    H230173   4.282   1.870   3.632
10078TIP3   OH230174   0.461   7.726   4.239
10078TIP3    H130175   0.421   7.652   4.285
10078TIP3    H230176   0.555   7.714   4.251
10079TIP3   OH230177   7.519   2.375   1.637
10079TIP3    H130178   7.514   2.399   1.730
10079TIP3    H230179   7.488   2.452   1.590
10080TIP3   OH230180   1.512   0.692   2.935
10080TIP3    H130181   1.525   0.653   3.022
10080TIP3    H230182   1.426   0.660   2.908
10081TIP3   OH230183   6.598   3.565   0.004
10081TIP3    H130184   6.683   3.604   0.021
10081TIP3    H230185   6.535   3.636   0.016
10082TIP3   OH230186   6.517   4.058   3.641
10082TIP3    H130187   6.611   4.055   3.659
10082TIP3    H230188   6.507   4.127   3.576
10083TIP3   OH230189   8.110   3.189   1.039
10083TIP3    H130190   8.103   3.234   0.955
10083TIP3    H230191   8.160   3.109   1.019
10084TIP3   OH230192   1.250   3.458   0.930
10084TIP3    H130193   1.301   3.519   0.877
10084TIP3    H230194   1.160   3.492   0.926
10085TIP3   OH230195   6.151   6.177   1.487
10085TIP3    H130196   6.148   6.269   1.514
10085TIP3    H230197   6.059   6.150   1.482
10086TIP3   OH230198   7.562   1.552   3.472
10086TIP3    H130199   7.573   1.458   3.459
10086TIP3    H230200   7.484   1.575   3.421
10087TIP3   OH230201   8.279   2.878   2.257
10087TIP3    H130202   8.366   2.873   2.296
10087TIP3    H230203   8.242   2.959   2.291
10088TIP3   OH230204   8.361   4.789   6.865
10088TIP3    H130205   8.367   4.843   6.786
10088TIP3    H230206   8.452   4.776   6.892
10089TIP3   OH230207   5.775   6.783   4.780
10089TIP3    H130208   5.691   6.756   4.744
10089TIP3    H230209   5.760   6.788   4.875
10090TIP3   OH230210   1.978   6.611   5.423
10090TIP3    H130211   2.067   6.643   5.438
10090TIP3    H230212   1.930   6.635   5.503
10091TIP3   OH230213   4.247   2.400   6.031
10091TIP3    H130214   4.194   2.376   6.107
10091TIP3    H230215   4.274   2.316   5.993
10092TIP3   OH230216   7.914   0.965   0.945
10092TIP3    H130217   7.819   0.953   0.940
10092TIP3    H230218   7.949   0.877   0.950
10093TIP3   OH230219   2.253   1.227   6.494
10093TIP3    H130220   2.243   1.262   6.582
10093TIP3    H230221   2.348   1.227   6.479
10094TIP3   OH230222   1.046   7.571   5.735
10094TIP3    H130223   1.133   7.556   5.771
10094TIP3    H230224   1.008   7.483   5.729
10095TIP3   OH230225   4.300   0.892   6.252
10095TIP3    H130226   4.277   0.801   6.236
10095TIP3    H230227   4.388   0.901   6.216
10096TIP3   OH230228   1.874   6.145   4.741
10096TIP3    H130229   1.903   6.224   4.787
10096TIP3    H230230   1.801   6.174   4.687
10097TIP3   OH230231   7.861   7.201   5.121
10097TIP3    H130232   7.931   7.141   5.146
10097TIP3    H230233   7.904   7.265   5.065
10098TIP3   OH230234   1.881   3.594   5.384
10098TIP3    H130235   1.901   3.534   5.456
10098TIP3    H230236   1.787   3.608   5.389
10099TIP3   OH230237   0.064   4.992   2.808
10099TIP3    H130238   0.016   4.909   2.808
10099TIP3    H230239   0.105   4.996   2.895
10100TIP3   OH230240   3.576   3.358   0.892
10100TIP3    H130241   3.612   3.420   0.829
10100TIP3    H230242   3.508   3.408   0.938
10101TIP3   OH230243   0.332   5.594   0.209
10101TIP3    H130244   0.292   5.675   0.241
10101TIP3    H230245   0.258   5.534   0.197
10102TIP3   OH230246   4.018   3.111   0.920
10102TIP3    H130247   4.094   3.161   0.889
10102TIP3    H230248   3.960   3.177   0.958
10103TIP3   OH230249   1.766   0.169   4.767
10103TIP3    H130250   1.714   0.217   4.832
10103TIP3    H230251   1.752   0.077   4.789
10104TIP3   OH230252   7.735   4.492   0.455
10104TIP3    H130253   7.674   4.562   0.479
10104TIP3    H230254   7.772   4.463   0.539
10105TIP3   OH230255   4.202   6.859   2.082
10105TIP3    H130256   4.216   6.926   2.015
10105TIP3    H230257   4.152   6.791   2.037
10106TIP3   OH230258   2.477   7.836   3.982
10106TIP3    H130259   2.441   7.824   4.070
10106TIP3    H230260   2.438   7.765   3.930
10107TIP3   OH230261   2.271   4.227   6.708
10107TIP3    H130262   2.195   4.273   6.744
10107TIP3    H230263   2.263   4.138   6.742
10108TIP3   OH230264   7.836   0.317   0.602
10108TIP3    H130265   7.900   0.388   0.601
10108TIP3    H230266   7.844   0.276   0.516
10109TIP3   OH230267   7.191   0.241   3.823
10109TIP3    H130268   7.103   0.231   3.861
10109TIP3    H230269   7.180   0.218   3.731
10110TIP3   OH230270   1.175   1.319   3.449
10110TIP3    H130271   1.146   1.390   3.506
10110TIP3    H230272   1.237   1.269   3.502
10111TIP3   OH230273   6.456   6.909   5.407
10111TIP3    H130274   6.468   6.817   5.383
10111TIP3    H230275   6.545   6.944   5.414
10112TIP3   OH230276   3.346   0.862   3.887
10112TIP3    H130277   3.426   0.821   3.853
10112TIP3    H230278   3.299   0.890   3.808
10113TIP3   OH230279   0.191   5.864   4.499
10113TIP3    H130280   0.255   5.927   4.466
10113TIP3    H230281   0.106   5.906   4.483
10114TIP3   OH230282   0.080   4.583   3.230
10114TIP3    H130283   0.085   4.575   3.135
10114TIP3    H230284   0.040   4.669   3.245
10115TIP3   OH230285   5.190   5.139   4.502
10115TIP3    H130286   5.265   5.092   4.465
10115TIP3    H230287   5.219   5.166   4.589
10116TIP3   OH230288   0.447   0.883   1.104
10116TIP3    H130289   0.394   0.879   1.024
10116TIP3    H230290   0.418   0.963   1.149
10117TIP3   OH230291   1.335   4.222   1.713
10117TIP3    H130292   1.294   4.214   1.799
10117TIP3    H230293   1.402   4.290   1.724
10118TIP3   OH230294   2.701   7.741   2.393
10118TIP3    H130295   2.711   7.650   2.419
10118TIP3    H230296   2.774   7.757   2.333
10119TIP3   OH230297   0.203   6.589   6.868
10119TIP3    H130298   0.262   6.560   6.799
10119TIP3    H230299   0.227   6.680   6.883
10120TIP3   OH230300   1.006   4.120   1.046
10120TIP3    H130301   0.996   4.085   0.957
10120TIP3    H230302   1.061   4.056   1.091
10121TIP3   OH230303   6.090   4.732   4.132
10121TIP3    H130304   6.170   4.743   4.081
10121TIP3    H230305   6.086   4.639   4.152
10122TIP3   OH230306   3.900   6.842   2.655
10122TIP3    H130307   3.827   6.890   2.616
10122TIP3    H230308   3.876   6.832   2.747
10123TIP3   OH230309   0.592   3.740   3.199
10123TIP3    H130310   0.565   3.648   3.193
10123TIP3    H230311   0.521   3.783   3.246
10124TIP3   OH230312   3.389   3.365   3.570
10124TIP3    H130313   3.374   3.411   3.487
10124TIP3    H230314   3.454   3.419   3.615
10125TIP3   OH230315   4.947   4.478   5.965
10125TIP3    H130316   4.895   4.398   5.975
10125TIP3    H230317   4.914   4.518   5.884
10126TIP3   OH230318   5.826   7.557   5.361
10126TIP3    H130319   5.918   7.578   5.372
10126TIP3    H230320   5.805   7.503   5.437
10127TIP3   OH230321   0.525   4.059   4.515
10127TIP3    H130322   0.545   4.022   4.601
10127TIP3    H230323   0.585   4.133   4.506
10128TIP3   OH230324   1.818   7.096   6.510
10128TIP3    H130325   1.845   7.020   6.563
10128TIP3    H230326   1.728   7.113   6.538
10129TIP3   OH230327   4.285   0.387   1.715
10129TIP3    H130328   4.277   0.463   1.773
10129TIP3    H230329   4.201   0.341   1.726
10130TIP3   OH230330   3.068   7.347   5.601
10130TIP3    H130331   3.113   7.428   5.623
10130TIP3    H230332   3.030   7.317   5.684
10131TIP3   OH230333   2.244   3.471   6.142
10131TIP3    H130334   2.299   3.421   6.202
10131TIP3    H230335   2.218   3.549   6.192
10132TIP3   OH230336   5.792   3.228   3.025
10132TIP3    H130337   5.844   3.285   3.082
10132TIP3    H230338   5.827   3.243   2.937
10133TIP3   OH230339   1.115   3.805   3.096
10133TIP3    H130340   1.201   3.838   3.070
10133TIP3    H230341   1.117   3.712   3.072
10134TIP3   OH230342   6.581   7.167   1.162
10134TIP3    H130343   6.544   7.188   1.248
10134TIP3    H230344   6.563   7.074   1.151
10135TIP3   OH230345   4.553   4.247   6.443
10135TIP3    H130346   4.628   4.306   6.454
10135TIP3    H230347   4.478   4.305   6.431
10136TIP3   OH230348   4.804   7.911   3.989
10136TIP3    H130349   4.745   7.858   4.043
10136TIP3    H230350   4.854   7.963   4.052
10137TIP3   OH230351   2.791   5.617   4.501
10137TIP3    H130352   2.863   5.680   4.497
10137TIP3    H230353   2.797   5.578   4.588
10138TIP3   OH230354   2.028   4.197   3.096
10138TIP3    H130355   1.937   4.224   3.082
10138TIP3    H230356   2.071   4.212   3.012
10139TIP3   OH230357   1.138   4.293   6.195
10139TIP3    H130358   1.195   4.342   6.255
10139TIP3    H230359   1.193   4.222   6.162
10140TIP3   OH230360   8.296   4.843   1.508
10140TIP3    H130361   8.251   4.884   1.434
10140TIP3    H230362   8.227   4.802   1.559
10141TIP3   OH230363   7.237   5.165   2.050
10141TIP3    H130364   7.217   5.231   1.985
10141TIP3    H230365   7.166   5.170   2.113
10142TIP3   OH230366   7.637   7.362   5.289
10142TIP3    H130367   7.648   7.450   5.253
10142TIP3    H230368   7.703   7.309   5.244
10143TIP3   OH230369   6.370   4.342   5.909
10143TIP3    H130370   6.380   4.341   5.814
10143TIP3    H230371   6.382   4.434   5.934
10144TIP3   OH230372   1.627   3.668   4.647
10144TIP3    H130373   1.637   3.661   4.742
10144TIP3    H230374   1.662   3.586   4.613
10145TIP3   OH230375   2.792   0.526   6.113
10145TIP3    H130376   2.816   0.433   6.111
10145TIP3    H230377   2.712   0.528   6.166
10146TIP3   OH230378   5.871   0.109   2.405
10146TIP3    H130379   5.937   0.044   2.430
10146TIP3    H230380   5.866   0.169   2.480
10147TIP3   OH230381   6.423   0.247   5.258
10147TIP3    H130382   6.515   0.276   5.259
10147TIP3    H230383   6.374   0.324   5.286
10148TIP3   OH230384   2.666   7.868   5.727
10148TIP3    H130385   2.750   7.827   5.709
10148TIP3    H230386   2.625   7.811   5.792
10149TIP3   OH230387   7.816   4.438   1.411
10149TIP3    H130388   7.883   4.505   1.396
10149TIP3    H230389   7.741   4.487   1.445
10150TIP3   OH230390   1.715   0.677   3.764
10150TIP3    H130391   1.630   0.695   3.725
10150TIP3    H230392   1.741   0.761   3.803
10151TIP3   OH230393   1.148   1.813   6.821
10151TIP3    H130394   1.125   1.823   6.914
10151TIP3    H230395   1.137   1.900   6.784
10152TIP3   OH230396   1.769   6.432   3.345
10152TIP3    H130397   1.844   6.485   3.372
10152TIP3    H230398   1.757   6.452   3.252
10153TIP3   OH230399   0.844   6.662   4.720
10153TIP3    H130400   0.882   6.589   4.671
10153TIP3    H230401   0.850   6.736   4.661
10154TIP3   OH230402   7.299   4.439   2.544
10154TIP3    H130403   7.334   4.374   2.605
10154TIP3    H230404   7.376   4.468   2.494
10155TIP3   OH230405   8.132   2.833   5.789
10155TIP3    H130406   8.106   2.795   5.873
10155TIP3    H230407   8.205   2.778   5.759
10156TIP3   OH230408   5.227   4.611   1.809
10156TIP3    H130409   5.282   4.548   1.855
10156TIP3    H230410   5.290   4.670   1.766
10157TIP3   OH230411   4.726   2.937   0.906
10157TIP3    H130412   4.821   2.932   0.913
10157TIP3    H230413   4.710   2.982   0.823
10158TIP3   OH230414   1.177   2.550   4.114
10158TIP3    H130415   1.200   2.551   4.021
10158TIP3    H230416   1.082   2.563   4.114
10159TIP3   OH230417   0.968   5.558   2.057
10159TIP3    H130418   0.891   5.604   2.024
10159TIP3    H230419   1.042   5.604   2.016
10160TIP3   OH230420   3.786   2.203   2.658
10160TIP3    H130421   3.773   2.247   2.574
10160TIP3    H230422   3.873   2.231   2.686
10161TIP3   OH230423   7.901   2.132   5.811
10161TIP3    H130424   7.823   2.085   5.783
10161TIP3    H230425   7.924   2.093   5.895
10162TIP3   OH230426   4.405   7.873   4.666
10162TIP3    H130427   4.467   7.945   4.656
10162TIP3    H230428   4.321   7.915   4.684
10163TIP3   OH230429   0.331   4.002   0.873
10163TIP3    H130430   0.296   4.091   0.880
10163TIP3    H230431   0.263   3.946   0.909
10164TIP3   OH230432   3.094   7.083   2.933
10164TIP3    H130433   3.177   7.047   2.965
10164TIP3    H230434   3.030   7.060   3.001
10165TIP3   OH230435   4.079   1.838   3.119
10165TIP3    H130436   4.120   1.797   3.043
10165TIP3    H230437   4.056   1.926   3.088
10166TIP3   OH230438   7.619   1.920   3.818
10166TIP3    H130439   7.699   1.953   3.860
10166TIP3    H230440   7.613   1.829   3.848
10167TIP3   OH230441   2.263   4.540   3.165
10167TIP3    H130442   2.201   4.517   3.233
10167TIP3    H230443   2.220   4.608   3.114
10168TIP3   OH230444   5.045   2.803   2.553
10168TIP3    H130445   4.983   2.877   2.551
10168TIP3    H230446   5.106   2.825   2.623
10169TIP3   OH230447   6.440   7.517   4.818
10169TIP3    H130448   6.533   7.505   4.835
10169TIP3    H230449   6.396   7.464   4.884
10170TIP3   OH230450   1.719   7.240   1.400
10170TIP3    H130451   1.753   7.326   1.422
10170TIP3    H230452   1.762   7.180   1.460
10171TIP3   OH230453   0.692   1.449   2.697
10171TIP3    H130454   0.731   1.424   2.781
10171TIP3    H230455   0.683   1.367   2.649
10172TIP3   OH230456   3.560   5.298   3.122
10172TIP3    H130457   3.609   5.312   3.041
10172TIP3    H230458   3.521   5.211   3.112
10173TIP3   OH230459   3.977   0.117   0.069
10173TIP3    H130460   3.931   0.033   0.077
10173TIP3    H230461   4.067   0.097   0.096
10174TIP3   OH230462   6.961   6.532   4.824
10174TIP3    H130463   6.923   6.449   4.795
10174TIP3    H230464   6.903   6.599   4.787
10175TIP3   OH230465   2.921   5.215   6.158
10175TIP3    H130466   2.825   5.213   6.155
10175TIP3    H230467   2.941   5.261   6.239
10176TIP3   OH230468   0.094   5.510   5.273
10176TIP3    H130469   0.093   5.591   5.224
10176TIP3    H230470   0.003   5.498   5.302
10177TIP3   OH230471   4.631   4.134   6.192
10177TIP3    H130472   4.551   4.136   6.139
10177TIP3    H230473   4.611   4.189   6.268
10178TIP3   OH230474   3.726   0.621   6.714
10178TIP3    H130475   3.716   0.668   6.631
10178TIP3    H230476   3.797   0.667   6.759
10179TIP3   OH230477   1.996   7.124   2.957
10179TIP3    H130478   2.026   7.049   3.009
10179TIP3    H230479   1.941   7.174   3.016
10180TIP3   OH230480   1.313   4.554   3.712
10180TIP3    H130481   1.280   4.479   3.761
10180TIP3    H230482   1.327   4.520   3.623
10181TIP3   OH230483   6.978   3.535   6.857
10181TIP3    H130484   7.006   3.446   6.834
10181TIP3    H230485   7.059   3.585   6.862
10182TIP3   OH230486   5.847   5.240   0.873
10182TIP3    H130487   5.752   5.252   0.881
10182TIP3    H230488   5.860   5.146   0.888
10183TIP3   OH230489   7.033   0.714   2.975
10183TIP3    H130490   6.971   0.769   2.927
10183TIP3    H230491   7.005   0.625   2.956
10184TIP3   OH230492   7.248   7.447   0.568
10184TIP3    H130493   7.230   7.452   0.475
10184TIP3    H230494   7.337   7.482   0.577
10185TIP3   OH230495   2.580   6.534   1.107
10185TIP3    H130496   2.664   6.518   1.149
10185TIP3    H230497   2.519   6.548   1.179
10186TIP3   OH230498   2.460   0.050   4.493
10186TIP3    H130499   2.420   0.110   4.431
10186TIP3    H230500   2.481  -0.028   4.441
10187TIP3   OH230501   6.929   3.793   2.548
10187TIP3    H130502   6.908   3.767   2.459
10187TIP3    H230503   6.917   3.714   2.600
10188TIP3   OH230504   5.991   2.997   3.482
10188TIP3    H130505   5.973   3.087   3.455
10188TIP3    H230506   6.046   2.962   3.412
10189TIP3   OH230507   1.988   7.102   2.683
10189TIP3    H130508   1.958   7.188   2.654
10189TIP3    H230509   2.005   7.112   2.776
10190TIP3   OH230510   3.719   5.676   5.454
10190TIP3    H130511   3.721   5.586   5.487
10190TIP3    H230512   3.773   5.675   5.375
10191TIP3   OH230513   5.334   6.372   1.114
10191TIP3    H130514   5.334   6.378   1.210
10191TIP3    H230515   5.346   6.463   1.085
10192TIP3   OH230516   4.870   2.623   3.413
10192TIP3    H130517   4.961   2.608   3.386
10192TIP3    H230518   4.877   2.664   3.499
10193TIP3   OH230519   5.070   7.315   4.753
10193TIP3    H130520   5.061   7.247   4.820
10193TIP3    H230521   5.042   7.395   4.795
10194TIP3   OH230522   4.343   5.884   5.725
10194TIP3    H130523   4.271   5.827   5.752
10194TIP3    H230524   4.358   5.941   5.800
10195TIP3   OH230525   0.783   4.479   1.742
10195TIP3    H130526   0.710   4.433   1.783
10195TIP3    H230527   0.823   4.529   1.813
10196TIP3   OH230528   4.157   2.038   0.949
10196TIP3    H130529   4.241   2.051   0.904
10196TIP3    H230530   4.127   2.126   0.971
10197TIP3   OH230531   6.824   3.373   3.841
10197TIP3    H130532   6.752   3.400   3.899
10197TIP3    H230533   6.853   3.289   3.877
10198TIP3   OH230534   1.704   2.288   1.482
10198TIP3    H130535   1.796   2.301   1.461
10198TIP3    H230536   1.661   2.274   1.398
10199TIP3   OH230537   2.161   7.422   1.494
10199TIP3    H130538   2.256   7.427   1.494
10199TIP3    H230539   2.133   7.495   1.439
10200TIP3   OH230540   4.934   1.463   5.116
10200TIP3    H130541   4.981   1.544   5.094
10200TIP3    H230542   4.903   1.430   5.032
10201TIP3   OH230543   3.368   1.428   0.795
10201TIP3    H130544   3.345   1.442   0.887
10201TIP3    H230545   3.463   1.432   0.794
10202TIP3   OH230546   4.163   3.695   1.622
10202TIP3    H130547   4.105   3.637   1.572
10202TIP3    H230548   4.249   3.682   1.583
10203TIP3   OH230549   1.826   6.602   4.380
10203TIP3    H130550   1.832   6.604   4.285
10203TIP3    H230551   1.746   6.651   4.400
10204TIP3   OH230552   4.603   2.160   0.297
10204TIP3    H130553   4.665   2.122   0.235
10204TIP3    H230554   4.589   2.249   0.266
10205TIP3   OH230555   3.801   4.194   6.109
10205TIP3    H130556   3.811   4.259   6.178
10205TIP3    H230557   3.773   4.115   6.154
10206TIP3   OH230558   4.545   5.343   6.325
10206TIP3    H130559   4.493   5.305   6.396
10206TIP3    H230560   4.531   5.285   6.251
10207TIP3   OH230561   6.244   4.699   1.944
10207TIP3    H130562   6.338   4.685   1.938
10207TIP3    H230563   6.208   4.647   1.872
10208TIP3   OH230564   3.741   7.590   4.906
10208TIP3    H130565   3.833   7.598   4.881
10208TIP3    H230566   3.730   7.653   4.977
10209TIP3   OH230567   0.065   3.020   3.202
10209TIP3    H130568   0.004   3.074   3.152
10209TIP3    H230569   0.151   3.056   3.181
10210TIP3   OH230570   0.684   2.309   6.136
10210TIP3    H130571   0.753   2.248   6.160
10210TIP3    H230572   0.718   2.354   6.059
10211TIP3   OH230573   7.637   7.246   3.620
10211TIP3    H130574   7.552   7.291   3.620
10211TIP3    H230575   7.646   7.212   3.709
10212TIP3   OH230576   2.370   5.766   2.298
10212TIP3    H130577   2.361   5.685   2.349
10212TIP3    H230578   2.297   5.820   2.326
10213TIP3   OH230579   3.018   4.190   2.722
10213TIP3    H130580   3.030   4.282   2.745
10213TIP3    H230581   3.107   4.156   2.713
10214TIP3   OH230582   5.055   2.918   3.557
10214TIP3    H130583   4.993   2.881   3.619
10214TIP3    H230584   5.122   2.850   3.547
10215TIP3   OH230585   4.571   3.479   1.779
10215TIP3    H130586   4.637   3.445   1.839
10215TIP3    H230587   4.487   3.459   1.820
10216TIP3   OH230588   3.489   5.157   4.293
10216TIP3    H130589   3.479   5.251   4.285
10216TIP3    H230590   3.461   5.138   4.383
10217TIP3   OH230591   1.820   0.873   5.719
10217TIP3    H130592   1.770   0.936   5.667
10217TIP3    H230593   1.754   0.819   5.762
10218TIP3   OH230594   7.114   5.625   2.998
10218TIP3    H130595   7.113   5.616   2.902
10218TIP3    H230596   7.123   5.535   3.029
10219TIP3   OH230597   7.111   0.696   5.896
10219TIP3    H130598   7.160   0.736   5.969
10219TIP3    H230599   7.023   0.734   5.904
10220TIP3   OH230600   7.204   2.687   5.315
10220TIP3    H130601   7.180   2.661   5.404
10220TIP3    H230602   7.179   2.613   5.260
10221TIP3   OH230603   5.772   0.542   2.922
10221TIP3    H130604   5.815   0.590   2.992
10221TIP3    H230605   5.776   0.450   2.950
10222TIP3   OH230606   8.324   2.015   0.906
10222TIP3    H130607   8.300   2.104   0.881
10222TIP3    H230608   8.334   1.969   0.823
10223TIP3   OH230609   5.496   2.155   0.759
10223TIP3    H130610   5.512   2.085   0.823
10223TIP3    H230611   5.516   2.115   0.674
10224TIP3   OH230612   5.230   7.526   4.290
10224TIP3    H130613   5.278   7.581   4.352
10224TIP3    H230614   5.164   7.482   4.343
10225TIP3   OH230615   2.668   2.939   2.937
10225TIP3    H130616   2.618   2.977   3.009
10225TIP3    H230617   2.726   2.876   2.979
10226TIP3   OH230618   5.760   3.877   0.271
10226TIP3    H130619   5.689   3.832   0.226
10226TIP3    H230620   5.758   3.842   0.361
10227TIP3   OH230621   0.966   1.972   5.726
10227TIP3    H130622   0.885   1.928   5.750
10227TIP3    H230623   1.013   1.909   5.672
10228TIP3   OH230624   4.264   7.016   2.652
10228TIP3    H130625   4.260   7.111   2.644
10228TIP3    H230626   4.216   6.997   2.733
10229TIP3   OH230627   0.431   0.076   6.578
10229TIP3    H130628   0.397   0.061   6.489
10229TIP3    H230629   0.355   0.060   6.634
10230TIP3   OH230630   8.074   4.706   4.394
10230TIP3    H130631   7.984   4.715   4.362
10230TIP3    H230632   8.090   4.611   4.394
10231TIP3   OH230633   8.255   0.041   0.965
10231TIP3    H130634   8.259  -0.038   0.910
10231TIP3    H230635   8.194   0.099   0.919
10232TIP3   OH230636   0.764   7.313   3.046
10232TIP3    H130637   0.704   7.335   3.118
10232TIP3    H230638   0.741   7.224   3.022
10233TIP3   OH230639   0.532   1.890   6.096
10233TIP3    H130640   0.492   1.969   6.133
10233TIP3    H230641   0.579   1.850   6.169
10234TIP3   OH230642   5.086   6.915   4.128
10234TIP3    H130643   5.019   6.926   4.196
10234TIP3    H230644   5.156   6.975   4.152
10235TIP3   OH230645   7.957   4.620   6.281
10235TIP3    H130646   7.962   4.677   6.205
10235TIP3    H230647   7.865   4.622   6.307
10236TIP3   OH230648   6.344   5.714   0.955
10236TIP3    H130649   6.284   5.696   1.028
10236TIP3    H230650   6.395   5.634   0.946
10237TIP3   OH230651   0.993   1.872   0.114
10237TIP3    H130652   1.033   1.900   0.196
10237TIP3    H230653   1.052   1.904   0.046
10238TIP3   OH230654   6.067   7.385   3.558
10238TIP3    H130655   5.996   7.390   3.494
10238TIP3    H230656   6.050   7.456   3.620
10239TIP3   OH230657   2.484   7.706   3.330
10239TIP3    H130658   2.570   7.665   3.340
10239TIP3    H230659   2.449   7.710   3.419
10240TIP3   OH230660   6.320   1.949   6.015
10240TIP3    H130661   6.289   2.036   6.041
10240TIP3    H230662   6.340   1.905   6.098
10241TIP3   OH230663   4.949   7.100   6.389
10241TIP3    H130664   4.942   7.193   6.410
10241TIP3    H230665   4.868   7.062   6.424
10242TIP3   OH230666   1.005   5.155   1.415
10242TIP3    H130667   0.983   5.181   1.326
10242TIP3    H230668   1.012   5.060   1.411
10243TIP3   OH230669   6.015   5.338   4.361
10243TIP3    H130670   5.957   5.333   4.285
10243TIP3    H230671   5.966   5.389   4.425
10244TIP3   OH230672   0.871   6.978   3.037
10244TIP3    H130673   0.894   6.890   3.065
10244TIP3    H230674   0.936   6.999   2.970
10245TIP3   OH230675   5.767   7.872   5.358
10245TIP3    H130676   5.842   7.816   5.339
10245TIP3    H230677   5.723   7.883   5.274
10246TIP3   OH230678   2.127   2.406   5.444
10246TIP3    H130679   2.137   2.457   5.364
10246TIP3    H230680   2.214   2.368   5.459
10247TIP3   OH230681   6.382   1.166   2.630
10247TIP3    H130682   6.296   1.168   2.673
10247TIP3    H230683   6.440   1.126   2.695
10248TIP3   OH230684   4.831   6.804   2.928
10248TIP3    H130685   4.764   6.819   2.994
10248TIP3    H230686   4.838   6.887   2.881
10249TIP3   OH230687   7.854   5.114   2.180
10249TIP3    H130688   7.942   5.077   2.182
10249TIP3    H230689   7.828   5.112   2.088
10250TIP3   OH230690   3.920   6.155   6.480
10250TIP3    H130691   3.960   6.103   6.549
10250TIP3    H230692   3.922   6.245   6.513
10251TIP3   OH230693   5.242   4.024   0.948
10251TIP3    H130694   5.309   4.072   0.900
10251TIP3    H230695   5.170   4.087   0.959
10252TIP3   OH230696   5.288   1.243   1.272
10252TIP3    H130697   5.348   1.182   1.314
10252TIP3    H230698   5.205   1.195   1.268
10253TIP3   OH230699   6.298  -0.006   0.706
10253TIP3    H130700   6.380  -0.036   0.667
10253TIP3    H230701   6.314   0.086   0.726
10254TIP3   OH230702   6.185   0.152   2.274
10254TIP3    H130703   6.112   0.165   2.215
10254TIP3    H230704   6.150   0.098   2.345
10255TIP3   OH230705   6.005   7.280   5.120
10255TIP3    H130706   6.096   7.304   5.106
10255TIP3    H230707   5.998   7.192   5.083
10256TIP3   OH230708   4.633   0.293   1.622
10256TIP3    H130709   4.638   0.254   1.709
10256TIP3    H230710   4.581   0.231   1.571
10257TIP3   OH230711   2.046   6.545   3.268
10257TIP3    H130712   2.104   6.471   3.286
10257TIP3    H230713   2.016   6.529   3.178
10258TIP3   OH230714   5.363   1.166   1.900
10258TIP3    H130715   5.422   1.191   1.971
10258TIP3    H230716   5.341   1.249   1.857
10259TIP3   OH230717   1.313   7.452   4.340
10259TIP3    H130718   1.236   7.509   4.343
10259TIP3    H230719   1.313   7.419   4.250
10260TIP3   OH230720   2.525   6.292   3.960
10260TIP3    H130721   2.460   6.357   3.933
10260TIP3    H230722   2.497   6.266   4.048
10261TIP3   OH230723   0.253   5.482   0.980
10261TIP3    H130724   0.254   5.435   1.063
10261TIP3    H230725   0.281   5.571   1.003
10262TIP3   OH230726   7.776   0.035   0.743
10262TIP3    H130727   7.749  -0.054   0.721
10262TIP3    H230728   7.764   0.084   0.662
10263TIP3   OH230729   1.029   4.203   3.616
10263TIP3    H130730   0.983   4.124   3.588
10263TIP3    H230731   1.018   4.206   3.711
10264TIP3   OH230732   5.804   3.435   4.182
10264TIP3    H130733   5.748   3.385   4.241
10264TIP3    H230734   5.837   3.507   4.235
10265TIP3   OH230735   5.813   7.294   6.152
10265TIP3    H130736   5.744   7.353   6.182
10265TIP3    H230737   5.768   7.215   6.125
10266TIP3   OH230738   7.956   2.812   5.573
10266TIP3    H130739   8.023   2.791   5.638
10266TIP3    H230740   7.899   2.735   5.572
10267TIP3   OH230741   7.176   0.222   5.960
10267TIP3    H130742   7.146   0.286   6.025
10267TIP3    H230743   7.097   0.173   5.938
10268TIP3   OH230744   5.378   1.933   1.990
10268TIP3    H130745   5.444   1.991   1.952
10268TIP3    H230746   5.301   1.945   1.934
10269TIP3   OH230747   1.186   6.532   4.344
10269TIP3    H130748   1.135   6.563   4.419
10269TIP3    H230749   1.129   6.468   4.301
10270TIP3   OH230750   2.785   1.797   4.474
10270TIP3    H130751   2.875   1.776   4.499
10270TIP3    H230752   2.794   1.855   4.398
10271TIP3   OH230753   1.361   4.289   5.500
10271TIP3    H130754   1.358   4.231   5.424
10271TIP3    H230755   1.333   4.374   5.465
10272TIP3   OH230756   6.923   2.318   6.406
10272TIP3    H130757   6.945   2.385   6.342
10272TIP3    H230758   6.952   2.354   6.490
10273TIP3   OH230759   2.854   5.670   3.604
10273TIP3    H130760   2.821   5.596   3.554
10273TIP3    H230761   2.793   5.741   3.583
10274TIP3   OH230762   5.511   1.940   6.560
10274TIP3    H130763   5.596   1.895   6.559
10274TIP3    H230764   5.511   1.988   6.643
10275TIP3   OH230765   1.793   1.643   1.159
10275TIP3    H130766   1.827   1.596   1.235
10275TIP3    H230767   1.868   1.690   1.124
10276TIP3   OH230768   6.693   4.219   2.280
10276TIP3    H130769   6.735   4.304   2.296
10276TIP3    H230770   6.613   4.222   2.333
10277TIP3   OH230771   3.049   3.619   2.297
10277TIP3    H130772   3.028   3.678   2.224
10277TIP3    H230773   3.038   3.531   2.261
10278TIP3   OH230774   0.539   4.984   0.848
10278TIP3    H130775   0.521   5.043   0.775
10278TIP3    H230776   0.581   5.039   0.913
10279TIP3   OH230777   1.163   0.811   2.565
10279TIP3    H130778   1.162   0.885   2.504
10279TIP3    H230779   1.079   0.768   2.552
10280TIP3   OH230780   5.203   4.967   1.897
10280TIP3    H130781   5.119   4.995   1.932
10280TIP3    H230782   5.265   4.984   1.968
10281TIP3   OH230783   1.054   1.228   6.502
10281TIP3    H130784   1.021   1.299   6.558
10281TIP3    H230785   1.103   1.274   6.433
10282TIP3   OH230786   0.841   0.720   0.414
10282TIP3    H130787   0.876   0.687   0.331
10282TIP3    H230788   0.746   0.721   0.401
10283TIP3   OH230789   2.300   2.277   1.397
10283TIP3    H130790   2.327   2.203   1.342
10283TIP3    H230791   2.205   2.266   1.407
10284TIP3   OH230792   7.759   7.022   0.828
10284TIP3    H130793   7.776   7.053   0.739
10284TIP3    H230794   7.665   7.036   0.840
10285TIP3   OH230795   0.053   6.466   3.508
10285TIP3    H130796   0.018   6.417   3.434
10285TIP3    H230797   0.068   6.400   3.576
10286TIP3   OH230798   2.605   7.047   0.096
10286TIP3    H130799   2.534   6.986   0.077
10286TIP3    H230800   2.594   7.117   0.032
10287TIP3   OH230801   0.478   5.036   5.442
10287TIP3    H130802   0.401   5.038   5.499
10287TIP3    H230803   0.542   4.983   5.489
10288TIP3   OH230804   4.129   4.477   6.059
10288TIP3    H130805   4.038   4.503   6.071
10288TIP3    H230806   4.180   4.557   6.072
10289TIP3   OH230807   8.365   2.882   3.437
10289TIP3    H130808   8.411   2.907   3.357
10289TIP3    H230809   8.306   2.955   3.454
10290TIP3   OH230810   4.213   4.825   2.608
10290TIP3    H130811   4.141   4.840   2.669
10290TIP3    H230812   4.277   4.894   2.627
10291TIP3   OH230813   3.315   4.200   5.864
10291TIP3    H130814   3.266   4.271   5.904
10291TIP3    H230815   3.257   4.124   5.871
10292TIP3   OH230816   8.227   0.885   4.005
10292TIP3    H130817   8.196   0.938   4.078
10292TIP3    H230818   8.281   0.945   3.953
10293TIP3   OH230819   5.370   2.046   3.316
10293TIP3    H130820   5.351   2.017   3.226
10293TIP3    H230821   5.285   2.047   3.359
10294TIP3   OH230822   2.277   3.615   2.710
10294TIP3    H130823   2.254   3.687   2.769
10294TIP3    H230824   2.373   3.611   2.713
10295TIP3   OH230825   5.598   3.836   1.481
10295TIP3    H130826   5.678   3.788   1.461
10295TIP3    H230827   5.552   3.782   1.544
10296TIP3   OH230828   2.735   1.249   6.278
10296TIP3    H130829   2.667   1.271   6.215
10296TIP3    H230830   2.814   1.292   6.245
10297TIP3   OH230831   4.073   2.230   2.701
10297TIP3    H130832   4.087   2.186   2.617
10297TIP3    H230833   4.150   2.208   2.753
10298TIP3   OH230834   6.873   0.006   1.008
10298TIP3    H130835   6.793  -0.027   1.051
10298TIP3    H230836   6.909   0.070   1.070
10299TIP3   OH230837   5.374   0.935   3.358
10299TIP3    H130838   5.434   0.881   3.409
10299TIP3    H230839   5.340   0.877   3.290
10300TIP3   OH230840   1.692   6.866   1.412
10300TIP3    H130841   1.602   6.873   1.379
10300TIP3    H230842   1.746   6.906   1.343
10301TIP3   OH230843   5.780   7.180   2.185
10301TIP3    H130844   5.800   7.186   2.092
10301TIP3    H230845   5.863   7.202   2.229
10302TIP3   OH230846   6.695   1.956   1.721
10302TIP3    H130847   6.667   1.897   1.791
10302TIP3    H230848   6.614   1.987   1.681
10303TIP3   OH230849   4.995   7.327   2.268
10303TIP3    H130850   5.021   7.330   2.176
10303TIP3    H230851   4.943   7.246   2.275
10304TIP3   OH230852   3.532   2.334   4.498
10304TIP3    H130853   3.472   2.342   4.572
10304TIP3    H230854   3.504   2.255   4.453
10305TIP3   OH230855   0.378   6.238   2.121
10305TIP3    H130856   0.468   6.224   2.091
10305TIP3    H230857   0.377   6.207   2.211
10306TIP3   OH230858   2.132   5.111   1.415
10306TIP3    H130859   2.147   5.203   1.390
10306TIP3    H230860   2.176   5.060   1.347
10307TIP3   OH230861   0.298   7.036   4.086
10307TIP3    H130862   0.223   7.095   4.094
10307TIP3    H230863   0.361   7.070   4.150
10308TIP3   OH230864   1.741   3.451   4.467
10308TIP3    H130865   1.729   3.445   4.372
10308TIP3    H230866   1.811   3.389   4.486
10309TIP3   OH230867   5.412   1.090   6.668
10309TIP3    H130868   5.369   1.138   6.596
10309TIP3    H230869   5.415   0.999   6.638
10310TIP3   OH230870   8.172   2.647   2.324
10310TIP3    H130871   8.113   2.622   2.253
10310TIP3    H230872   8.207   2.732   2.297
10311TIP3   OH230873   3.766   2.411   0.669
10311TIP3    H130874   3.855   2.398   0.702
10311TIP3    H230875   3.776   2.420   0.574
10312TIP3   OH230876   3.480   5.339   1.594
10312TIP3    H130877   3.436   5.266   1.637
10312TIP3    H230878   3.410   5.401   1.574
10313TIP3   OH230879   4.334   7.483   4.522
10313TIP3    H130880   4.347   7.453   4.612
10313TIP3    H230881   4.387   7.423   4.469
10314TIP3   OH230882   6.709   0.444   4.554
10314TIP3    H130883   6.775   0.483   4.497
10314TIP3    H230884   6.670   0.518   4.600
10315TIP3   OH230885   0.236   0.510   3.717
10315TIP3    H130886   0.190   0.467   3.789
10315TIP3    H230887   0.216   0.603   3.727
10316TIP3   OH230888   1.009   2.403   6.414
10316TIP3    H130889   1.095   2.378   6.447
10316TIP3    H230890   0.962   2.432   6.492
10317TIP3   OH230891   3.722   5.471   6.481
10317TIP3    H130892   3.703   5.445   6.391
10317TIP3    H230893   3.816   5.487   6.481
10318TIP3   OH230894   7.453   3.335   3.374
10318TIP3    H130895   7.513   3.378   3.435
10318TIP3    H230896   7.462   3.384   3.293
10319TIP3   OH230897   6.640   6.839   4.277
10319TIP3    H130898   6.621   6.908   4.213
10319TIP3    H230899   6.682   6.884   4.350
10320TIP3   OH230900   3.237   1.468   4.537
10320TIP3    H130901   3.257   1.454   4.630
10320TIP3    H230902   3.320   1.450   4.492
10321TIP3   OH230903   1.326   0.383   0.332
10321TIP3    H130904   1.331   0.476   0.310
10321TIP3    H230905   1.401   0.344   0.288
10322TIP3   OH230906   6.850   6.724   6.019
10322TIP3    H130907   6.938   6.703   6.053
10322TIP3    H230908   6.793   6.714   6.095
10323TIP3   OH230909   7.225   0.748   3.919
10323TIP3    H130910   7.139   0.738   3.877
10323TIP3    H230911   7.288   0.739   3.847
10324TIP3   OH230912   3.249   5.858   5.416
10324TIP3    H130913   3.328   5.806   5.402
10324TIP3    H230914   3.180   5.794   5.430
10325TIP3   OH230915   0.927   2.347   4.448
10325TIP3    H130916   1.016   2.379   4.467
10325TIP3    H230917   0.870   2.421   4.471
10326TIP3   OH230918   8.084   0.213   4.603
10326TIP3    H130919   8.149   0.283   4.598
10326TIP3    H230920   8.003   0.252   4.571
10327TIP3   OH230921   0.291   5.239   2.428
10327TIP3    H130922   0.304   5.331   2.405
10327TIP3    H230923   0.378   5.207   2.452
10328TIP3   OH230924   1.644   5.087   0.790
10328TIP3    H130925   1.598   5.042   0.860
10328TIP3    H230926   1.581   5.091   0.718
10329TIP3   OH230927   5.758   3.421   1.044
10329TIP3    H130928   5.771   3.515   1.062
10329TIP3    H230929   5.667   3.415   1.015
10330TIP3   OH230930   7.503   0.893   2.730
10330TIP3    H130931   7.420   0.858   2.697
10330TIP3    H230932   7.482   0.984   2.754
10331TIP3   OH230933   4.004   0.035   0.713
10331TIP3    H130934   4.052  -0.004   0.786
10331TIP3    H230935   3.920  -0.011   0.713
10332TIP3   OH230936   3.945   7.433   0.556
10332TIP3    H130937   3.902   7.357   0.516
10332TIP3    H230938   3.951   7.497   0.486
10333TIP3   OH230939   0.465   3.519   1.573
10333TIP3    H130940   0.403   3.454   1.606
10333TIP3    H230941   0.483   3.575   1.649
10334TIP3   OH230942   7.631   3.743   1.891
10334TIP3    H130943   7.670   3.715   1.809
10334TIP3    H230944   7.706   3.755   1.950
10335TIP3   OH230945   6.642   3.564   5.540
10335TIP3    H130946   6.626   3.483   5.589
10335TIP3    H230947   6.645   3.632   5.607
10336TIP3   OH230948   5.257   7.708   5.483
10336TIP3    H130949   5.306   7.696   5.401
10336TIP3    H230950   5.323   7.727   5.549
10337TIP3   OH230951   3.745   5.460   4.722
10337TIP3    H130952   3.699   5.379   4.697
10337TIP3    H230953   3.815   5.468   4.657
10338TIP3   OH230954   1.880   6.341   2.367
10338TIP3    H130955   1.880   6.337   2.462
10338TIP3    H230956   1.792   6.313   2.342
10339TIP3   OH230957   6.685   4.007   5.410
10339TIP3    H130958   6.654   4.091   5.377
10339TIP3    H230959   6.614   3.946   5.389
10340TIP3   OH230960   1.745   5.535   2.112
10340TIP3    H130961   1.824   5.521   2.060
10340TIP3    H230962   1.772   5.513   2.201
10341TIP3   OH230963   5.527   7.820   5.484
10341TIP3    H130964   5.482   7.894   5.443
10341TIP3    H230965   5.616   7.824   5.451
10342TIP3   OH230966   4.968   4.493   4.545
10342TIP3    H130967   5.026   4.480   4.470
10342TIP3    H230968   5.008   4.564   4.595
10343TIP3   OH230969   5.556   5.834   3.566
10343TIP3    H130970   5.495   5.907   3.555
10343TIP3    H230971   5.522   5.786   3.641
10344TIP3   OH230972   0.839   4.892   1.910
10344TIP3    H130973   0.771   4.959   1.899
10344TIP3    H230974   0.921   4.941   1.905
10345TIP3   OH230975   5.352   2.168   5.072
10345TIP3    H130976   5.273   2.123   5.043
10345TIP3    H230977   5.416   2.154   5.002
10346TIP3   OH230978   0.593   0.696   3.654
10346TIP3    H130979   0.649   0.679   3.730
10346TIP3    H230980   0.624   0.780   3.620
10347TIP3   OH230981   7.249   4.548   3.954
10347TIP3    H130982   7.331   4.584   3.987
10347TIP3    H230983   7.183   4.614   3.977
10348TIP3   OH230984   0.384   2.216   0.932
10348TIP3    H130985   0.336   2.139   0.963
10348TIP3    H230986   0.460   2.181   0.886
10349TIP3   OH230987   6.871   3.159   2.726
10349TIP3    H130988   6.936   3.214   2.682
10349TIP3    H230989   6.906   3.146   2.814
10350TIP3   OH230990   1.449   5.601   4.072
10350TIP3    H130991   1.543   5.589   4.079
10350TIP3    H230992   1.438   5.677   4.014
10351TIP3   OH230993   1.866   5.254   1.870
10351TIP3    H130994   1.891   5.242   1.779
10351TIP3    H230995   1.885   5.169   1.911
10352TIP3   OH230996   7.836   7.897   4.643
10352TIP3    H130997   7.925   7.897   4.608
10352TIP3    H230998   7.785   7.947   4.578
10353TIP3   OH230999   6.830   0.797   5.942
10353TIP3    H131000   6.749   0.766   5.903
10353TIP3    H231001   6.817   0.787   6.037
10354TIP3   OH231002   1.263   4.518   5.308
10354TIP3    H131003   1.315   4.593   5.337
10354TIP3    H231004   1.234   4.542   5.220
10355TIP3   OH231005   5.092   1.644   0.408
10355TIP3    H131006   5.170   1.607   0.450
10355TIP3    H231007   5.033   1.570   0.396
10356TIP3   OH231008   3.705   7.178   5.873
10356TIP3    H131009   3.727   7.099   5.922
10356TIP3    H231010   3.611   7.191   5.890
10357TIP3   OH231011   1.194   4.787   0.051
10357TIP3    H131012   1.165   4.785  -0.040
10357TIP3    H231013   1.135   4.850   0.094
10358TIP3   OH231014   3.206   0.810   6.787
10358TIP3    H131015   3.150   0.808   6.709
10358TIP3    H231016   3.189   0.726   6.830
10359TIP3   OH231017   3.626   4.062   6.785
10359TIP3    H131018   3.542   4.070   6.829
10359TIP3    H231019   3.643   3.968   6.782
10360TIP3   OH231020   6.665   3.712   0.312
10360TIP3    H131021   6.689   3.740   0.224
10360TIP3    H231022   6.569   3.715   0.312
10361TIP3   OH231023   4.879   6.022   1.661
10361TIP3    H131024   4.788   6.031   1.690
10361TIP3    H231025   4.893   6.099   1.605
10362TIP3   OH231026   4.605   5.784   5.571
10362TIP3    H131027   4.516   5.769   5.538
10362TIP3    H231028   4.628   5.704   5.617
10363TIP3   OH231029   2.143   7.903   5.073
10363TIP3    H131030   2.229   7.939   5.093
10363TIP3    H231031   2.148   7.811   5.101
10364TIP3   OH231032   3.566   4.160   2.649
10364TIP3    H131033   3.531   4.077   2.679
10364TIP3    H231034   3.653   4.140   2.616
10365TIP3   OH231035   8.319   1.327   2.940
10365TIP3    H131036   8.247   1.265   2.940
10365TIP3    H231037   8.379   1.294   2.873
10366TIP3   OH231038   7.326   2.784   2.995
10366TIP3    H131039   7.253   2.723   2.982
10366TIP3    H231040   7.312   2.853   2.931
10367TIP3   OH231041   5.618   6.888   6.455
10367TIP3    H131042   5.554   6.818   6.446
10367TIP3    H231043   5.699   6.844   6.479
10368TIP3   OH231044   2.422   5.903   6.752
10368TIP3    H131045   2.333   5.867   6.759
10368TIP3    H231046   2.425   5.942   6.664
10369TIP3   OH231047   7.911   5.798   0.091
10369TIP3    H131048   7.995   5.797   0.044
10369TIP3    H231049   7.875   5.885   0.073
10370TIP3   OH231050   1.297   5.613   4.545
10370TIP3    H131051   1.279   5.530   4.589
10370TIP3    H231052   1.263   5.601   4.456
10371TIP3   OH231053   6.772   6.129   2.335
10371TIP3    H131054   6.687   6.124   2.291
10371TIP3    H231055   6.794   6.038   2.354
10372TIP3   OH231056   3.612   1.917   2.046
10372TIP3    H131057   3.529   1.954   2.016
10372TIP3    H231058   3.588   1.834   2.087
10373TIP3   OH231059   1.393   3.400   6.819
10373TIP3    H131060   1.342   3.480   6.812
10373TIP3    H231061   1.414   3.377   6.728
10374TIP3   OH231062   0.715   4.264   4.550
10374TIP3    H131063   0.775   4.315   4.494
10374TIP3    H231064   0.747   4.280   4.639
10375TIP3   OH231065   1.680   1.541   4.320
10375TIP3    H131066   1.637   1.462   4.353
10375TIP3    H231067   1.771   1.531   4.348
10376TIP3   OH231068   1.880   7.733   3.532
10376TIP3    H131069   1.966   7.752   3.569
10376TIP3    H231070   1.875   7.638   3.531
10377TIP3   OH231071   5.578   4.342   5.990
10377TIP3    H131072   5.583   4.419   5.934
10377TIP3    H231073   5.667   4.306   5.990
10378TIP3   OH231074   4.618   2.361   6.656
10378TIP3    H131075   4.537   2.340   6.611
10378TIP3    H231076   4.592   2.418   6.728
10379TIP3   OH231077   2.468   5.672   2.776
10379TIP3    H131078   2.384   5.699   2.813
10379TIP3    H231079   2.446   5.637   2.690
10380TIP3   OH231080   6.406   6.652   5.324
10380TIP3    H131081   6.411   6.641   5.229
10380TIP3    H231082   6.480   6.602   5.358
10381TIP3   OH231083   4.655   1.359   5.423
10381TIP3    H131084   4.562   1.338   5.413
10381TIP3    H231085   4.696   1.276   5.448
10382TIP3   OH231086   3.913   5.998   0.257
10382TIP3    H131087   3.907   6.086   0.295
10382TIP3    H231088   3.914   5.940   0.333
10383TIP3   OH231089   3.515   1.921   6.832
10383TIP3    H131090   3.481   1.922   6.742
10383TIP3    H231091   3.437   1.932   6.887
10384TIP3   OH231092   3.318   3.340   1.371
10384TIP3    H131093   3.347   3.329   1.462
10384TIP3    H231094   3.365   3.418   1.341
10385TIP3   OH231095   4.042   1.356   1.396
10385TIP3    H131096   4.130   1.378   1.367
10385TIP3    H231097   3.989   1.361   1.317
10386TIP3   OH231098   1.830   0.666   1.829
10386TIP3    H131099   1.810   0.596   1.767
10386TIP3    H231100   1.745   0.696   1.860
10387TIP3   OH231101   0.013   1.387   1.051
10387TIP3    H131102   0.025   1.422   1.140
10387TIP3    H231103   0.090   1.416   1.003
10388TIP3   OH231104   6.356   3.705   1.874
10388TIP3    H131105   6.308   3.647   1.933
10388TIP3    H231106   6.404   3.764   1.932
10389TIP3   OH231107   7.656   6.656   3.783
10389TIP3    H131108   7.648   6.580   3.841
10389TIP3    H231109   7.745   6.688   3.797
10390TIP3   OH231110   5.703   1.913   0.018
10390TIP3    H131111   5.632   1.976   0.032
10390TIP3    H231112   5.738   1.898   0.106
10391TIP3   OH231113   3.608   4.395   6.501
10391TIP3    H131114   3.518   4.420   6.522
10391TIP3    H231115   3.598   4.312   6.454
10392TIP3   OH231116   5.898   2.878   5.670
10392TIP3    H131117   5.903   2.820   5.746
10392TIP3    H231118   5.935   2.827   5.598
10393TIP3   OH231119   1.198   1.659   2.768
10393TIP3    H131120   1.186   1.746   2.805
10393TIP3    H231121   1.166   1.666   2.678
10394TIP3   OH231122   8.286   1.108   1.773
10394TIP3    H131123   8.354   1.067   1.720
10394TIP3    H231124   8.268   1.191   1.729
10395TIP3   OH231125   8.069   5.483   1.690
10395TIP3    H131126   8.022   5.440   1.762
10395TIP3    H231127   8.158   5.496   1.725
10396TIP3   OH231128   0.882   0.778   3.494
10396TIP3    H131129   0.809   0.832   3.523
10396TIP3    H231130   0.844   0.692   3.479
10397TIP3   OH231131   2.420   0.622   3.033
10397TIP3    H131132   2.481   0.669   2.975
10397TIP3    H231133   2.335   0.630   2.990
10398TIP3   OH231134   8.051   4.944   4.073
10398TIP3    H131135   8.047   4.850   4.086
10398TIP3    H231136   8.029   4.981   4.159
10399TIP3   OH231137   7.906  -0.002   4.590
10399TIP3    H131138   7.991   0.041   4.575
10399TIP3    H231139   7.862   0.055   4.653
10400TIP3   OH231140   5.733   4.186   3.545
10400TIP3    H131141   5.750   4.280   3.542
10400TIP3    H231142   5.810   4.149   3.588
10401TIP3   OH231143   5.965   3.805   1.577
10401TIP3    H131144   6.057   3.802   1.601
10401TIP3    H231145   5.918   3.805   1.661
10402TIP3   OH231146   7.405   0.282   1.758
10402TIP3    H131147   7.348   0.356   1.735
10402TIP3    H231148   7.349   0.205   1.750
10403TIP3   OH231149   0.638   1.035   4.417
10403TIP3    H131150   0.628   1.130   4.419
10403TIP3    H231151   0.698   1.018   4.345
10404TIP3   OH231152   7.196   0.402   0.149
10404TIP3    H131153   7.150   0.441   0.075
10404TIP3    H231154   7.206   0.310   0.125
10405TIP3   OH231155   2.046   4.678   0.997
10405TIP3    H131156   2.044   4.590   1.033
10405TIP3    H231157   2.136   4.691   0.968
10406TIP3   OH231158   0.190   6.376   2.395
10406TIP3    H131159   0.222   6.286   2.395
10406TIP3    H231160   0.096   6.368   2.379
10407TIP3   OH231161   2.248   1.618   2.496
10407TIP3    H131162   2.218   1.659   2.577
10407TIP3    H231163   2.199   1.536   2.490
10408TIP3   OH231164   5.456   4.395   4.437
10408TIP3    H131165   5.494   4.475   4.474
10408TIP3    H231166   5.532   4.347   4.403
10409TIP3   OH231167   2.096   1.015   6.360
10409TIP3    H131168   2.134   1.098   6.389
10409TIP3    H231169   2.161   0.980   6.299
10410TIP3   OH231170   6.796   4.684   1.927
10410TIP3    H131171   6.847   4.608   1.896
10410TIP3    H231172   6.812   4.686   2.021
10411TIP3   OH231173   7.203   1.957   5.195
10411TIP3    H131174   7.144   1.934   5.267
10411TIP3    H231175   7.198   2.052   5.189
10412TIP3   OH231176   6.135   7.124   5.685
10412TIP3    H131177   6.091   7.098   5.604
10412TIP3    H231178   6.065   7.136   5.748
10413TIP3   OH231179   0.328   2.279   1.553
10413TIP3    H131180   0.322   2.214   1.623
10413TIP3    H231181   0.336   2.227   1.473
10414TIP3   OH231182   3.591   1.386   2.986
10414TIP3    H131183   3.535   1.363   3.060
10414TIP3    H231184   3.679   1.360   3.014
10415TIP3   OH231185   7.107   1.790   5.975
10415TIP3    H131186   7.202   1.785   5.975
10415TIP3    H231187   7.087   1.868   6.027
10416TIP3   OH231188   7.107   2.070   6.074
10416TIP3    H131189   7.202   2.082   6.070
10416TIP3    H231190   7.087   2.067   6.168
10417TIP3   OH231191   7.514   7.541   0.545
10417TIP3    H131192   7.470   7.625   0.535
10417TIP3    H231193   7.607   7.564   0.552
10418TIP3   OH231194   0.474   6.433   6.249
10418TIP3    H131195   0.499   6.370   6.182
10418TIP3    H231196   0.478   6.384   6.331
10419TIP3   OH231197   7.977   4.528   2.368
10419TIP3    H131198   7.978   4.532   2.272
10419TIP3    H231199   7.949   4.616   2.395
10420TIP3   OH231200   2.213   0.783   4.655
10420TIP3    H131201   2.125   0.756   4.631
10420TIP3    H231202   2.227   0.865   4.608
10421TIP3   OH231203   0.853   4.450   0.368
10421TIP3    H131204   0.866   4.355   0.376
10421TIP3    H231205   0.923   4.488   0.421
10422TIP3   OH231206   3.632   7.850   3.215
10422TIP3    H131207   3.608   7.939   3.239
10422TIP3    H231208   3.701   7.826   3.277
10423TIP3   OH231209   7.553   0.226   5.679
10423TIP3    H131210   7.588   0.268   5.601
10423TIP3    H231211   7.468   0.192   5.651
10424TIP3   OH231212   8.347   6.265   0.563
10424TIP3    H131213   8.365   6.257   0.657
10424TIP3    H231214   8.342   6.174   0.532
10425TIP3   OH231215   4.333   2.041   4.917
10425TIP3    H131216   4.281   2.040   4.837
10425TIP3    H231217   4.337   1.950   4.944
10426TIP3   OH231218   5.357   5.870   4.380
10426TIP3    H131219   5.324   5.952   4.345
10426TIP3    H231220   5.288   5.838   4.437
10427TIP3   OH231221   3.075   0.422   0.913
10427TIP3    H131222   3.153   0.462   0.875
10427TIP3    H231223   3.003   0.477   0.883
10428TIP3   OH231224   7.696   2.152   1.210
10428TIP3    H131225   7.769   2.112   1.163
10428TIP3    H231226   7.642   2.077   1.238
10429TIP3   OH231227   5.121   0.604   5.077
10429TIP3    H131228   5.086   0.688   5.047
10429TIP3    H231229   5.215   0.610   5.060
10430TIP3   OH231230   0.035   3.186   5.094
10430TIP3    H131231  -0.032   3.171   5.161
10430TIP3    H231232   0.062   3.099   5.067
10431TIP3   OH231233   5.776   1.219   5.744
10431TIP3    H131234   5.744   1.168   5.669
10431TIP3    H231235   5.697   1.250   5.787
10432TIP3   OH231236   6.564   2.209   0.325
10432TIP3    H131237   6.524   2.124   0.309
10432TIP3    H231238   6.503   2.254   0.384
10433TIP3   OH231239   6.061   6.057   0.695
10433TIP3    H131240   6.135   6.000   0.718
10433TIP3    H231241   6.102   6.132   0.652
10434TIP3   OH231242   4.959   0.898   2.757
10434TIP3    H131243   4.892   0.934   2.700
10434TIP3    H231244   5.032   0.959   2.752
10435TIP3   OH231245   3.728   2.792   4.739
10435TIP3    H131246   3.753   2.715   4.688
10435TIP3    H231247   3.743   2.767   4.830
10436TIP3   OH231248   1.562   5.823   0.403
10436TIP3    H131249   1.599   5.908   0.428
10436TIP3    H231250   1.571   5.769   0.482
10437TIP3   OH231251   0.007   5.429   1.988
10437TIP3    H131252  -0.035   5.359   2.037
10437TIP3    H231253   0.095   5.436   2.025
10438TIP3   OH231254   2.379   3.843   5.804
10438TIP3    H131255   2.459   3.860   5.855
10438TIP3    H231256   2.389   3.753   5.773
10439TIP3   OH231257   7.764   5.006   0.574
10439TIP3    H131258   7.805   4.992   0.488
10439TIP3    H231259   7.835   4.994   0.636
10440TIP3   OH231260   4.617   1.772   4.947
10440TIP3    H131261   4.627   1.866   4.964
10440TIP3    H231262   4.664   1.757   4.866
10441TIP3   OH231263   3.804   7.153   3.590
10441TIP3    H131264   3.716   7.151   3.552
10441TIP3    H231265   3.854   7.090   3.538
10442TIP3   OH231266   8.037   1.388   2.808
10442TIP3    H131267   8.082   1.367   2.726
10442TIP3    H231268   7.972   1.454   2.784
10443TIP3   OH231269   2.065   3.868   6.659
10443TIP3    H131270   2.034   3.948   6.618
10443TIP3    H231271   2.002   3.801   6.630
10444TIP3   OH231272   8.375   2.526   6.029
10444TIP3    H131273   8.452   2.471   6.045
10444TIP3    H231274   8.349   2.556   6.116
10445TIP3   OH231275   5.599   4.713   6.545
10445TIP3    H131276   5.656   4.772   6.496
10445TIP3    H231277   5.510   4.743   6.524
10446TIP3   OH231278   3.624   1.162   4.109
10446TIP3    H131279   3.558   1.094   4.097
10446TIP3    H231280   3.576   1.244   4.097
10447TIP3   OH231281   1.145   2.567   6.230
10447TIP3    H131282   1.239   2.572   6.245
10447TIP3    H231283   1.113   2.508   6.298
10448TIP3   OH231284   1.079   5.396   4.895
10448TIP3    H131285   1.048   5.486   4.904
10448TIP3    H231286   1.026   5.359   4.824
10449TIP3   OH231287   2.304   2.295   4.152
10449TIP3    H131288   2.321   2.367   4.212
10449TIP3    H231289   2.287   2.220   4.209
10450TIP3   OH231290   3.402   4.871   1.008
10450TIP3    H131291   3.347   4.864   0.931
10450TIP3    H231292   3.473   4.930   0.981
10451TIP3   OH231293   3.621   2.854   3.414
10451TIP3    H131294   3.575   2.886   3.336
10451TIP3    H231295   3.642   2.763   3.393
10452TIP3   OH231296   0.557   6.071   3.300
10452TIP3    H131297   0.515   6.003   3.248
10452TIP3    H231298   0.605   6.124   3.237
10453TIP3   OH231299   1.526   1.099   4.298
10453TIP3    H131300   1.450   1.080   4.243
10453TIP3    H231301   1.539   1.019   4.350
10454TIP3   OH231302   8.069   4.509   3.583
10454TIP3    H131303   8.129   4.454   3.633
10454TIP3    H231304   8.126   4.558   3.523
10455TIP3   OH231305   6.556   3.759   1.077
10455TIP3    H131306   6.563   3.853   1.088
10455TIP3    H231307   6.464   3.743   1.054
10456TIP3   OH231308   1.411   6.350   4.271
10456TIP3    H131309   1.393   6.273   4.326
10456TIP3    H231310   1.352   6.418   4.306
10457TIP3   OH231311   3.065   6.113   3.412
10457TIP3    H131312   3.139   6.054   3.394
10457TIP3    H231313   3.061   6.169   3.335
10458TIP3   OH231314   3.095   0.412   4.513
10458TIP3    H131315   3.076   0.370   4.597
10458TIP3    H231316   3.009   0.431   4.476
10459TIP3   OH231317   5.549   4.569   3.412
10459TIP3    H131318   5.487   4.560   3.485
10459TIP3    H231319   5.621   4.510   3.435
10460TIP3   OH231320   5.985   2.651   5.839
10460TIP3    H131321   6.043   2.700   5.896
10460TIP3    H231322   6.041   2.585   5.798
10461TIP3   OH231323   8.264   3.450   1.848
10461TIP3    H131324   8.248   3.529   1.900
10461TIP3    H231325   8.280   3.381   1.913
10462TIP3   OH231326   1.125   6.694   3.533
10462TIP3    H131327   1.220   6.687   3.524
10462TIP3    H231328   1.097   6.608   3.563
10463TIP3   OH231329   6.058   0.742   2.417
10463TIP3    H131330   6.007   0.697   2.485
10463TIP3    H231331   6.137   0.689   2.408
10464TIP3   OH231332   6.020   4.840   1.914
10464TIP3    H131333   6.108   4.804   1.929
10464TIP3    H231334   6.009   4.837   1.819
10465TIP3   OH231335   7.614   7.270   6.109
10465TIP3    H131336   7.613   7.197   6.046
10465TIP3    H231337   7.571   7.235   6.187
10466TIP3   OH231338   0.013   0.547   1.462
10466TIP3    H131339   0.052   0.506   1.385
10466TIP3    H231340   0.071   0.522   1.535
10467TIP3   OH231341   5.694   7.434   4.919
10467TIP3    H131342   5.692   7.430   5.015
10467TIP3    H231343   5.787   7.437   4.897
10468TIP3   OH231344   6.974   7.753   1.208
10468TIP3    H131345   7.067   7.746   1.189
10468TIP3    H231346   6.938   7.666   1.189
10469TIP3   OH231347   5.050   1.874   6.581
10469TIP3    H131348   5.040   1.964   6.611
10469TIP3    H231349   4.962   1.846   6.559
10470TIP3   OH231350   3.156   2.818   0.072
10470TIP3    H131351   3.077   2.810   0.019
10470TIP3    H231352   3.129   2.870   0.148
10471TIP3   OH231353   6.264   0.348   4.664
10471TIP3    H131354   6.218   0.267   4.682
10471TIP3    H231355   6.226   0.412   4.725
10472TIP3   OH231356   6.326   4.399   2.893
10472TIP3    H131357   6.333   4.486   2.931
10472TIP3    H231358   6.409   4.356   2.913
10473TIP3   OH231359   6.504   4.260   5.375
10473TIP3    H131360   6.546   4.280   5.291
10473TIP3    H231361   6.444   4.189   5.355
10474TIP3   OH231362   2.535   1.265   6.471
10474TIP3    H131363   2.596   1.281   6.543
10474TIP3    H231364   2.587   1.276   6.392
10475TIP3   OH231365   1.357   4.395   1.257
10475TIP3    H131366   1.365   4.303   1.232
10475TIP3    H231367   1.414   4.441   1.195
10476TIP3   OH231368   0.712   1.424   6.785
10476TIP3    H131369   0.670   1.500   6.825
10476TIP3    H231370   0.648   1.391   6.722
10477TIP3   OH231371   0.179   3.212   1.933
10477TIP3    H131372   0.226   3.267   1.870
10477TIP3    H231373   0.240   3.200   2.005
10478TIP3   OH231374   6.305   2.255   1.996
10478TIP3    H131375   6.335   2.164   1.990
10478TIP3    H231376   6.264   2.262   2.082
10479TIP3   OH231377   7.144   2.008   6.616
10479TIP3    H131378   7.163   2.093   6.656
10479TIP3    H231379   7.229   1.975   6.589
10480TIP3   OH231380   0.470   1.347   0.107
10480TIP3    H131381   0.425   1.324   0.188
10480TIP3    H231382   0.555   1.303   0.113
10481TIP3   OH231383   3.463   6.333   0.968
10481TIP3    H131384   3.459   6.415   0.919
10481TIP3    H231385   3.511   6.355   1.048
10482TIP3   OH231386   6.346   7.491   0.951
10482TIP3    H131387   6.313   7.558   0.891
10482TIP3    H231388   6.281   7.490   1.022
10483TIP3   OH231389   2.843   1.510   5.969
10483TIP3    H131390   2.783   1.546   6.033
10483TIP3    H231391   2.802   1.528   5.884
10484TIP3   OH231392   7.491   4.567   3.251
10484TIP3    H131393   7.586   4.563   3.263
10484TIP3    H231394   7.465   4.647   3.295
10485TIP3   OH231395   3.671   1.686   0.720
10485TIP3    H131396   3.712   1.722   0.642
10485TIP3    H231397   3.600   1.630   0.686
10486TIP3   OH231398   6.259   7.748   1.698
10486TIP3    H131399   6.315   7.673   1.677
10486TIP3    H231400   6.192   7.748   1.629
10487TIP3   OH231401   6.172   4.952   0.081
10487TIP3    H131402   6.196   4.906   0.162
10487TIP3    H231403   6.110   4.893   0.038
10488TIP3   OH231404   2.927   4.969   3.062
10488TIP3    H131405   2.855   4.906   3.051
10488TIP3    H231406   2.914   5.032   2.990
10489TIP3   OH231407   3.470   7.150   6.101
10489TIP3    H131408   3.556   7.123   6.133
10489TIP3    H231409   3.473   7.246   6.102
10490TIP3   OH231410   3.147   1.681   5.536
10490TIP3    H131411   3.149   1.695   5.631
10490TIP3    H231412   3.124   1.767   5.499
10491TIP3   OH231413   0.245   1.401   2.068
10491TIP3    H131414   0.248   1.487   2.111
10491TIP3    H231415   0.171   1.356   2.109
10492TIP3   OH231416   7.463   1.140   4.834
10492TIP3    H131417   7.443   1.108   4.922
10492TIP3    H231418   7.409   1.219   4.825
10493TIP3   OH231419   6.480   3.221   5.178
10493TIP3    H131420   6.397   3.204   5.222
10493TIP3    H231421   6.507   3.307   5.211
10494TIP3   OH231422   6.335   0.413   0.192
10494TIP3    H131423   6.306   0.348   0.256
10494TIP3    H231424   6.294   0.385   0.110
10495TIP3   OH231425   1.636   3.727   4.933
10495TIP3    H131426   1.622   3.822   4.937
10495TIP3    H231427   1.698   3.710   5.004
10496TIP3   OH231428   4.738   4.976   4.223
10496TIP3    H131429   4.794   4.915   4.175
10496TIP3    H231430   4.798   5.018   4.285
10497TIP3   OH231431   3.647   4.433   0.729
10497TIP3    H131432   3.611   4.520   0.716
10497TIP3    H231433   3.637   4.390   0.643
10498TIP3   OH231434   4.113   3.930   4.543
10498TIP3    H131435   4.040   3.871   4.560
10498TIP3    H231436   4.185   3.873   4.518
10499TIP3   OH231437   6.794   4.098   0.825
10499TIP3    H131438   6.750   4.135   0.902
10499TIP3    H231439   6.849   4.168   0.792
10500TIP3   OH231440   2.639   0.995   1.301
10500TIP3    H131441   2.574   1.048   1.347
10500TIP3    H231442   2.699   1.059   1.263
10501TIP3   OH231443   3.742   6.752   6.147
10501TIP3    H131444   3.662   6.736   6.097
10501TIP3    H231445   3.768   6.665   6.177
10502TIP3   OH231446   2.270   6.099   3.259
10502TIP3    H131447   2.313   6.184   3.250
10502TIP3    H231448   2.189   6.108   3.209
10503TIP3   OH231449   2.630   4.012   0.976
10503TIP3    H131450   2.586   3.951   1.035
10503TIP3    H231451   2.671   3.956   0.910
10504TIP3   OH231452   4.880   3.510   5.286
10504TIP3    H131453   4.883   3.447   5.214
10504TIP3    H231454   4.812   3.477   5.344
10505TIP3   OH231455   0.352   5.741   2.449
10505TIP3    H131456   0.369   5.809   2.513
10505TIP3    H231457   0.351   5.786   2.365
10506TIP3   OH231458   7.364   3.312   5.096
10506TIP3    H131459   7.423   3.321   5.021
10506TIP3    H231460   7.405   3.247   5.152
10507TIP3   OH231461   5.332   1.471   3.608
10507TIP3    H131462   5.416   1.468   3.654
10507TIP3    H231463   5.306   1.379   3.602
10508TIP3   OH231464  -0.029   5.182   4.397
10508TIP3    H131465   0.017   5.265   4.412
10508TIP3    H231466   0.031   5.115   4.431
10509TIP3   OH231467   1.120   5.044   5.192
10509TIP3    H131468   1.199   5.087   5.225
10509TIP3    H231469   1.051   5.069   5.254
10510TIP3   OH231470   5.503   4.789   2.743
10510TIP3    H131471   5.425   4.757   2.699
10510TIP3    H231472   5.488   4.770   2.836
10511TIP3   OH231473   0.572   0.228   1.616
10511TIP3    H131474   0.490   0.272   1.594
10511TIP3    H231475   0.603   0.192   1.533
10512TIP3   OH231476   6.268   5.588   1.429
10512TIP3    H131477   6.260   5.623   1.518
10512TIP3    H231478   6.231   5.500   1.435
10513TIP3   OH231479   1.466   4.233   4.526
10513TIP3    H131480   1.533   4.278   4.577
10513TIP3    H231481   1.427   4.302   4.472
10514TIP3   OH231482   1.609   0.099   5.846
10514TIP3    H131483   1.527   0.129   5.809
10514TIP3    H231484   1.676   0.125   5.783
10515TIP3   OH231485   8.046   6.045   3.695
10515TIP3    H131486   8.083   6.115   3.641
10515TIP3    H231487   8.109   5.973   3.686
10516TIP3   OH231488   1.754   6.367   6.330
10516TIP3    H131489   1.715   6.454   6.328
10516TIP3    H231490   1.805   6.362   6.249
10517TIP3   OH231491   2.717   6.721   2.959
10517TIP3    H131492   2.662   6.721   2.881
10517TIP3    H231493   2.775   6.646   2.947
10518TIP3   OH231494   4.816   1.613   5.548
10518TIP3    H131495   4.805   1.627   5.454
10518TIP3    H231496   4.802   1.519   5.560
10519TIP3   OH231497   6.933   6.827   0.819
10519TIP3    H131498   6.954   6.736   0.839
10519TIP3    H231499   6.952   6.836   0.725
10520TIP3   OH231500   2.708   1.631   6.187
10520TIP3    H131501   2.669   1.718   6.193
10520TIP3    H231502   2.687   1.589   6.271
10521TIP3   OH231503   0.244   5.108   6.371
10521TIP3    H131504   0.306   5.179   6.387
10521TIP3    H231505   0.262   5.043   6.439
10522TIP3   OH231506   4.480   5.120   0.717
10522TIP3    H131507   4.388   5.143   0.728
10522TIP3    H231508   4.509   5.174   0.643
10523TIP3   OH231509   7.605   3.540   5.994
10523TIP3    H131510   7.661   3.515   5.920
10523TIP3    H231511   7.587   3.633   5.980
10524TIP3   OH231512   6.509   0.236   4.596
10524TIP3    H131513   6.429   0.289   4.599
10524TIP3    H231514   6.578   0.299   4.573
10525TIP3   OH231515   4.648   6.097   0.668
10525TIP3    H131516   4.565   6.086   0.623
10525TIP3    H231517   4.624   6.123   0.757
10526TIP3   OH231518   0.515   4.108   6.756
10526TIP3    H131519   0.443   4.045   6.755
10526TIP3    H231520   0.490   4.174   6.691
10527TIP3   OH231521   4.994   1.102   3.226
10527TIP3    H131522   5.022   1.096   3.134
10527TIP3    H231523   4.979   1.012   3.252
10528TIP3   OH231524   5.143   4.435   4.945
10528TIP3    H131525   5.137   4.352   4.993
10528TIP3    H231526   5.136   4.502   5.013
10529TIP3   OH231527   5.430   2.408   2.620
10529TIP3    H131528   5.399   2.327   2.580
10529TIP3    H231529   5.496   2.442   2.560
10530TIP3   OH231530   3.333   0.951   0.467
10530TIP3    H131531   3.265   0.948   0.535
10530TIP3    H231532   3.412   0.922   0.513
10531TIP3   OH231533   4.703   1.415   0.115
10531TIP3    H131534   4.614   1.413   0.150
10531TIP3    H231535   4.696   1.375   0.028
10532TIP3   OH231536   5.798   2.917   4.187
10532TIP3    H131537   5.714   2.914   4.232
10532TIP3    H231538   5.863   2.899   4.255
10533TIP3   OH231539   0.463   4.215   2.897
10533TIP3    H131540   0.410   4.278   2.946
10533TIP3    H231541   0.506   4.268   2.830
10534TIP3   OH231542   6.729   3.265   4.318
10534TIP3    H131543   6.796   3.197   4.318
10534TIP3    H231544   6.651   3.221   4.283
10535TIP3   OH231545   3.739   2.594   2.476
10535TIP3    H131546   3.792   2.571   2.553
10535TIP3    H231547   3.779   2.545   2.404
10536TIP3   OH231548   0.119   4.401   0.258
10536TIP3    H131549   0.189   4.458   0.290
10536TIP3    H231550   0.160   4.315   0.250
10537TIP3   OH231551   1.753   4.201   4.323
10537TIP3    H131552   1.695   4.157   4.384
10537TIP3    H231553   1.723   4.292   4.323
10538TIP3   OH231554   7.173   3.371   6.679
10538TIP3    H131555   7.140   3.435   6.616
10538TIP3    H231556   7.131   3.289   6.654
10539TIP3   OH231557   6.655   7.048   5.137
10539TIP3    H131558   6.637   7.136   5.171
10539TIP3    H231559   6.688   7.000   5.213
10540TIP3   OH231560   4.150   3.892   6.209
10540TIP3    H131561   4.100   3.965   6.245
10540TIP3    H231562   4.174   3.920   6.121
10541TIP3   OH231563   2.402   3.197   4.575
10541TIP3    H131564   2.493   3.217   4.554
10541TIP3    H231565   2.365   3.280   4.604
10542TIP3   OH231566   0.546   1.287   3.348
10542TIP3    H131567   0.475   1.233   3.382
10542TIP3    H231568   0.607   1.224   3.307
10543TIP3   OH231569   3.395   7.763   5.737
10543TIP3    H131570   3.411   7.758   5.831
10543TIP3    H231571   3.458   7.827   5.705
10544TIP3   OH231572   3.635   7.194   2.653
10544TIP3    H131573   3.563   7.168   2.711
10544TIP3    H231574   3.693   7.246   2.709
10545TIP3   OH231575   6.818   2.134   3.262
10545TIP3    H131576   6.747   2.187   3.299
10545TIP3    H231577   6.884   2.130   3.331
10546TIP3   OH231578   2.708   5.698   3.309
10546TIP3    H131579   2.730   5.608   3.332
10546TIP3    H231580   2.680   5.738   3.391
10547TIP3   OH231581   3.289   3.589   0.999
10547TIP3    H131582   3.200   3.583   0.966
10547TIP3    H231583   3.324   3.670   0.962
10548TIP3   OH231584   0.071   1.541   4.266
10548TIP3    H131585   0.071   1.460   4.215
10548TIP3    H231586   0.113   1.518   4.348
10549TIP3   OH231587   4.687   3.374   2.024
10549TIP3    H131588   4.770   3.345   2.061
10549TIP3    H231589   4.621   3.346   2.088
10550TIP3   OH231590   4.719   7.606   1.223
10550TIP3    H131591   4.675   7.646   1.148
10550TIP3    H231592   4.774   7.675   1.259
10551TIP3   OH231593   4.553   5.757   2.173
10551TIP3    H131594   4.597   5.673   2.162
10551TIP3    H231595   4.551   5.771   2.268
10552TIP3   OH231596   7.308   1.540   3.760
10552TIP3    H131597   7.304   1.546   3.856
10552TIP3    H231598   7.250   1.468   3.738
10553TIP3   OH231599   4.550   0.859   0.531
10553TIP3    H131600   4.550   0.765   0.546
10553TIP3    H231601   4.578   0.869   0.440
10554TIP3   OH231602   2.666   7.176   4.878
10554TIP3    H131603   2.599   7.127   4.927
10554TIP3    H231604   2.741   7.181   4.937
10555TIP3   OH231605   7.851   0.888   5.419
10555TIP3    H131606   7.823   0.904   5.509
10555TIP3    H231607   7.944   0.871   5.426
10556TIP3   OH231608   0.740   7.685   5.622
10556TIP3    H131609   0.717   7.761   5.570
10556TIP3    H231610   0.834   7.672   5.606
10557TIP3   OH231611   4.897   6.183   3.484
10557TIP3    H131612   4.913   6.119   3.554
10557TIP3    H231613   4.984   6.218   3.463
10558TIP3   OH231614   0.963   5.758   1.242
10558TIP3    H131615   0.914   5.701   1.301
10558TIP3    H231616   0.940   5.847   1.269
10559TIP3   OH231617   4.498   2.949   2.411
10559TIP3    H131618   4.526   2.945   2.319
10559TIP3    H231619   4.484   2.858   2.435
10560TIP3   OH231620   3.365   3.881   3.325
10560TIP3    H131621   3.325   3.865   3.239
10560TIP3    H231622   3.328   3.965   3.353
10561TIP3   OH231623   2.118   1.551   2.886
10561TIP3    H131624   2.093   1.596   2.806
10561TIP3    H231625   2.187   1.605   2.924
10562TIP3   OH231626   5.749   6.471   0.597
10562TIP3    H131627   5.661   6.451   0.627
10562TIP3    H231628   5.801   6.393   0.618
10563TIP3   OH231629   6.550   2.249   2.794
10563TIP3    H131630   6.535   2.259   2.888
10563TIP3    H231631   6.479   2.298   2.753
10564TIP3   OH231632   5.082   7.041   4.943
10564TIP3    H131633   5.095   6.958   4.896
10564TIP3    H231634   4.990   7.040   4.968
10565TIP3   OH231635   5.167   0.329   5.072
10565TIP3    H131636   5.136   0.419   5.069
10565TIP3    H231637   5.161   0.299   4.981
10566TIP3   OH231638   2.722   2.600   1.904
10566TIP3    H131639   2.654   2.609   1.972
10566TIP3    H231640   2.724   2.685   1.861
10567TIP3   OH231641   7.515   1.744   0.600
10567TIP3    H131642   7.490   1.832   0.570
10567TIP3    H231643   7.479   1.739   0.689
10568TIP3   OH231644   3.198   0.553   1.122
10568TIP3    H131645   3.103   0.563   1.114
10568TIP3    H231646   3.227   0.533   1.033
10569TIP3   OH231647   7.130   7.780   5.941
10569TIP3    H131648   7.208   7.733   5.970
10569TIP3    H231649   7.163   7.861   5.902
10570TIP3   OH231650   0.855   4.186   2.513
10570TIP3    H131651   0.883   4.205   2.603
10570TIP3    H231652   0.931   4.209   2.459
10571TIP3   OH231653   7.387   6.381   5.902
10571TIP3    H131654   7.341   6.298   5.911
10571TIP3    H231655   7.394   6.414   5.992
10572TIP3   OH231656   8.272   3.306   4.335
10572TIP3    H131657   8.244   3.222   4.299
10572TIP3    H231658   8.197   3.365   4.321
10573TIP3   OH231659   2.361   1.398   3.739
10573TIP3    H131660   2.389   1.483   3.773
10573TIP3    H231661   2.365   1.339   3.814
10574TIP3   OH231662   4.879   2.753   5.855
10574TIP3    H131663   4.791   2.749   5.892
10574TIP3    H231664   4.921   2.826   5.900
10575TIP3   OH231665   2.262   0.482   5.026
10575TIP3    H131666   2.290   0.458   5.114
10575TIP3    H231667   2.279   0.403   4.973
10576TIP3   OH231668   3.222   1.213   6.839
10576TIP3    H131669   3.281   1.148   6.877
10576TIP3    H231670   3.279   1.273   6.790
10577TIP3   OH231671   7.299   2.116   0.921
10577TIP3    H131672   7.347   2.040   0.890
10577TIP3    H231673   7.275   2.094   1.011
10578TIP3   OH231674   5.462   4.979   6.773
10578TIP3    H131675   5.520   5.026   6.713
10578TIP3    H231676   5.383   4.964   6.722
10579TIP3   OH231677   6.656   6.142   5.960
10579TIP3    H131678   6.630   6.213   6.019
10579TIP3    H231679   6.746   6.122   5.985
10580TIP3   OH231680   4.128   0.034   0.450
10580TIP3    H131681   4.101   0.034   0.542
10580TIP3    H231682   4.060  -0.016   0.406
10581TIP3   OH231683   5.600   3.163   1.759
10581TIP3    H131684   5.684   3.191   1.796
10581TIP3    H231685   5.538   3.170   1.831
10582TIP3   OH231686   1.012   3.356   4.488
10582TIP3    H131687   0.984   3.266   4.507
10582TIP3    H231688   0.989   3.405   4.568
10583TIP3   OH231689   4.989   2.614   5.562
10583TIP3    H131690   4.901   2.621   5.525
10583TIP3    H231691   5.026   2.702   5.552
10584TIP3   OH231692   8.074   5.213   1.230
10584TIP3    H131693   8.166   5.211   1.204
10584TIP3    H231694   8.026   5.193   1.150
10585TIP3   OH231695   5.849   6.370   3.845
10585TIP3    H131696   5.808   6.400   3.764
10585TIP3    H231697   5.929   6.325   3.816
10586TIP3   OH231698   4.989   4.396   6.322
10586TIP3    H131699   5.009   4.330   6.255
10586TIP3    H231700   4.929   4.352   6.381
10587TIP3   OH231701   4.093   3.692   5.765
10587TIP3    H131702   4.112   3.784   5.751
10587TIP3    H231703   4.176   3.654   5.795
10588TIP3   OH231704   3.655   7.228   2.006
10588TIP3    H131705   3.721   7.167   2.037
10588TIP3    H231706   3.574   7.176   2.004
10589TIP3   OH231707   0.594   6.328   5.052
10589TIP3    H131708   0.602   6.260   4.984
10589TIP3    H231709   0.617   6.409   5.006
10590TIP3   OH231710   3.893   4.693   0.854
10590TIP3    H131711   3.941   4.773   0.879
10590TIP3    H231712   3.859   4.713   0.766
10591TIP3   OH231713   1.772   1.828   5.812
10591TIP3    H131714   1.774   1.820   5.717
10591TIP3    H231715   1.691   1.875   5.831
10592TIP3   OH231716   2.897   1.777   6.640
10592TIP3    H131717   2.900   1.683   6.618
10592TIP3    H231718   2.835   1.814   6.577
10593TIP3   OH231719   7.018   5.920   2.084
10593TIP3    H131720   7.112   5.916   2.068
10593TIP3    H231721   6.984   5.972   2.011
10594TIP3   OH231722   7.499   1.151   2.131
10594TIP3    H131723   7.409   1.168   2.158
10594TIP3    H231724   7.548   1.139   2.212
10595TIP3   OH231725   4.460   0.595   2.730
10595TIP3    H131726   4.382   0.596   2.786
10595TIP3    H231727   4.507   0.675   2.753
10596TIP3   OH231728   2.184   5.604   1.864
10596TIP3    H131729   2.118   5.587   1.932
10596TIP3    H231730   2.169   5.536   1.799
10597TIP3   OH231731   5.247   4.313   2.123
10597TIP3    H131732   5.277   4.293   2.212
10597TIP3    H231733   5.308   4.267   2.066
10598TIP3   OH231734   7.298   2.125   3.907
10598TIP3    H131735   7.392   2.139   3.914
10598TIP3    H231736   7.260   2.177   3.978
10599TIP3   OH231737   1.574   2.714   1.117
10599TIP3    H131738   1.514   2.788   1.110
10599TIP3    H231739   1.637   2.727   1.046
10600TIP3   OH231740   7.284   6.728   0.892
10600TIP3    H131741   7.224   6.675   0.945
10600TIP3    H231742   7.237   6.811   0.879
10601TIP3   OH231743   4.027   0.436   3.544
10601TIP3    H131744   4.104   0.489   3.566
10601TIP3    H231745   3.959   0.467   3.603
10602TIP3   OH231746   1.780   6.717   5.656
10602TIP3    H131747   1.811   6.805   5.633
10602TIP3    H231748   1.703   6.704   5.601
10603TIP3   OH231749   1.877   2.457   2.881
10603TIP3    H131750   1.967   2.465   2.913
10603TIP3    H231751   1.868   2.364   2.859
10604TIP3   OH231752   2.447   1.159   0.507
10604TIP3    H131753   2.411   1.236   0.549
10604TIP3    H231754   2.410   1.161   0.418
10605TIP3   OH231755   3.587   6.533   6.818
10605TIP3    H131756   3.517   6.519   6.755
10605TIP3    H231757   3.573   6.622   6.850
10606TIP3   OH231758   4.185   6.078   6.167
10606TIP3    H131759   4.242   6.110   6.238
10606TIP3    H231760   4.103   6.125   6.180
10607TIP3   OH231761   6.814   3.794   6.491
10607TIP3    H131762   6.846   3.863   6.433
10607TIP3    H231763   6.852   3.816   6.577
10608TIP3   OH231764   6.195   1.254   4.317
10608TIP3    H131765   6.265   1.301   4.362
10608TIP3    H231766   6.185   1.301   4.234
10609TIP3   OH231767   2.985   7.819   2.590
10609TIP3    H131768   2.949   7.895   2.635
10609TIP3    H231769   2.970   7.836   2.497
10610TIP3   OH231770   4.218   3.561   3.768
10610TIP3    H131771   4.258   3.502   3.832
10610TIP3    H231772   4.270   3.548   3.688
10611TIP3   OH231773   5.669   3.388   5.948
10611TIP3    H131774   5.575   3.398   5.936
10611TIP3    H231775   5.681   3.389   6.043
10612TIP3   OH231776   1.632   7.687   2.380
10612TIP3    H131777   1.605   7.778   2.368
10612TIP3    H231778   1.581   7.639   2.315
10613TIP3   OH231779   5.447   4.697   0.202
10613TIP3    H131780   5.456   4.638   0.128
10613TIP3    H231781   5.353   4.717   0.206
10614TIP3   OH231782   4.025   0.318   3.894
10614TIP3    H131783   3.965   0.373   3.844
10614TIP3    H231784   4.079   0.275   3.828
10615TIP3   OH231785   2.809   3.201   3.608
10615TIP3    H131786   2.740   3.171   3.548
10615TIP3    H231787   2.843   3.120   3.647
10616TIP3   OH231788   8.078   2.580   1.587
10616TIP3    H131789   8.060   2.489   1.612
10616TIP3    H231790   8.159   2.602   1.631
10617TIP3   OH231791   3.107   6.453   0.841
10617TIP3    H131792   3.014   6.470   0.855
10617TIP3    H231793   3.134   6.404   0.919
10618TIP3   OH231794   4.113   1.386   2.653
10618TIP3    H131795   4.044   1.453   2.647
10618TIP3    H231796   4.122   1.353   2.564
10619TIP3   OH231797   3.358   1.980   0.594
10619TIP3    H131798   3.339   2.047   0.659
10619TIP3    H231799   3.422   2.020   0.535
10620TIP3   OH231800   5.205   4.331   5.346
10620TIP3    H131801   5.123   4.308   5.390
10620TIP3    H231802   5.190   4.307   5.255
10621TIP3   OH231803   7.319   1.357   0.563
10621TIP3    H131804   7.306   1.274   0.608
10621TIP3    H231805   7.414   1.369   0.563
10622TIP3   OH231806   2.986   0.278   2.929
10622TIP3    H131807   3.058   0.339   2.910
10622TIP3    H231808   3.020   0.224   3.001
10623TIP3   OH231809   6.786   3.135   1.214
10623TIP3    H131810   6.695   3.158   1.233
10623TIP3    H231811   6.798   3.161   1.122
10624TIP3   OH231812   7.824   7.624   5.473
10624TIP3    H131813   7.754   7.666   5.423
10624TIP3    H231814   7.887   7.596   5.406
10625TIP3   OH231815   2.557   4.587   2.695
10625TIP3    H131816   2.643   4.575   2.654
10625TIP3    H231817   2.526   4.498   2.713
10626TIP3   OH231818   2.740   1.874   1.469
10626TIP3    H131819   2.710   1.808   1.408
10626TIP3    H231820   2.823   1.840   1.502
10627TIP3   OH231821   8.223   3.161   2.303
10627TIP3    H131822   8.183   3.239   2.341
10627TIP3    H231823   8.233   3.182   2.210
10628TIP3   OH231824   6.091   3.119   6.335
10628TIP3    H131825   6.107   3.213   6.347
10628TIP3    H231826   6.098   3.082   6.423
10629TIP3   OH231827   6.888   7.105   4.291
10629TIP3    H131828   6.853   7.193   4.299
10629TIP3    H231829   6.920   7.083   4.378
10630TIP3   OH231830   1.804   2.034   6.203
10630TIP3    H131831   1.759   1.954   6.232
10630TIP3    H231832   1.891   2.028   6.241
10631TIP3   OH231833   8.350   4.879   0.431
10631TIP3    H131834   8.377   4.869   0.340
10631TIP3    H231835   8.430   4.865   0.481
10632TIP3   OH231836   1.172   7.809   6.656
10632TIP3    H131837   1.086   7.784   6.621
10632TIP3    H231838   1.234   7.783   6.589
10633TIP3   OH231839   0.414   1.398   4.981
10633TIP3    H131840   0.401   1.475   5.036
10633TIP3    H231841   0.351   1.334   5.014
10634TIP3   OH231842   1.727   3.425   5.939
10634TIP3    H131843   1.703   3.465   5.855
10634TIP3    H231844   1.782   3.351   5.915
10635TIP3   OH231845   2.862   6.301   0.501
10635TIP3    H131846   2.868   6.375   0.440
10635TIP3    H231847   2.942   6.306   0.553
10636TIP3   OH231848   7.293   0.194   2.831
10636TIP3    H131849   7.259   0.111   2.863
10636TIP3    H231850   7.288   0.253   2.906
10637TIP3   OH231851   4.162   7.028   4.452
10637TIP3    H131852   4.068   7.035   4.436
10637TIP3    H231853   4.173   6.941   4.492
10638TIP3   OH231854   1.896   6.269   3.989
10638TIP3    H131855   1.825   6.295   4.048
10638TIP3    H231856   1.957   6.220   4.045
10639TIP3   OH231857   0.531   2.795   6.663
10639TIP3    H131858   0.491   2.865   6.713
10639TIP3    H231859   0.532   2.720   6.723
10640TIP3   OH231860   3.582   6.008   4.130
10640TIP3    H131861   3.605   5.950   4.203
10640TIP3    H231862   3.620   5.967   4.053
10641TIP3   OH231863   4.349   6.157   6.450
10641TIP3    H131864   4.266   6.203   6.463
10641TIP3    H231865   4.410   6.201   6.508
10642TIP3   OH231866   1.895   7.420   0.683
10642TIP3    H131867   1.812   7.387   0.716
10642TIP3    H231868   1.884   7.515   0.680
10643TIP3   OH231869   6.738   1.356   3.445
10643TIP3    H131870   6.750   1.294   3.372
10643TIP3    H231871   6.673   1.418   3.413
10644TIP3   OH231872   3.008   4.837   1.960
10644TIP3    H131873   2.937   4.829   1.897
10644TIP3    H231874   2.964   4.857   2.043
10645TIP3   OH231875   3.155   0.613   3.012
10645TIP3    H131876   3.233   0.644   3.058
10645TIP3    H231877   3.133   0.683   2.951
10646TIP3   OH231878   1.719   4.706   2.031
10646TIP3    H131879   1.654   4.713   1.960
10646TIP3    H231880   1.748   4.615   2.028
10647TIP3   OH231881   3.515   0.086   3.073
10647TIP3    H131882   3.551   0.017   3.017
10647TIP3    H231883   3.549   0.167   3.036
10648TIP3   OH231884   7.782   7.368   2.977
10648TIP3    H131885   7.803   7.306   2.907
10648TIP3    H231886   7.856   7.360   3.038
10649TIP3   OH231887   3.604   6.254   5.247
10649TIP3    H131888   3.607   6.173   5.298
10649TIP3    H231889   3.648   6.232   5.165
10650TIP3   OH231890   6.535   7.761   2.971
10650TIP3    H131891   6.601   7.701   2.935
10650TIP3    H231892   6.457   7.745   2.919
10651TIP3   OH231893   7.616   7.356   0.960
10651TIP3    H131894   7.670   7.322   0.889
10651TIP3    H231895   7.653   7.319   1.040
10652TIP3   OH231896   1.015   0.759   1.055
10652TIP3    H131897   0.924   0.773   1.083
10652TIP3    H231898   1.019   0.799   0.968
10653TIP3   OH231899   1.884   1.566   4.547
10653TIP3    H131900   1.843   1.639   4.592
10653TIP3    H231901   1.870   1.491   4.605
10654TIP3   OH231902   2.720   0.164   3.551
10654TIP3    H131903   2.735   0.140   3.643
10654TIP3    H231904   2.660   0.096   3.519
10655TIP3   OH231905   3.977   2.781   0.209
10655TIP3    H131906   3.976   2.841   0.135
10655TIP3    H231907   4.068   2.753   0.217
10656TIP3   OH231908   1.269   7.798   3.466
10656TIP3    H131909   1.315   7.816   3.548
10656TIP3    H231910   1.313   7.852   3.401
10657TIP3   OH231911   7.768   1.170   0.708
10657TIP3    H131912   7.773   1.082   0.745
10657TIP3    H231913   7.855   1.186   0.671
10658TIP3   OH231914   4.837   2.960   5.326
10658TIP3    H131915   4.845   2.873   5.289
10658TIP3    H231916   4.826   2.946   5.420
10659TIP3   OH231917   7.218   2.595   4.149
10659TIP3    H131918   7.203   2.661   4.081
10659TIP3    H231919   7.138   2.599   4.203
10660TIP3   OH231920   8.141   6.384   0.869
10660TIP3    H131921   8.079   6.362   0.800
10660TIP3    H231922   8.089   6.381   0.949
10661TIP3   OH231923   4.591   6.996   0.018
10661TIP3    H131924   4.540   6.949  -0.049
10661TIP3    H231925   4.529   7.059   0.055
10662TIP3   OH231926   6.025   3.390   5.690
10662TIP3    H131927   5.930   3.381   5.695
10662TIP3    H231928   6.045   3.462   5.749
10663TIP3   OH231929   0.663   4.679   2.760
10663TIP3    H131930   0.747   4.723   2.753
10663TIP3    H231931   0.599   4.746   2.734
10664TIP3   OH231932   1.291   3.365   4.490
10664TIP3    H131933   1.196   3.371   4.495
10664TIP3    H231934   1.321   3.456   4.488
10665TIP3   OH231935   2.686   6.024   5.956
10665TIP3    H131936   2.777   6.036   5.927
10665TIP3    H231937   2.636   6.012   5.875
10666TIP3   OH231938   7.043   3.369   3.229
10666TIP3    H131939   7.011   3.457   3.209
10666TIP3    H231940   7.114   3.383   3.292
10667TIP3   OH231941   2.724   6.936   0.544
10667TIP3    H131942   2.676   6.932   0.461
10667TIP3    H231943   2.733   6.845   0.572
10668TIP3   OH231944   2.225   5.999   5.925
10668TIP3    H131945   2.306   6.029   5.965
10668TIP3    H231946   2.231   6.027   5.834
10669TIP3   OH231947   2.824   7.355   6.842
10669TIP3    H131948   2.889   7.389   6.904
10669TIP3    H231949   2.828   7.416   6.768
10670TIP3   OH231950   4.755   4.074   2.017
10670TIP3    H131951   4.692   4.129   1.970
10670TIP3    H231952   4.837   4.124   2.014
10671TIP3   OH231953   7.981   3.700   0.767
10671TIP3    H131954   8.072   3.683   0.743
10671TIP3    H231955   7.986   3.738   0.855
10672TIP3   OH231956   4.147   6.891   6.856
10672TIP3    H131957   4.152   6.902   6.761
10672TIP3    H231958   4.061   6.851   6.871
10673TIP3   OH231959   7.040   5.585   1.160
10673TIP3    H131960   7.082   5.521   1.217
10673TIP3    H231961   6.974   5.535   1.112
10674TIP3   OH231962   4.578   3.353   0.636
10674TIP3    H131963   4.507   3.298   0.668
10674TIP3    H231964   4.579   3.340   0.541
10675TIP3   OH231965   7.160   6.302   3.854
10675TIP3    H131966   7.140   6.218   3.896
10675TIP3    H231967   7.157   6.283   3.760
10676TIP3   OH231968   6.596   3.343   1.325
10676TIP3    H131969   6.571   3.371   1.237
10676TIP3    H231970   6.513   3.329   1.371
10677TIP3   OH231971   0.209   3.551   1.420
10677TIP3    H131972   0.175   3.511   1.500
10677TIP3    H231973   0.280   3.608   1.450
10678TIP3   OH231974   0.480   2.849   4.866
10678TIP3    H131975   0.393   2.889   4.870
10678TIP3    H231976   0.463   2.755   4.861
10679TIP3   OH231977   3.408   0.321   1.619
10679TIP3    H131978   3.432   0.371   1.540
10679TIP3    H231979   3.362   0.383   1.674
10680TIP3   OH231980   7.608   6.710   6.392
10680TIP3    H131981   7.663   6.641   6.354
10680TIP3    H231982   7.666   6.786   6.399
10681TIP3   OH231983   3.323   5.393   0.836
10681TIP3    H131984   3.265   5.317   0.835
10681TIP3    H231985   3.270   5.464   0.872
10682TIP3   OH231986   2.301   2.245   3.492
10682TIP3    H131987   2.353   2.324   3.511
10682TIP3    H231988   2.267   2.218   3.578
10683TIP3   OH231989   6.699   6.814   5.810
10683TIP3    H131990   6.741   6.800   5.895
10683TIP3    H231991   6.610   6.780   5.821
10684TIP3   OH231992   5.337   2.589   2.262
10684TIP3    H131993   5.408   2.612   2.322
10684TIP3    H231994   5.273   2.660   2.273
10685TIP3   OH231995   7.981   0.334   4.996
10685TIP3    H131996   8.009   0.421   4.967
10685TIP3    H231997   7.965   0.344   5.090
10686TIP3   OH231998   4.859   3.011   2.634
10686TIP3    H131999   4.911   3.018   2.715
10686TIP3    H232000   4.769   3.029   2.661
10687TIP3   OH232001   2.433   5.190   1.084
10687TIP3    H132002   2.370   5.119   1.098
10687TIP3    H232003   2.388   5.250   1.025
10688TIP3   OH232004   1.953   2.695   6.460
10688TIP3    H132005   1.857   2.697   6.460
10688TIP3    H232006   1.978   2.747   6.537
10689TIP3   OH232007   4.194   4.292   6.331
10689TIP3    H132008   4.244   4.359   6.378
10689TIP3    H232009   4.104   4.325   6.332
10690TIP3   OH232010   1.123   7.794   0.352
10690TIP3    H132011   1.182   7.732   0.308
10690TIP3    H232012   1.045   7.795   0.298
10691TIP3   OH232013   8.364   0.486   2.306
10691TIP3    H132014   8.460   0.488   2.311
10691TIP3    H232015   8.344   0.520   2.218
10692TIP3   OH232016   7.184   7.228   2.790
10692TIP3    H132017   7.148   7.311   2.759
10692TIP3    H232018   7.134   7.208   2.869
10693TIP3   OH232019   0.939   2.324   0.674
10693TIP3    H132020   0.962   2.400   0.728
10693TIP3    H232021   1.014   2.313   0.616
10694TIP3   OH232022   6.064   1.646   0.801
10694TIP3    H132023   6.029   1.584   0.737
10694TIP3    H232024   6.068   1.729   0.754
10695TIP3   OH232025   0.783   4.674   5.667
10695TIP3    H132026   0.833   4.708   5.593
10695TIP3    H232027   0.825   4.591   5.689
10696TIP3   OH232028  -0.011   7.575   4.227
10696TIP3    H132029  -0.025   7.584   4.132
10696TIP3    H232030   0.053   7.643   4.248
10697TIP3   OH232031   7.633   1.714   5.688
10697TIP3    H132032   7.567   1.658   5.646
10697TIP3    H232033   7.678   1.757   5.615
10698TIP3   OH232034   1.654   5.242   6.044
10698TIP3    H132035   1.642   5.202   6.130
10698TIP3    H232036   1.736   5.290   6.051
10699TIP3   OH232037   4.468   3.085   5.075
10699TIP3    H132038   4.406   3.131   5.132
10699TIP3    H232039   4.466   2.994   5.107
10700TIP3   OH232040   4.108   7.697   5.752
10700TIP3    H132041   4.012   7.693   5.751
10700TIP3    H232042   4.134   7.608   5.777
10701TIP3   OH232043   3.128   4.739   2.500
10701TIP3    H132044   3.044   4.749   2.457
10701TIP3    H232045   3.121   4.791   2.580
10702TIP3   OH232046   3.132   2.820   2.874
10702TIP3    H132047   3.056   2.861   2.915
10702TIP3    H232048   3.179   2.893   2.833
10703TIP3   OH232049   5.047   6.230   6.643
10703TIP3    H132050   5.126   6.180   6.626
10703TIP3    H232051   4.989   6.168   6.688
10704TIP3   OH232052   7.210   3.314   4.391
10704TIP3    H132053   7.213   3.240   4.329
10704TIP3    H232054   7.122   3.348   4.383
10705TIP3   OH232055   4.503   6.306   4.844
10705TIP3    H132056   4.576   6.286   4.785
10705TIP3    H232057   4.427   6.265   4.803
10706TIP3   OH232058   3.232   7.722   6.495
10706TIP3    H132059   3.293   7.695   6.563
10706TIP3    H232060   3.267   7.804   6.462
10707TIP3   OH232061   3.371   3.883   0.958
10707TIP3    H132062   3.443   3.937   0.925
10707TIP3    H232063   3.304   3.888   0.889
10708TIP3   OH232064   3.276   1.707   6.026
10708TIP3    H132065   3.367   1.701   6.055
10708TIP3    H232066   3.261   1.626   5.978
10709TIP3   OH232067   7.869   6.481   6.504
10709TIP3    H132068   7.923   6.407   6.530
10709TIP3    H232069   7.855   6.470   6.410
10710TIP3   OH232070   2.045   3.937   2.140
10710TIP3    H132071   1.981   4.007   2.130
10710TIP3    H232072   2.082   3.950   2.227
10711TIP3   OH232073   6.572   1.491   5.192
10711TIP3    H132074   6.514   1.435   5.244
10711TIP3    H232075   6.652   1.500   5.245
10712TIP3   OH232076   1.442   3.115   6.148
10712TIP3    H132077   1.419   3.107   6.241
10712TIP3    H232078   1.442   3.209   6.131
10713TIP3   OH232079   8.368   5.465   3.805
10713TIP3    H132080   8.431   5.521   3.759
10713TIP3    H232081   8.286   5.515   3.804
10714TIP3   OH232082   3.593   0.848   2.492
10714TIP3    H132083   3.668   0.839   2.433
10714TIP3    H232084   3.571   0.941   2.489
10715TIP3   OH232085   7.854   5.918   1.408
10715TIP3    H132086   7.855   5.846   1.472
10715TIP3    H232087   7.926   5.975   1.436
10716TIP3   OH232088   3.267   3.684   3.945
10716TIP3    H132089   3.269   3.609   4.005
10716TIP3    H232090   3.276   3.760   4.003
10717TIP3   OH232091   7.784   7.074   4.395
10717TIP3    H132092   7.697   7.048   4.427
10717TIP3    H232093   7.773   7.082   4.300
10718TIP3   OH232094   3.701   6.041   5.433
10718TIP3    H132095   3.684   6.060   5.525
10718TIP3    H232096   3.796   6.043   5.425
10719TIP3   OH232097   1.067   0.932   1.265
10719TIP3    H132098   0.986   0.920   1.315
10719TIP3    H232099   1.048   0.897   1.178
10720TIP3   OH232100   4.973   1.705   4.632
10720TIP3    H132101   4.935   1.787   4.664
10720TIP3    H232102   4.899   1.659   4.593
10721TIP3   OH232103   8.135   6.600   0.201
10721TIP3    H132104   8.076   6.566   0.133
10721TIP3    H232105   8.088   6.583   0.283
10722TIP3   OH232106   6.673   1.414   4.665
10722TIP3    H132107   6.685   1.320   4.677
10722TIP3    H232108   6.585   1.431   4.698
10723TIP3   OH232109   5.011   3.737   3.708
10723TIP3    H132110   5.052   3.672   3.650
10723TIP3    H232111   5.031   3.707   3.796
10724TIP3   OH232112   5.100   7.052   2.028
10724TIP3    H132113   5.058   7.017   1.950
10724TIP3    H232114   5.105   7.147   2.012
10725TIP3   OH232115   2.299   7.657   3.842
10725TIP3    H132116   2.204   7.656   3.834
10725TIP3    H232117   2.321   7.575   3.886
10726TIP3   OH232118   6.962   5.689   6.465
10726TIP3    H132119   6.872   5.675   6.435
10726TIP3    H232120   7.009   5.718   6.387
10727TIP3   OH232121   1.302   2.035   1.202
10727TIP3    H132122   1.353   2.102   1.156
10727TIP3    H232123   1.364   1.963   1.215
10728TIP3   OH232124   6.669   6.176   2.067
10728TIP3    H132125   6.596   6.171   2.129
10728TIP3    H232126   6.659   6.097   2.013
10729TIP3   OH232127   7.504   3.777   3.535
10729TIP3    H132128   7.538   3.709   3.477
10729TIP3    H232129   7.571   3.787   3.602
10730TIP3   OH232130   6.161   1.918   1.903
10730TIP3    H132131   6.109   1.840   1.923
10730TIP3    H232132   6.117   1.988   1.950
10731TIP3   OH232133   2.393   3.323   4.983
10731TIP3    H132134   2.317   3.359   4.937
10731TIP3    H232135   2.450   3.398   4.998
10732TIP3   OH232136   3.040   1.248   4.337
10732TIP3    H132137   3.116   1.250   4.279
10732TIP3    H232138   3.031   1.338   4.369
10733TIP3   OH232139   5.031   6.710   3.916
10733TIP3    H132140   4.976   6.762   3.975
10733TIP3    H232141   5.120   6.743   3.931
10734TIP3   OH232142   2.618   5.267   2.128
10734TIP3    H132143   2.698   5.309   2.098
10734TIP3    H232144   2.570   5.246   2.047
10735TIP3   OH232145   5.559   1.984   0.324
10735TIP3    H132146   5.522   2.013   0.241
10735TIP3    H232147   5.581   1.892   0.310
10736TIP3   OH232148   0.479   1.016   6.019
10736TIP3    H132149   0.529   0.936   6.004
10736TIP3    H232150   0.539   1.087   5.997
10737TIP3   OH232151   5.167   0.241   3.800
10737TIP3    H132152   5.103   0.305   3.830
10737TIP3    H232153   5.115   0.169   3.765
10738TIP3   OH232154   4.395   7.256   5.844
10738TIP3    H132155   4.480   7.300   5.843
10738TIP3    H232156   4.388   7.219   5.932
10739TIP3   OH232157   3.799   1.695   0.484
10739TIP3    H132158   3.873   1.682   0.543
10739TIP3    H232159   3.779   1.608   0.450
10740TIP3   OH232160   5.230   5.644   3.543
10740TIP3    H132161   5.198   5.708   3.479
10740TIP3    H232162   5.262   5.571   3.490
10741TIP3   OH232163   0.250   1.587   6.170
10741TIP3    H132164   0.295   1.504   6.181
10741TIP3    H232165   0.284   1.623   6.088
10742TIP3   OH232166   6.336   0.454   4.429
10742TIP3    H132167   6.387   0.534   4.431
10742TIP3    H232168   6.306   0.442   4.519
10743TIP3   OH232169   4.553   2.525   2.276
10743TIP3    H132170   4.491   2.455   2.294
10743TIP3    H232171   4.572   2.517   2.183
10744TIP3   OH232172   1.666   2.217   3.518
10744TIP3    H132173   1.737   2.206   3.582
10744TIP3    H232174   1.653   2.130   3.482
10745TIP3   OH232175   2.112   4.104   4.547
10745TIP3    H132176   2.072   4.182   4.584
10745TIP3    H232177   2.198   4.098   4.590
10746TIP3   OH232178   1.859   6.427   2.676
10746TIP3    H132179   1.779   6.395   2.634
10746TIP3    H232180   1.852   6.398   2.767
10747TIP3   OH232181   7.328   4.805   3.087
10747TIP3    H132182   7.279   4.727   3.113
10747TIP3    H232183   7.375   4.779   3.008
10748TIP3   OH232184   1.332   7.099   2.461
10748TIP3    H132185   1.243   7.106   2.425
10748TIP3    H232186   1.387   7.083   2.384
10749TIP3   OH232187   5.150   0.444   5.457
10749TIP3    H132188   5.079   0.485   5.409
10749TIP3    H232189   5.219   0.511   5.461
10750TIP3   OH232190   2.704   0.372   0.269
10750TIP3    H132191   2.776   0.421   0.232
10750TIP3    H232192   2.700   0.400   0.361
10751TIP3   OH232193   1.277   0.050   4.301
10751TIP3    H132194   1.181   0.054   4.297
10751TIP3    H232195   1.303   0.020   4.214
10752TIP3   OH232196   1.738   6.118   5.425
10752TIP3    H132197   1.674   6.139   5.493
10752TIP3    H232198   1.694   6.055   5.369
10753TIP3   OH232199   5.887   2.223   2.373
10753TIP3    H132200   5.875   2.134   2.408
10753TIP3    H232201   5.953   2.262   2.430
10754TIP3   OH232202   6.368   7.846   4.188
10754TIP3    H132203   6.317   7.797   4.252
10754TIP3    H232204   6.395   7.780   4.124
10755TIP3   OH232205   1.064   4.769   1.785
10755TIP3    H132206   1.120   4.740   1.856
10755TIP3    H232207   0.976   4.769   1.822
10756TIP3   OH232208   0.796   4.859   1.333
10756TIP3    H132209   0.759   4.851   1.421
10756TIP3    H232210   0.725   4.896   1.281
10757TIP3   OH232211   5.282   1.839   5.129
10757TIP3    H132212   5.353   1.899   5.104
10757TIP3    H232213   5.323   1.777   5.189
10758TIP3   OH232214   1.179   3.084   5.618
10758TIP3    H132215   1.181   3.147   5.689
10758TIP3    H232216   1.118   3.016   5.648
10759TIP3   OH232217   8.246   2.201   3.088
10759TIP3    H132218   8.163   2.240   3.113
10759TIP3    H232219   8.239   2.110   3.118
10760TIP3   OH232220   4.612   1.827   0.765
10760TIP3    H132221   4.684   1.820   0.702
10760TIP3    H232222   4.533   1.815   0.712
10761TIP3   OH232223   4.519   4.185   4.006
10761TIP3    H132224   4.546   4.123   4.074
10761TIP3    H232225   4.555   4.149   3.925
10762TIP3   OH232226   5.581   4.829   3.282
10762TIP3    H132227   5.579   4.740   3.318
10762TIP3    H232228   5.669   4.861   3.301
10763TIP3   OH232229   1.610   0.292   4.972
10763TIP3    H132230   1.616   0.381   5.008
10763TIP3    H232231   1.521   0.264   4.993
10764TIP3   OH232232   0.660   4.134   1.898
10764TIP3    H132233   0.607   4.081   1.957
10764TIP3    H232234   0.688   4.209   1.951
10765TIP3   OH232235   2.179   3.245   5.687
10765TIP3    H132236   2.259   3.193   5.675
10765TIP3    H232237   2.108   3.186   5.661
10766TIP3   OH232238   1.394   4.090   4.309
10766TIP3    H132239   1.457   4.122   4.374
10766TIP3    H232240   1.361   4.008   4.346
10767TIP3   OH232241   4.965   5.231   1.666
10767TIP3    H132242   5.010   5.149   1.646
10767TIP3    H232243   4.876   5.218   1.635
10768TIP3   OH232244   5.362   2.702   0.184
10768TIP3    H132245   5.360   2.653   0.266
10768TIP3    H232246   5.427   2.656   0.130
10769TIP3   OH232247   3.293   6.862   4.745
10769TIP3    H132248   3.284   6.798   4.815
10769TIP3    H232249   3.337   6.937   4.786
10770TIP3   OH232250   6.143   0.486   5.805
10770TIP3    H132251   6.055   0.466   5.837
10770TIP3    H232252   6.201   0.434   5.859
10771TIP3   OH232253   1.386   0.204   5.727
10771TIP3    H132254   1.381   0.186   5.633
10771TIP3    H232255   1.300   0.240   5.749
10772TIP3   OH232256   8.151   5.755   3.170
10772TIP3    H132257   8.172   5.716   3.255
10772TIP3    H232258   8.062   5.725   3.151
10773TIP3   OH232259   4.071   2.099   3.060
10773TIP3    H132260   4.002   2.089   2.994
10773TIP3    H232261   4.063   2.189   3.090
10774TIP3   OH232262   2.927   2.968   3.688
10774TIP3    H132263   3.015   2.954   3.655
10774TIP3    H232264   2.919   2.908   3.762
10775TIP3   OH232265   4.859   2.027   4.671
10775TIP3    H132266   4.878   2.036   4.764
10775TIP3    H232267   4.887   2.109   4.632
10776TIP3   OH232268   1.002   4.724   4.278
10776TIP3    H132269   0.947   4.686   4.209
10776TIP3    H232270   1.080   4.754   4.232
10777TIP3   OH232271   5.329   1.741   4.115
10777TIP3    H132272   5.349   1.824   4.159
10777TIP3    H232273   5.394   1.680   4.148
10778TIP3   OH232274   8.117   6.498   3.763
10778TIP3    H132275   8.072   6.421   3.797
10778TIP3    H232276   8.181   6.521   3.831
10779TIP3   OH232277   2.479   2.014   3.509
10779TIP3    H132278   2.531   2.072   3.566
10779TIP3    H232279   2.392   2.054   3.508
10780TIP3   OH232280   2.890   2.833   3.088
10780TIP3    H132281   2.923   2.835   3.178
10780TIP3    H232282   2.880   2.740   3.068
10781TIP3   OH232283   3.797   5.465   4.067
10781TIP3    H132284   3.854   5.514   4.126
10781TIP3    H232285   3.709   5.476   4.105
10782TIP3   OH232286   1.680   5.675   5.168
10782TIP3    H132287   1.714   5.735   5.102
10782TIP3    H232288   1.758   5.641   5.212
10783TIP3   OH232289   6.618   6.591   4.418
10783TIP3    H132290   6.642   6.658   4.353
10783TIP3    H232291   6.581   6.641   4.491
10784TIP3   OH232292   0.058   6.244   2.932
10784TIP3    H132293   0.070   6.270   2.841
10784TIP3    H232294   0.064   6.325   2.982
10785TIP3   OH232295   5.162   6.929   1.590
10785TIP3    H132296   5.245   6.962   1.556
10785TIP3    H232297   5.174   6.834   1.593
10786TIP3   OH232298   7.207   4.955   1.197
10786TIP3    H132299   7.245   4.949   1.285
10786TIP3    H232300   7.203   5.049   1.178
10787TIP3   OH232301   7.536   7.444   5.907
10787TIP3    H132302   7.559   7.383   5.977
10787TIP3    H232303   7.603   7.430   5.840
10788TIP3   OH232304   1.617   6.855   1.692
10788TIP3    H132305   1.698   6.856   1.744
10788TIP3    H232306   1.643   6.819   1.607
10789TIP3   OH232307   0.813   1.482   4.945
10789TIP3    H132308   0.757   1.547   4.988
10789TIP3    H232309   0.807   1.404   5.001
10790TIP3   OH232310   7.675   0.757   2.548
10790TIP3    H132311   7.687   0.815   2.473
10790TIP3    H232312   7.640   0.814   2.617
10791TIP3   OH232313   1.519   7.640   4.680
10791TIP3    H132314   1.539   7.634   4.586
10791TIP3    H232315   1.541   7.730   4.703
10792TIP3   OH232316   4.184   3.718   0.467
10792TIP3    H132317   4.115   3.721   0.533
10792TIP3    H232318   4.145   3.755   0.388
10793TIP3   OH232319   4.342   1.025   4.487
10793TIP3    H132320   4.290   1.105   4.499
10793TIP3    H232321   4.277   0.954   4.489
10794TIP3   OH232322   2.909   5.795   5.501
10794TIP3    H132323   2.850   5.730   5.462
10794TIP3    H232324   2.864   5.823   5.581
10795TIP3   OH232325   0.227   4.076   2.798
10795TIP3    H132326   0.283   4.017   2.749
10795TIP3    H232327   0.283   4.150   2.821
10796TIP3   OH232328   6.266   4.006   3.186
10796TIP3    H132329   6.251   4.007   3.092
10796TIP3    H232330   6.360   4.023   3.196
10797TIP3   OH232331   3.853   6.086   6.226
10797TIP3    H132332   3.889   6.111   6.311
10797TIP3    H232333   3.869   6.162   6.170
10798TIP3   OH232334   8.309   5.313   2.456
10798TIP3    H132335   8.218   5.344   2.461
10798TIP3    H232336   8.358   5.388   2.423
10799TIP3   OH232337   5.903   3.340   6.712
10799TIP3    H132338   5.887   3.434   6.720
10799TIP3    H232339   5.880   3.320   6.621
10800TIP3   OH232340   7.269   5.067   3.984
10800TIP3    H132341   7.349   5.107   3.948
10800TIP3    H232342   7.301   4.994   4.037
10801TIP3   OH232343   2.060   4.562   2.746
10801TIP3    H132344   2.058   4.654   2.721
10801TIP3    H232345   2.152   4.543   2.763
10802TIP3   OH232346   7.210   0.120   0.281
10802TIP3    H132347   7.246   0.133   0.368
10802TIP3    H232348   7.214   0.025   0.267
10803TIP3   OH232349   4.673   5.183   3.405
10803TIP3    H132350   4.721   5.104   3.379
10803TIP3    H232351   4.733   5.229   3.464
10804TIP3   OH232352   5.436   6.474   6.551
10804TIP3    H132353   5.452   6.390   6.508
10804TIP3    H232354   5.371   6.455   6.618
10805TIP3   OH232355   0.301   1.325   2.825
10805TIP3    H132356   0.241   1.251   2.816
10805TIP3    H232357   0.245   1.399   2.849
10806TIP3   OH232358   3.400   0.191   6.214
10806TIP3    H132359   3.491   0.208   6.239
10806TIP3    H232360   3.360   0.156   6.294
10807TIP3   OH232361   7.446   7.501   4.499
10807TIP3    H132362   7.434   7.591   4.467
10807TIP3    H232363   7.374   7.487   4.560
10808TIP3   OH232364   8.010   1.135   0.556
10808TIP3    H132365   7.999   1.133   0.461
10808TIP3    H232366   7.986   1.047   0.585
10809TIP3   OH232367   4.237   7.168   4.682
10809TIP3    H132368   4.165   7.193   4.740
10809TIP3    H232369   4.196   7.113   4.615
10810TIP3   OH232370   2.309   6.064   2.948
10810TIP3    H132371   2.310   5.978   2.989
10810TIP3    H232372   2.371   6.116   3.000
10811TIP3   OH232373   2.205   3.935   2.645
10811TIP3    H132374   2.194   3.881   2.723
10811TIP3    H232375   2.293   3.972   2.652
10812TIP3   OH232376   7.513   1.280   3.389
10812TIP3    H132377   7.455   1.224   3.441
10812TIP3    H232378   7.600   1.241   3.399
10813TIP3   OH232379   2.898   6.842   5.289
10813TIP3    H132380   2.866   6.816   5.203
10813TIP3    H232381   2.969   6.781   5.308
10814TIP3   OH232382   2.266   7.073   4.822
10814TIP3    H132383   2.302   7.150   4.777
10814TIP3    H232384   2.335   7.045   4.881
10815TIP3   OH232385   6.837   7.219   1.230
10815TIP3    H132386   6.895   7.174   1.169
10815TIP3    H232387   6.749   7.204   1.196
10816TIP3   OH232388   8.267   4.245   0.109
10816TIP3    H132389   8.349   4.233   0.062
10816TIP3    H232390   8.273   4.186   0.184
10817TIP3   OH232391   3.318   5.537   3.743
10817TIP3    H132392   3.223   5.535   3.732
10817TIP3    H232393   3.351   5.563   3.657
10818TIP3   OH232394   7.656   6.272   0.776
10818TIP3    H132395   7.570   6.296   0.810
10818TIP3    H232396   7.638   6.225   0.695
10819TIP3   OH232397   6.515   6.353   3.581
10819TIP3    H132398   6.541   6.316   3.665
10819TIP3    H232399   6.475   6.280   3.534
10820TIP3   OH232400   2.917   4.719   5.908
10820TIP3    H132401   2.965   4.710   5.990
10820TIP3    H232402   2.974   4.772   5.852
10821TIP3   OH232403   5.012   0.319   4.166
10821TIP3    H132404   5.051   0.266   4.236
10821TIP3    H232405   4.974   0.256   4.106
10822TIP3   OH232406   0.287   6.875   1.005
10822TIP3    H132407   0.230   6.800   0.989
10822TIP3    H232408   0.230   6.951   1.001
10823TIP3   OH232409   6.325   7.745   0.164
10823TIP3    H132410   6.339   7.820   0.222
10823TIP3    H232411   6.300   7.674   0.223
10824TIP3   OH232412   2.699   4.340   2.908
10824TIP3    H132413   2.789   4.365   2.927
10824TIP3    H232414   2.646   4.402   2.959
10825TIP3   OH232415   3.389   6.566   1.513
10825TIP3    H132416   3.357   6.476   1.517
10825TIP3    H232417   3.327   6.610   1.455
10826TIP3   OH232418   7.052   7.148   3.006
10826TIP3    H132419   7.030   7.080   2.944
10826TIP3    H232420   7.021   7.115   3.091
10827TIP3   OH232421   6.386   7.054   5.734
10827TIP3    H132422   6.306   7.087   5.694
10827TIP3    H232423   6.394   6.965   5.700
10828TIP3   OH232424   5.429   5.686   3.752
10828TIP3    H132425   5.464   5.605   3.789
10828TIP3    H232426   5.361   5.657   3.691
10829TIP3   OH232427   2.698   2.519   3.752
10829TIP3    H132428   2.606   2.511   3.777
10829TIP3    H232429   2.712   2.613   3.744
10830TIP3   OH232430   8.226   3.999   4.521
10830TIP3    H132431   8.198   3.979   4.431
10830TIP3    H232432   8.320   3.978   4.521
10831TIP3   OH232433   7.719   3.388   6.204
10831TIP3    H132434   7.710   3.436   6.122
10831TIP3    H232435   7.690   3.450   6.271
10832TIP3   OH232436   7.863   2.267   6.363
10832TIP3    H132437   7.777   2.304   6.381
10832TIP3    H232438   7.873   2.276   6.268
10833TIP3   OH232439   7.105   2.486   2.001
10833TIP3    H132440   7.189   2.442   1.988
10833TIP3    H232441   7.046   2.416   2.030
10834TIP3   OH232442   5.350   6.533   3.822
10834TIP3    H132443   5.368   6.466   3.757
10834TIP3    H232444   5.256   6.524   3.839
10835TIP3   OH232445   4.182   0.350   5.495
10835TIP3    H132446   4.132   0.293   5.554
10835TIP3    H232447   4.273   0.327   5.510
10836TIP3   OH232448   3.068   5.982   3.109
10836TIP3    H132449   3.158   6.008   3.126
10836TIP3    H232450   3.055   5.903   3.161
10837TIP3   OH232451   4.712   3.669   0.601
10837TIP3    H132452   4.665   3.723   0.664
10837TIP3    H232453   4.653   3.661   0.526
10838TIP3   OH232454   1.329   0.156   3.625
10838TIP3    H132455   1.330   0.198   3.539
10838TIP3    H232456   1.295   0.068   3.609
10839TIP3   OH232457   0.974   5.213   3.610
10839TIP3    H132458   1.023   5.203   3.692
10839TIP3    H232459   0.945   5.125   3.588
10840TIP3   OH232460   2.384   1.320   5.272
10840TIP3    H132461   2.400   1.253   5.338
10840TIP3    H232462   2.296   1.302   5.239
10841TIP3   OH232463   1.531   7.070   1.942
10841TIP3    H132464   1.623   7.083   1.919
10841TIP3    H232465   1.492   7.034   1.862
10842TIP3   OH232466   3.540   7.795   1.796
10842TIP3    H132467   3.534   7.745   1.715
10842TIP3    H232468   3.630   7.781   1.826
10843TIP3   OH232469   6.764   1.766   4.151
10843TIP3    H132470   6.803   1.680   4.166
10843TIP3    H232471   6.683   1.765   4.202
10844TIP3   OH232472   8.088   6.757   5.078
10844TIP3    H132473   8.181   6.779   5.079
10844TIP3    H232474   8.085   6.664   5.100
10845TIP3   OH232475   7.149   2.640   6.439
10845TIP3    H132476   7.118   2.728   6.420
10845TIP3    H232477   7.235   2.653   6.480
10846TIP3   OH232478   5.583   2.117   6.780
10846TIP3    H132479   5.636   2.104   6.859
10846TIP3    H232480   5.625   2.192   6.736
10847TIP3   OH232481   2.418   2.984   1.424
10847TIP3    H132482   2.426   2.916   1.492
10847TIP3    H232483   2.424   2.936   1.342
10848TIP3   OH232484   2.399   6.301   3.526
10848TIP3    H132485   2.383   6.212   3.558
10848TIP3    H232486   2.395   6.356   3.605
10849TIP3   OH232487   7.002   0.789   2.228
10849TIP3    H132488   6.922   0.751   2.193
10849TIP3    H232489   7.014   0.746   2.313
10850TIP3   OH232490   2.071   1.293   2.089
10850TIP3    H132491   2.041   1.285   2.179
10850TIP3    H232492   2.079   1.388   2.075
10851TIP3   OH232493   6.011   3.991   2.528
10851TIP3    H132494   5.989   4.061   2.590
10851TIP3    H232495   6.067   4.033   2.463
10852TIP3   OH232496   2.370   7.752   3.586
10852TIP3    H132497   2.299   7.812   3.564
10852TIP3    H232498   2.364   7.741   3.681
10853TIP3   OH232499   3.164   6.585   0.494
10853TIP3    H132500   3.200   6.518   0.552
10853TIP3    H232501   3.228   6.593   0.424
10854TIP3   OH232502   7.520   5.834   0.155
10854TIP3    H132503   7.573   5.756   0.140
10854TIP3    H232504   7.556   5.900   0.096
10855TIP3   OH232505   4.296   6.124   4.769
10855TIP3    H132506   4.260   6.079   4.846
10855TIP3    H232507   4.355   6.061   4.729
10856TIP3   OH232508   0.442   6.595   4.303
10856TIP3    H132509   0.424   6.685   4.329
10856TIP3    H232510   0.458   6.549   4.385
10857TIP3   OH232511   1.688   1.833   0.025
10857TIP3    H132512   1.735   1.847   0.107
10857TIP3    H232513   1.666   1.921  -0.005
10858TIP3   OH232514   0.927   0.643   2.546
10858TIP3    H132515   0.930   0.567   2.488
10858TIP3    H232516   0.955   0.610   2.631
10859TIP3   OH232517   0.236   0.782   0.358
10859TIP3    H132518   0.275   0.698   0.384
10859TIP3    H232519   0.297   0.818   0.294
10860TIP3   OH232520   2.091   6.458   1.179
10860TIP3    H132521   2.141   6.395   1.231
10860TIP3    H232522   2.069   6.411   1.099
10861TIP3   OH232523   4.600   0.332   4.872
10861TIP3    H132524   4.660   0.261   4.895
10861TIP3    H232525   4.557   0.355   4.954
10862TIP3   OH232526   0.584   0.393   5.080
10862TIP3    H132527   0.586   0.415   4.986
10862TIP3    H232528   0.675   0.397   5.107
10863TIP3   OH232529   3.519   2.971   3.184
10863TIP3    H132530   3.424   2.978   3.177
10863TIP3    H232531   3.549   3.061   3.197
10864TIP3   OH232532   2.722   1.606   1.864
10864TIP3    H132533   2.699   1.577   1.775
10864TIP3    H232534   2.638   1.613   1.909
10865TIP3   OH232535   8.403   2.045   5.593
10865TIP3    H132536   8.315   2.032   5.627
10865TIP3    H232537   8.460   2.005   5.659
10866TIP3   OH232538   1.790   4.747   6.771
10866TIP3    H132539   1.698   4.753   6.797
10866TIP3    H232540   1.802   4.656   6.745
10867TIP3   OH232541   6.976   6.271   3.017
10867TIP3    H132542   7.051   6.251   3.072
10867TIP3    H232543   6.995   6.227   2.934
10868TIP3   OH232544   1.778   0.946   3.823
10868TIP3    H132545   1.789   1.041   3.822
10868TIP3    H232546   1.734   0.928   3.906
10869TIP3   OH232547   1.135   5.746   2.974
10869TIP3    H132548   1.208   5.686   2.987
10869TIP3    H232549   1.123   5.787   3.060
10870TIP3   OH232550   0.066   3.032   0.398
10870TIP3    H132551   0.130   2.984   0.451
10870TIP3    H232552   0.073   2.991   0.311
10871TIP3   OH232553   8.013   2.743   3.033
10871TIP3    H132554   7.948   2.675   3.016
10871TIP3    H232555   8.094   2.695   3.051
10872TIP3   OH232556   2.537   4.416   5.158
10872TIP3    H132557   2.499   4.443   5.242
10872TIP3    H232558   2.482   4.457   5.092
10873TIP3   OH232559   7.293   4.439   0.658
10873TIP3    H132560   7.289   4.512   0.720
10873TIP3    H232561   7.269   4.478   0.574
10874TIP3   OH232562   1.155   7.902   1.191
10874TIP3    H132563   1.119   7.908   1.279
10874TIP3    H232564   1.081   7.921   1.133
10875TIP3   OH232565   4.904   2.379   4.483
10875TIP3    H132566   4.970   2.310   4.487
10875TIP3    H232567   4.874   2.389   4.573
10876TIP3   OH232568   7.167   6.251   3.231
10876TIP3    H132569   7.229   6.258   3.304
10876TIP3    H232570   7.171   6.160   3.204
10877TIP3   OH232571   1.408   1.672   3.017
10877TIP3    H132572   1.372   1.746   2.967
10877TIP3    H232573   1.333   1.640   3.067
10878TIP3   OH232574   8.184   3.259   3.667
10878TIP3    H132575   8.162   3.318   3.595
10878TIP3    H232576   8.106   3.205   3.678
10879TIP3   OH232577   1.719   4.560   4.823
10879TIP3    H132578   1.780   4.634   4.819
10879TIP3    H232579   1.764   4.495   4.876
10880TIP3   OH232580   8.012   0.461   1.274
10880TIP3    H132581   8.052   0.408   1.205
10880TIP3    H232582   8.060   0.543   1.272
10881TIP3   OH232583   4.644   5.799   3.595
10881TIP3    H132584   4.627   5.752   3.513
10881TIP3    H232585   4.636   5.731   3.663
10882TIP3   OH232586   3.023   4.380   0.176
10882TIP3    H132587   3.083   4.357   0.105
10882TIP3    H232588   2.969   4.303   0.188
10883TIP3   OH232589   5.110   3.391   6.445
10883TIP3    H132590   5.020   3.402   6.476
10883TIP3    H232591   5.164   3.429   6.514
10884TIP3   OH232592   5.213   6.605   4.698
10884TIP3    H132593   5.202   6.635   4.608
10884TIP3    H232594   5.124   6.584   4.727
10885TIP3   OH232595   1.095   5.365   1.724
10885TIP3    H132596   1.105   5.275   1.693
10885TIP3    H232597   1.001   5.377   1.736
10886TIP3   OH232598   5.910   0.216   0.859
10886TIP3    H132599   5.977   0.267   0.905
10886TIP3    H232600   5.959   0.154   0.806
10887TIP3   OH232601   6.838   7.488   5.750
10887TIP3    H132602   6.796   7.431   5.686
10887TIP3    H232603   6.915   7.522   5.705
10888TIP3   OH232604   7.213   0.736   5.318
10888TIP3    H132605   7.178   0.817   5.355
10888TIP3    H232606   7.211   0.750   5.223
10889TIP3   OH232607   8.070   4.076   5.527
10889TIP3    H132608   8.154   4.076   5.481
10889TIP3    H232609   8.011   4.028   5.470
10890TIP3   OH232610   6.693   1.502   1.616
10890TIP3    H132611   6.610   1.551   1.613
10890TIP3    H232612   6.720   1.508   1.708
10891TIP3   OH232613   8.160   7.744   4.309
10891TIP3    H132614   8.236   7.693   4.283
10891TIP3    H232615   8.150   7.810   4.240
10892TIP3   OH232616   3.847   2.063   1.036
10892TIP3    H132617   3.898   2.062   1.117
10892TIP3    H232618   3.777   2.128   1.053
10893TIP3   OH232619   2.903   6.096   5.598
10893TIP3    H132620   2.957   6.121   5.673
10893TIP3    H232621   2.965   6.062   5.534
10894TIP3   OH232622   3.156   3.953   5.887
10894TIP3    H132623   3.180   3.917   5.973
10894TIP3    H232624   3.155   3.877   5.829
10895TIP3   OH232625   6.930   6.403   0.736
10895TIP3    H132626   6.921   6.318   0.693
10895TIP3    H232627   6.944   6.465   0.665
10896TIP3   OH232628   6.208   2.038   0.381
10896TIP3    H132629   6.151   2.082   0.318
10896TIP3    H232630   6.230   2.106   0.445
10897TIP3   OH232631   6.868   5.310   2.711
10897TIP3    H132632   6.800   5.376   2.702
10897TIP3    H232633   6.856   5.253   2.635
10898TIP3   OH232634   7.161   4.923   4.596
10898TIP3    H132635   7.199   4.841   4.627
10898TIP3    H232636   7.069   4.902   4.581
10899TIP3   OH232637   1.372   7.744   3.173
10899TIP3    H132638   1.293   7.746   3.118
10899TIP3    H232639   1.442   7.717   3.113
10900TIP3   OH232640   2.665   4.184   5.968
10900TIP3    H132641   2.643   4.275   5.987
10900TIP3    H232642   2.710   4.186   5.884
10901TIP3   OH232643   2.390   6.114   1.863
10901TIP3    H132644   2.464   6.052   1.860
10901TIP3    H232645   2.374   6.136   1.772
10902TIP3   OH232646   2.099   7.664   6.079
10902TIP3    H132647   2.076   7.628   6.165
10902TIP3    H232648   2.184   7.706   6.093
10903TIP3   OH232649   5.025   0.377   0.735
10903TIP3    H132650   5.073   0.348   0.812
10903TIP3    H232651   5.046   0.312   0.667
10904TIP3   OH232652   4.010   5.730   1.628
10904TIP3    H132653   4.018   5.676   1.549
10904TIP3    H232654   3.916   5.736   1.644
10905TIP3   OH232655   1.285   1.118   6.225
10905TIP3    H132656   1.218   1.185   6.213
10905TIP3    H232657   1.289   1.106   6.320
10906TIP3   OH232658   4.272   4.098   1.293
10906TIP3    H132659   4.332   4.024   1.288
10906TIP3    H232660   4.185   4.058   1.298
10907TIP3   OH232661   7.184   4.693   5.481
10907TIP3    H132662   7.192   4.622   5.418
10907TIP3    H232663   7.263   4.688   5.534
10908TIP3   OH232664   4.701   7.026   1.643
10908TIP3    H132665   4.740   7.067   1.566
10908TIP3    H232666   4.735   6.937   1.644
10909TIP3   OH232667   4.869   7.043   6.770
10909TIP3    H132668   4.916   7.120   6.739
10909TIP3    H232669   4.851   6.992   6.691
10910TIP3   OH232670   0.926   6.544   6.646
10910TIP3    H132671   0.840   6.519   6.680
10910TIP3    H232672   0.946   6.476   6.582
10911TIP3   OH232673   1.180   1.593   2.405
10911TIP3    H132674   1.158   1.507   2.367
10911TIP3    H232675   1.128   1.655   2.354
10912TIP3   OH232676   5.734   6.747   0.564
10912TIP3    H132677   5.759   6.655   0.570
10912TIP3    H232678   5.771   6.777   0.481
10913TIP3   OH232679   5.253   1.192   6.475
10913TIP3    H132680   5.195   1.133   6.427
10913TIP3    H232681   5.245   1.276   6.430
10914TIP3   OH232682   1.798   7.180   3.380
10914TIP3    H132683   1.727   7.214   3.326
10914TIP3    H232684   1.761   7.101   3.420
10915TIP3   OH232685   7.439   5.119   0.843
10915TIP3    H132686   7.423   5.196   0.898
10915TIP3    H232687   7.497   5.150   0.774
10916TIP3   OH232688   3.375   2.777   3.931
10916TIP3    H132689   3.339   2.691   3.952
10916TIP3    H232690   3.435   2.796   4.004
10917TIP3   OH232691   7.072   2.701   1.209
10917TIP3    H132692   7.167   2.705   1.199
10917TIP3    H232693   7.052   2.769   1.274
10918TIP3   OH232694   6.742   6.220   6.319
10918TIP3    H132695   6.683   6.288   6.350
10918TIP3    H232696   6.767   6.173   6.398
10919TIP3   OH232697   2.355   1.359   0.707
10919TIP3    H132698   2.354   1.396   0.795
10919TIP3    H232699   2.301   1.419   0.655
10920TIP3   OH232700   1.023   4.075   6.704
10920TIP3    H132701   0.968   4.109   6.634
10920TIP3    H232702   1.037   4.150   6.762
10921TIP3   OH232703   4.963   6.773   2.069
10921TIP3    H132704   5.019   6.802   1.997
10921TIP3    H232705   4.904   6.709   2.029
10922TIP3   OH232706   0.784   2.619   4.471
10922TIP3    H132707   0.755   2.699   4.427
10922TIP3    H232708   0.706   2.564   4.473
10923TIP3   OH232709   1.816   7.840   5.372
10923TIP3    H132710   1.814   7.888   5.455
10923TIP3    H232711   1.894   7.784   5.378
10924TIP3   OH232712   3.727   2.851   0.329
10924TIP3    H132713   3.675   2.914   0.279
10924TIP3    H232714   3.782   2.808   0.264
10925TIP3   OH232715   6.751   0.059   0.450
10925TIP3    H132716   6.806  -0.018   0.434
10925TIP3    H232717   6.751   0.069   0.546
10926TIP3   OH232718   3.959   7.356   3.706
10926TIP3    H132719   3.918   7.412   3.772
10926TIP3    H232720   3.901   7.280   3.701
10927TIP3   OH232721   2.913   5.532   1.115
10927TIP3    H132722   2.861   5.460   1.078
10927TIP3    H232723   2.915   5.513   1.208
10928TIP3   OH232724   3.121   2.818   5.185
10928TIP3    H132725   3.088   2.774   5.263
10928TIP3    H232726   3.191   2.761   5.153
10929TIP3   OH232727   2.939   5.626   0.340
10929TIP3    H132728   2.897   5.592   0.418
10929TIP3    H232729   3.033   5.618   0.358
10930TIP3   OH232730   6.859   1.790   6.767
10930TIP3    H132731   6.829   1.853   6.833
10930TIP3    H232732   6.847   1.835   6.684
10931TIP3   OH232733   8.209   6.678   2.115
10931TIP3    H132734   8.115   6.667   2.133
10931TIP3    H232735   8.238   6.591   2.088
10932TIP3   OH232736   0.419   3.326   0.353
10932TIP3    H132737   0.413   3.284   0.267
10932TIP3    H232738   0.346   3.290   0.403
10933TIP3   OH232739   5.479   3.806   0.143
10933TIP3    H132740   5.385   3.820   0.134
10933TIP3    H232741   5.488   3.714   0.167
10934TIP3   OH232742   1.870   3.239   5.796
10934TIP3    H132743   1.928   3.175   5.837
10934TIP3    H232744   1.807   3.187   5.747
10935TIP3   OH232745   4.160   3.221   4.952
10935TIP3    H132746   4.143   3.174   5.033
10935TIP3    H232747   4.150   3.313   4.976
10936TIP3   OH232748   0.693   2.559   6.299
10936TIP3    H132749   0.686   2.473   6.257
10936TIP3    H232750   0.709   2.540   6.391
10937TIP3   OH232751   6.089   6.061   4.161
10937TIP3    H132752   6.180   6.055   4.132
10937TIP3    H232753   6.076   6.153   4.182
10938TIP3   OH232754   7.353   3.318   2.689
10938TIP3    H132755   7.315   3.405   2.673
10938TIP3    H232756   7.425   3.311   2.626
10939TIP3   OH232757   7.245   6.455   2.214
10939TIP3    H132758   7.303   6.422   2.145
10939TIP3    H232759   7.183   6.384   2.229
10940TIP3   OH232760   4.067   4.918   1.050
10940TIP3    H132761   4.113   5.001   1.041
10940TIP3    H232762   4.107   4.861   0.984
10941TIP3   OH232763   0.639   0.895   2.014
10941TIP3    H132764   0.713   0.834   2.010
10941TIP3    H232765   0.666   0.960   2.079
10942TIP3   OH232766   2.986   5.054   6.591
10942TIP3    H132767   3.001   4.961   6.571
10942TIP3    H232768   2.899   5.056   6.631
10943TIP3   OH232769   1.870   2.056   1.602
10943TIP3    H132770   1.840   2.067   1.692
10943TIP3    H232771   1.920   2.135   1.583
10944TIP3   OH232772   0.747   6.299   1.668
10944TIP3    H132773   0.780   6.347   1.745
10944TIP3    H232774   0.724   6.368   1.606
10945TIP3   OH232775   6.572   0.823   3.824
10945TIP3    H132776   6.506   0.854   3.887
10945TIP3    H232777   6.586   0.731   3.848
10946TIP3   OH232778   4.764   1.105   6.108
10946TIP3    H132779   4.818   1.167   6.058
10946TIP3    H232780   4.736   1.155   6.185
10947TIP3   OH232781   7.429   7.371   5.459
10947TIP3    H132782   7.428   7.459   5.497
10947TIP3    H232783   7.478   7.381   5.378
10948TIP3   OH232784   0.947   7.178   2.690
10948TIP3    H132785   1.010   7.141   2.751
10948TIP3    H232786   0.996   7.189   2.608
10949TIP3   OH232787   4.778   7.012   3.720
10949TIP3    H132788   4.764   6.974   3.633
10949TIP3    H232789   4.717   6.965   3.776
10950TIP3   OH232790   7.982   4.970   3.798
10950TIP3    H132791   7.985   4.960   3.893
10950TIP3    H232792   7.893   4.943   3.774
10951TIP3   OH232793   4.116   5.266   4.306
10951TIP3    H132794   4.102   5.350   4.349
10951TIP3    H232795   4.048   5.261   4.239
10952TIP3   OH232796   6.259   6.470   3.309
10952TIP3    H132797   6.195   6.537   3.283
10952TIP3    H232798   6.324   6.471   3.239
10953TIP3   OH232799   1.581   3.099   1.309
10953TIP3    H132800   1.546   3.019   1.349
10953TIP3    H232801   1.545   3.099   1.221
10954TIP3   OH232802   5.174   3.218   2.396
10954TIP3    H132803   5.207   3.258   2.315
10954TIP3    H232804   5.132   3.291   2.443
10955TIP3   OH232805   6.525   3.489   2.578
10955TIP3    H132806   6.553   3.397   2.579
10955TIP3    H232807   6.602   3.537   2.550
10956TIP3   OH232808   3.299   4.680   1.611
10956TIP3    H132809   3.319   4.738   1.538
10956TIP3    H232810   3.302   4.592   1.574
10957TIP3   OH232811   7.392   7.534   2.888
10957TIP3    H132812   7.298   7.525   2.903
10957TIP3    H232813   7.399   7.586   2.808
10958TIP3   OH232814   1.478   2.892   0.358
10958TIP3    H132815   1.505   2.904   0.267
10958TIP3    H232816   1.509   2.971   0.403
10959TIP3   OH232817   8.102   4.503   3.079
10959TIP3    H132818   8.099   4.562   3.004
10959TIP3    H232819   8.158   4.431   3.051
10960TIP3   OH232820   8.374   3.977   1.929
10960TIP3    H132821   8.281   3.970   1.949
10960TIP3    H232822   8.392   4.071   1.925
10961TIP3   OH232823   4.270   3.282   0.934
10961TIP3    H132824   4.297   3.328   0.855
10961TIP3    H232825   4.331   3.210   0.942
10962TIP3   OH232826   7.809   7.113   1.630
10962TIP3    H132827   7.783   7.078   1.545
10962TIP3    H232828   7.788   7.042   1.692
10963TIP3   OH232829   7.758   5.868   4.808
10963TIP3    H132830   7.813   5.944   4.823
10963TIP3    H232831   7.818   5.793   4.814
10964TIP3   OH232832   3.993   2.791   3.603
10964TIP3    H132833   4.076   2.827   3.636
10964TIP3    H232834   3.981   2.833   3.518
10965TIP3   OH232835   7.972   2.294   1.973
10965TIP3    H132836   7.910   2.258   2.037
10965TIP3    H232837   7.951   2.387   1.970
10966TIP3   OH232838   2.302   4.579   2.374
10966TIP3    H132839   2.244   4.516   2.331
10966TIP3    H232840   2.380   4.581   2.319
10967TIP3   OH232841   8.401   6.738   2.318
10967TIP3    H132842   8.377   6.681   2.245
10967TIP3    H232843   8.395   6.682   2.395
10968TIP3   OH232844   4.662   5.933   6.082
10968TIP3    H132845   4.652   5.891   6.167
10968TIP3    H232846   4.631   6.023   6.096
10969TIP3   OH232847   6.406   4.809   0.518
10969TIP3    H132848   6.325   4.758   0.529
10969TIP3    H232849   6.460   4.756   0.460
10970TIP3   OH232850   2.848   2.689   0.261
10970TIP3    H132851   2.828   2.598   0.283
10970TIP3    H232852   2.874   2.687   0.169
10971TIP3   OH232853   8.041   5.967   2.216
10971TIP3    H132854   7.969   5.913   2.184
10971TIP3    H232855   8.075   6.010   2.138
10972TIP3   OH232856   7.404   6.178   6.357
10972TIP3    H132857   7.477   6.236   6.336
10972TIP3    H232858   7.444   6.091   6.361
10973TIP3   OH232859   4.816   6.760   1.636
10973TIP3    H132860   4.895   6.712   1.663
10973TIP3    H232861   4.744   6.700   1.656
10974TIP3   OH232862   6.283   7.825   5.618
10974TIP3    H132863   6.261   7.867   5.701
10974TIP3    H232864   6.378   7.818   5.619
10975TIP3   OH232865   6.541   7.530   3.341
10975TIP3    H132866   6.504   7.611   3.307
10975TIP3    H232867   6.472   7.464   3.327
10976TIP3   OH232868   3.527   4.175   2.345
10976TIP3    H132869   3.550   4.169   2.437
10976TIP3    H232870   3.447   4.123   2.337
10977TIP3   OH232871   3.983   1.401   3.427
10977TIP3    H132872   4.030   1.426   3.506
10977TIP3    H232873   4.033   1.441   3.356
10978TIP3   OH232874   5.495   2.700   1.706
10978TIP3    H132875   5.507   2.784   1.663
10978TIP3    H232876   5.522   2.716   1.797
10979TIP3   OH232877   0.396   5.882   3.142
10979TIP3    H132878   0.387   5.929   3.059
10979TIP3    H232879   0.318   5.827   3.146
10980TIP3   OH232880   6.286   2.484   1.063
10980TIP3    H132881   6.319   2.511   1.148
10980TIP3    H232882   6.237   2.559   1.030
10981TIP3   OH232883   1.120   5.945   3.199
10981TIP3    H132884   1.057   6.014   3.178
10981TIP3    H232885   1.073   5.887   3.259
10982TIP3   OH232886   6.261   6.665   4.364
10982TIP3    H132887   6.330   6.689   4.426
10982TIP3    H232888   6.303   6.672   4.278
10983TIP3   OH232889   0.044   1.588   5.310
10983TIP3    H132890   0.124   1.536   5.304
10983TIP3    H232891   0.071   1.676   5.283
10984TIP3   OH232892   2.403   0.827   6.334
10984TIP3    H132893   2.335   0.797   6.394
10984TIP3    H232894   2.469   0.867   6.391
10985TIP3   OH232895   6.777   6.569   5.671
10985TIP3    H132896   6.734   6.644   5.711
10985TIP3    H232897   6.863   6.566   5.714
10986TIP3   OH232898   0.708   6.408   4.284
10986TIP3    H132899   0.725   6.497   4.252
10986TIP3    H232900   0.660   6.421   4.366
10987TIP3   OH232901   2.527   3.471   1.559
10987TIP3    H132902   2.469   3.495   1.632
10987TIP3    H232903   2.492   3.388   1.528
10988TIP3   OH232904   1.668   5.428   4.921
10988TIP3    H132905   1.638   5.510   4.881
10988TIP3    H232906   1.646   5.437   5.014
10989TIP3   OH232907   5.166   4.529   0.859
10989TIP3    H132908   5.089   4.476   0.879
10989TIP3    H232909   5.172   4.591   0.932
10990TIP3   OH232910   7.513   3.901   5.567
10990TIP3    H132911   7.440   3.862   5.614
10990TIP3    H232912   7.511   3.993   5.593
10991TIP3   OH232913   4.232   1.578   0.612
10991TIP3    H132914   4.234   1.540   0.524
10991TIP3    H232915   4.139   1.581   0.636
10992TIP3   OH232916   1.611   6.676   0.070
10992TIP3    H132917   1.675   6.717   0.127
10992TIP3    H232918   1.539   6.738   0.065
10993TIP3   OH232919   4.720   7.477   4.136
10993TIP3    H132920   4.683   7.527   4.063
10993TIP3    H232921   4.646   7.460   4.194
10994TIP3   OH232922   4.544   6.478   6.798
10994TIP3    H132923   4.574   6.445   6.883
10994TIP3    H232924   4.553   6.573   6.805
10995TIP3   OH232925   0.011   5.373   2.700
10995TIP3    H132926   0.065   5.451   2.697
10995TIP3    H232927  -0.031   5.369   2.614
10996TIP3   OH232928   1.482   3.631   3.732
10996TIP3    H132929   1.456   3.673   3.650
10996TIP3    H232930   1.433   3.549   3.734
10997TIP3   OH232931   0.240   0.559   5.496
10997TIP3    H132932   0.319   0.553   5.549
10997TIP3    H232933   0.243   0.648   5.459
10998TIP3   OH232934   6.101   7.257   0.908
10998TIP3    H132935   6.141   7.280   0.991
10998TIP3    H232936   6.008   7.279   0.919
10999TIP3   OH232937   5.130   5.965   1.826
10999TIP3    H132938   5.149   5.876   1.856
10999TIP3    H232939   5.040   5.982   1.856
11000TIP3   OH232940   3.837   4.017   3.108
11000TIP3    H132941   3.772   3.955   3.141
11000TIP3    H232942   3.857   3.987   3.020
11001TIP3   OH232943   1.433   3.663   4.230
11001TIP3    H132944   1.524   3.687   4.250
11001TIP3    H232945   1.389   3.663   4.315
11002TIP3   OH232946   0.561   7.228   0.216
11002TIP3    H132947   0.541   7.255   0.306
11002TIP3    H232948   0.645   7.268   0.197
11003TIP3   OH232949   3.921   6.550   2.696
11003TIP3    H132950   3.885   6.462   2.707
11003TIP3    H232951   3.925   6.563   2.601
11004TIP3   OH232952   6.219   3.754   6.284
11004TIP3    H132953   6.151   3.761   6.351
11004TIP3    H232954   6.296   3.796   6.322
11005TIP3   OH232955   0.583   3.250   3.849
11005TIP3    H132956   0.554   3.319   3.790
11005TIP3    H232957   0.651   3.204   3.800
11006TIP3   OH232958   2.091   2.368   4.923
11006TIP3    H132959   2.180   2.398   4.904
11006TIP3    H232960   2.088   2.279   4.887
11007TIP3   OH232961   3.209   4.498   1.962
11007TIP3    H132962   3.304   4.488   1.948
11007TIP3    H232963   3.192   4.591   1.947
11008TIP3   OH232964   1.038   2.826   4.005
11008TIP3    H132965   1.098   2.755   3.983
11008TIP3    H232966   1.088   2.906   3.987
11009TIP3   OH232967   3.370   0.166   0.596
11009TIP3    H132968   3.279   0.192   0.612
11009TIP3    H232969   3.417   0.248   0.583
11010TIP3   OH232970   8.052   6.366   6.713
11010TIP3    H132971   8.001   6.438   6.751
11010TIP3    H232972   8.132   6.363   6.765
11011TIP3   OH232973   0.741   0.074   0.707
11011TIP3    H132974   0.794   0.146   0.741
11011TIP3    H232975   0.805   0.015   0.666
11012TIP3   OH232976   0.463   3.271   4.091
11012TIP3    H132977   0.383   3.309   4.056
11012TIP3    H232978   0.523   3.269   4.017
11013TIP3   OH232979   2.302   6.661   3.277
11013TIP3    H132980   2.213   6.634   3.256
11013TIP3    H232981   2.358   6.596   3.234
11014TIP3   OH232982   2.930   4.264   2.069
11014TIP3    H132983   2.975   4.206   2.008
11014TIP3    H232984   2.979   4.346   2.065
11015TIP3   OH232985   3.090   6.256   5.192
11015TIP3    H132986   3.086   6.186   5.127
11015TIP3    H232987   3.050   6.219   5.270
11016TIP3   OH232988   5.060   1.266   0.126
11016TIP3    H132989   5.044   1.176   0.154
11016TIP3    H232990   5.023   1.320   0.196
11017TIP3   OH232991   1.909   0.561   0.406
11017TIP3    H132992   1.973   0.557   0.334
11017TIP3    H232993   1.960   0.592   0.481
11018TIP3   OH232994   5.649   3.749   5.319
11018TIP3    H132995   5.696   3.706   5.391
11018TIP3    H232996   5.599   3.680   5.278
11019TIP3   OH232997   6.398   7.024   0.250
11019TIP3    H132998   6.351   7.057   0.173
11019TIP3    H232999   6.430   7.103   0.294
11020TIP3   OH233000   7.528   5.097   5.046
11020TIP3    H133001   7.597   5.163   5.050
11020TIP3    H233002   7.559   5.035   4.979
11021TIP3   OH233003   2.252   4.948   1.211
11021TIP3    H133004   2.220   4.951   1.120
11021TIP3    H233005   2.223   4.864   1.244
11022TIP3   OH233006   7.632   0.192   1.653
11022TIP3    H133007   7.672   0.278   1.640
11022TIP3    H233008   7.545   0.211   1.688
11023TIP3   OH233009   4.466   6.813   1.539
11023TIP3    H133010   4.514   6.803   1.620
11023TIP3    H233011   4.531   6.802   1.470
11024TIP3   OH233012   6.202   6.486   3.856
11024TIP3    H133013   6.134   6.513   3.917
11024TIP3    H233014   6.170   6.515   3.770
11025TIP3   OH233015   5.191   2.817   1.360
11025TIP3    H133016   5.196   2.805   1.455
11025TIP3    H233017   5.193   2.728   1.324
11026TIP3   OH233018   1.184   1.909   4.280
11026TIP3    H133019   1.107   1.895   4.336
11026TIP3    H233020   1.258   1.891   4.338
11027TIP3   OH233021   1.518   5.066   0.564
11027TIP3    H133022   1.449   5.018   0.519
11027TIP3    H233023   1.492   5.158   0.558
11028TIP3   OH233024   2.006   5.674   4.315
11028TIP3    H133025   2.025   5.670   4.222
11028TIP3    H233026   1.967   5.761   4.328
11029TIP3   OH233027   1.800   5.488   5.688
11029TIP3    H133028   1.714   5.450   5.672
11029TIP3    H233029   1.783   5.580   5.703
11030TIP3   OH233030   6.630   5.789   5.097
11030TIP3    H133031   6.602   5.821   5.182
11030TIP3    H233032   6.552   5.752   5.057
11031TIP3   OH233033   8.220   2.256   1.849
11031TIP3    H133034   8.147   2.264   1.911
11031TIP3    H233035   8.192   2.309   1.773
11032TIP3   OH233036   3.426   7.752   6.698
11032TIP3    H133037   3.492   7.818   6.721
11032TIP3    H233038   3.461   7.670   6.734
11033TIP3   OH233039   4.621   0.151   5.894
11033TIP3    H133040   4.690   0.085   5.892
11033TIP3    H233041   4.639   0.203   5.972
11034TIP3   OH233042   2.985   0.801   2.207
11034TIP3    H133043   3.009   0.787   2.116
11034TIP3    H233044   3.002   0.893   2.223
11035TIP3   OH233045   0.836   7.636   4.368
11035TIP3    H133046   0.765   7.616   4.306
11035TIP3    H233047   0.828   7.568   4.435
11036TIP3   OH233048   1.901   6.630   0.552
11036TIP3    H133049   1.958   6.643   0.476
11036TIP3    H233050   1.961   6.612   0.624
11037TIP3   OH233051   5.245   3.942   4.889
11037TIP3    H133052   5.153   3.964   4.876
11037TIP3    H233053   5.294   4.013   4.846
11038TIP3   OH233054   2.108   6.519   6.162
11038TIP3    H133055   2.148   6.539   6.077
11038TIP3    H233056   2.042   6.452   6.143
11039TIP3   OH233057   3.838   4.936   3.107
11039TIP3    H133058   3.771   5.001   3.087
11039TIP3    H233059   3.814   4.859   3.056
11040TIP3   OH233060   1.206   2.461   4.889
11040TIP3    H133061   1.198   2.391   4.953
11040TIP3    H233062   1.166   2.425   4.810
11041TIP3   OH233063   4.108   7.220   0.788
11041TIP3    H133064   4.138   7.156   0.724
11041TIP3    H233065   4.136   7.304   0.752
11042TIP3   OH233066   1.555   3.921   3.794
11042TIP3    H133067   1.523   3.831   3.800
11042TIP3    H233068   1.504   3.969   3.859
11043TIP3   OH233069   7.776   3.444   3.336
11043TIP3    H133070   7.733   3.445   3.421
11043TIP3    H233071   7.805   3.353   3.325
11044TIP3   OH233072   1.968   5.858   2.857
11044TIP3    H133073   1.922   5.774   2.856
11044TIP3    H233074   2.048   5.841   2.907
11045TIP3   OH233075   7.212   2.663   3.700
11045TIP3    H133076   7.237   2.742   3.652
11045TIP3    H233077   7.265   2.593   3.662
11046TIP3   OH233078   3.546   2.062   0.367
11046TIP3    H133079   3.529   2.000   0.295
11046TIP3    H233080   3.520   2.147   0.332
11047TIP3   OH233081   4.800   6.232   5.375
11047TIP3    H133082   4.864   6.234   5.446
11047TIP3    H233083   4.815   6.148   5.332
11048TIP3   OH233084   4.222   0.262   4.677
11048TIP3    H133085   4.172   0.200   4.624
11048TIP3    H233086   4.278   0.307   4.615
11049TIP3   OH233087   1.674   2.796   5.557
11049TIP3    H133088   1.598   2.818   5.610
11049TIP3    H233089   1.690   2.875   5.505
11050TIP3   OH233090   5.495   2.808   0.533
11050TIP3    H133091   5.525   2.847   0.615
11050TIP3    H233092   5.457   2.724   0.558
11051TIP3   OH233093   6.304   2.351   1.571
11051TIP3    H133094   6.357   2.363   1.492
11051TIP3    H233095   6.213   2.358   1.540
11052TIP3   OH233096   3.723   0.394   5.563
11052TIP3    H133097   3.664   0.331   5.521
11052TIP3    H233098   3.683   0.479   5.547
11053TIP3   OH233099   0.483   4.442   0.760
11053TIP3    H133100   0.498   4.349   0.777
11053TIP3    H233101   0.519   4.456   0.672
11054TIP3   OH233102   6.944   7.205   1.613
11054TIP3    H133103   6.929   7.112   1.594
11054TIP3    H233104   7.039   7.216   1.602
11055TIP3   OH233105   0.995   4.470   2.635
11055TIP3    H133106   1.048   4.515   2.702
11055TIP3    H233107   0.978   4.384   2.672
11056TIP3   OH233108   2.944   2.531   0.049
11056TIP3    H133109   3.010   2.495   0.108
11056TIP3    H233110   2.951   2.479  -0.031
11057TIP3   OH233111   7.148   1.748   1.600
11057TIP3    H133112   7.079   1.806   1.634
11057TIP3    H233113   7.128   1.663   1.639
11058TIP3   OH233114   1.757   1.100   1.544
11058TIP3    H133115   1.809   1.161   1.596
11058TIP3    H233116   1.781   1.013   1.577
11059TIP3   OH233117   4.409   5.513   0.016
11059TIP3    H133118   4.391   5.478   0.104
11059TIP3    H233119   4.457   5.594   0.031
11060TIP3   OH233120   6.589   0.015   2.180
11060TIP3    H133121   6.683   0.030   2.174
11060TIP3    H233122   6.555   0.037   2.093
11061TIP3   OH233123   2.440   2.682   3.737
11061TIP3    H133124   2.435   2.614   3.804
11061TIP3    H233125   2.356   2.728   3.742
11062TIP3   OH233126   4.800   2.698   3.016
11062TIP3    H133127   4.870   2.742   2.968
11062TIP3    H233128   4.721   2.746   2.994
11063TIP3   OH233129   2.126   1.136   1.859
11063TIP3    H133130   2.100   1.198   1.927
11063TIP3    H233131   2.078   1.056   1.879
11064TIP3   OH233132   1.138   5.547   1.438
11064TIP3    H133133   1.153   5.480   1.372
11064TIP3    H233134   1.047   5.535   1.465
11065TIP3   OH233135   0.572   0.621   6.663
11065TIP3    H133136   0.636   0.676   6.708
11065TIP3    H233137   0.622   0.546   6.631
11066TIP3   OH233138   4.815   3.643   3.385
11066TIP3    H133139   4.834   3.737   3.384
11066TIP3    H233140   4.893   3.602   3.348
11067TIP3   OH233141   7.824   3.583   0.557
11067TIP3    H133142   7.758   3.524   0.593
11067TIP3    H233143   7.869   3.618   0.634
11068TIP3   OH233144   4.446   0.311   5.110
11068TIP3    H133145   4.383   0.272   5.050
11068TIP3    H233146   4.415   0.400   5.123
11069TIP3   OH233147   7.555   0.508   2.213
11069TIP3    H133148   7.537   0.500   2.119
11069TIP3    H233149   7.610   0.432   2.233
11070TIP3   OH233150   6.338   6.951   1.810
11070TIP3    H133151   6.294   7.026   1.769
11070TIP3    H233152   6.408   6.929   1.748
11071TIP3   OH233153   4.591   7.751   3.074
11071TIP3    H133154   4.659   7.743   3.008
11071TIP3    H233155   4.637   7.783   3.152
11072TIP3   OH233156   2.796   7.789   4.785
11072TIP3    H133157   2.883   7.748   4.777
11072TIP3    H233158   2.814   7.879   4.812
11073TIP3   OH233159   1.796   3.336   6.465
11073TIP3    H133160   1.704   3.333   6.490
11073TIP3    H233161   1.805   3.266   6.400
11074TIP3   OH233162   1.734   7.353   6.210
11074TIP3    H133163   1.716   7.316   6.297
11074TIP3    H233164   1.666   7.316   6.153
11075TIP3   OH233165   7.506   0.998   3.843
11075TIP3    H133166   7.591   0.978   3.802
11075TIP3    H233167   7.442   0.954   3.787
11076TIP3   OH233168   7.204   5.287   2.535
11076TIP3    H133169   7.113   5.317   2.533
11076TIP3    H233170   7.210   5.233   2.613
11077TIP3   OH233171   7.753   2.120   4.760
11077TIP3    H133172   7.669   2.166   4.767
11077TIP3    H233173   7.733   2.030   4.783
11078TIP3   OH233174   2.823   3.815   4.119
11078TIP3    H133175   2.811   3.721   4.105
11078TIP3    H233176   2.738   3.853   4.094
11079TIP3   OH233177   3.046   6.520   5.134
11079TIP3    H133178   3.026   6.561   5.218
11079TIP3    H233179   3.061   6.428   5.155
11080TIP3   OH233180   0.253   6.625   3.605
11080TIP3    H133181   0.208   6.681   3.668
11080TIP3    H233182   0.182   6.581   3.557
11081TIP3   OH233183   4.967   2.164   5.342
11081TIP3    H133184   4.935   2.235   5.397
11081TIP3    H233185   5.060   2.157   5.363
11082TIP3   OH233186   2.416   6.110   4.715
11082TIP3    H133187   2.371   6.185   4.755
11082TIP3    H233188   2.490   6.094   4.773
11083TIP3   OH233189   6.650   7.902   1.268
11083TIP3    H133190   6.659   7.822   1.215
11083TIP3    H233191   6.595   7.876   1.341
11084TIP3   OH233192   5.330   1.632   6.011
11084TIP3    H133193   5.393   1.631   6.082
11084TIP3    H233194   5.369   1.576   5.943
11085TIP3   OH233195   4.391   7.233   0.911
11085TIP3    H133196   4.315   7.288   0.894
11085TIP3    H233197   4.413   7.250   1.003
11086TIP3   OH233198   1.332   3.419   1.186
11086TIP3    H133199   1.427   3.421   1.175
11086TIP3    H233200   1.298   3.457   1.105
11087TIP3   OH233201   4.492   7.089   3.367
11087TIP3    H133202   4.445   7.129   3.440
11087TIP3    H233203   4.582   7.082   3.397
11088TIP3   OH233204   5.174   4.717   0.216
11088TIP3    H133205   5.113   4.664   0.267
11088TIP3    H233206   5.128   4.800   0.202
11089TIP3   OH233207   3.632   5.764   2.399
11089TIP3    H133208   3.724   5.739   2.408
11089TIP3    H233209   3.634   5.852   2.362
11090TIP3   OH233210   0.119   1.115   1.099
11090TIP3    H133211   0.210   1.118   1.129
11090TIP3    H233212   0.104   1.202   1.060
11091TIP3   OH233213   6.185   7.385   1.148
11091TIP3    H133214   6.264   7.359   1.195
11091TIP3    H233215   6.123   7.407   1.218
11092TIP3   OH233216   5.946   7.388   4.852
11092TIP3    H133217   5.914   7.299   4.836
11092TIP3    H233218   6.008   7.379   4.925
11093TIP3   OH233219   6.898   7.520   6.132
11093TIP3    H133220   6.829   7.454   6.137
11093TIP3    H233221   6.950   7.495   6.056
11094TIP3   OH233222   2.395   6.285   4.194
11094TIP3    H133223   2.348   6.367   4.182
11094TIP3    H233224   2.328   6.224   4.226
11095TIP3   OH233225   6.211   0.578   0.583
11095TIP3    H133226   6.156   0.500   0.582
11095TIP3    H233227   6.206   0.610   0.673
11096TIP3   OH233228   5.907   2.776   5.173
11096TIP3    H133229   5.880   2.700   5.121
11096TIP3    H233230   5.920   2.741   5.261
11097TIP3   OH233231   1.856   1.139   5.030
11097TIP3    H133232   1.783   1.147   5.092
11097TIP3    H233233   1.886   1.228   5.017
11098TIP3   OH233234   1.586   5.975   3.320
11098TIP3    H133235   1.634   6.044   3.366
11098TIP3    H233236   1.507   5.962   3.372
11099TIP3   OH233237   4.200   1.666   2.914
11099TIP3    H133238   4.180   1.703   2.828
11099TIP3    H233239   4.291   1.692   2.930
11100TIP3   OH233240   3.474   2.909   1.390
11100TIP3    H133241   3.412   2.962   1.338
11100TIP3    H233242   3.549   2.967   1.403
11101TIP3   OH233243   2.026   3.393   3.027
11101TIP3    H133244   2.041   3.472   3.079
11101TIP3    H233245   2.066   3.322   3.079
11102TIP3   OH233246   2.897   4.731   6.604
11102TIP3    H133247   2.918   4.679   6.682
11102TIP3    H233248   2.967   4.710   6.542
11103TIP3   OH233249   0.613   4.530   0.504
11103TIP3    H133250   0.628   4.621   0.529
11103TIP3    H233251   0.693   4.504   0.459
11104TIP3   OH233252   0.465   2.787   2.111
11104TIP3    H133253   0.554   2.822   2.114
11104TIP3    H233254   0.476   2.692   2.121
11105TIP3   OH233255   0.997   1.207   5.217
11105TIP3    H133256   0.918   1.257   5.238
11105TIP3    H233257   1.050   1.266   5.163
11106TIP3   OH233258   7.524   2.505   3.139
11106TIP3    H133259   7.592   2.441   3.157
11106TIP3    H233260   7.442   2.460   3.158
11107TIP3   OH233261   5.040   5.360   1.898
11107TIP3    H133262   5.018   5.286   1.842
11107TIP3    H233263   5.112   5.404   1.852
11108TIP3   OH233264   3.713   1.479   6.278
11108TIP3    H133265   3.777   1.467   6.208
11108TIP3    H233266   3.754   1.442   6.356
11109TIP3   OH233267   7.263   5.421   4.703
11109TIP3    H133268   7.333   5.449   4.644
11109TIP3    H233269   7.292   5.447   4.790
11110TIP3   OH233270   5.408   4.154   4.256
11110TIP3    H133271   5.501   4.162   4.281
11110TIP3    H233272   5.369   4.237   4.283
11111TIP3   OH233273   4.254   4.831   5.682
11111TIP3    H133274   4.211   4.907   5.722
11111TIP3    H233275   4.319   4.869   5.623
11112TIP3   OH233276   3.984   5.167   3.497
11112TIP3    H133277   3.941   5.084   3.475
11112TIP3    H233278   4.068   5.164   3.451
11113TIP3   OH233279   0.920   5.133   1.667
11113TIP3    H133280   0.825   5.119   1.669
11113TIP3    H233281   0.940   5.144   1.574
11114TIP3   OH233282   2.770   6.637   3.525
11114TIP3    H133283   2.857   6.599   3.541
11114TIP3    H233284   2.738   6.658   3.613
11115TIP3   OH233285   7.677   6.201   6.678
11115TIP3    H133286   7.656   6.114   6.643
11115TIP3    H233287   7.765   6.219   6.646
11116TIP3   OH233288   0.537   0.260   2.051
11116TIP3    H133289   0.622   0.254   2.009
11116TIP3    H233290   0.475   0.235   1.983
11117TIP3   OH233291   3.155   4.830   5.740
11117TIP3    H133292   3.243   4.866   5.752
11117TIP3    H233293   3.168   4.737   5.723
11118TIP3   OH233294   0.454   7.644   2.047
11118TIP3    H133295   0.382   7.638   2.110
11118TIP3    H233296   0.520   7.697   2.093
11119TIP3   OH233297   1.241   0.236   5.372
11119TIP3    H133298   1.193   0.212   5.451
11119TIP3    H233299   1.207   0.322   5.348
11120TIP3   OH233300   2.902   3.761   4.510
11120TIP3    H133301   2.899   3.823   4.438
11120TIP3    H233302   2.983   3.712   4.496
11121TIP3   OH233303   2.822   6.920   1.208
11121TIP3    H133304   2.729   6.904   1.223
11121TIP3    H233305   2.847   6.983   1.276
11122TIP3   OH233306   4.620   7.342   3.241
11122TIP3    H133307   4.697   7.327   3.187
11122TIP3    H233308   4.564   7.266   3.224
11123TIP3   OH233309   6.845   1.497   2.821
11123TIP3    H133310   6.872   1.533   2.906
11123TIP3    H233311   6.796   1.417   2.844
11124TIP3   OH233312   4.705   7.299   1.837
11124TIP3    H133313   4.706   7.372   1.899
11124TIP3    H233314   4.669   7.225   1.888
11125TIP3   OH233315   2.786  -0.002   6.767
11125TIP3    H133316   2.769   0.084   6.804
11125TIP3    H233317   2.768  -0.063   6.839
11126TIP3   OH233318   1.865   2.882   2.043
11126TIP3    H133319   1.780   2.844   2.065
11126TIP3    H233320   1.888   2.934   2.120
11127TIP3   OH233321   6.960   4.836   0.084
11127TIP3    H133322   6.917   4.920   0.071
11127TIP3    H233323   6.940   4.813   0.175
11128TIP3   OH233324   6.171   1.264   1.661
11128TIP3    H133325   6.119   1.184   1.661
11128TIP3    H233326   6.153   1.305   1.576
11129TIP3   OH233327   6.975   6.925  -0.010
11129TIP3    H133328   6.888   6.964  -0.022
11129TIP3    H233329   6.960   6.854   0.054
11130TIP3   OH233330   2.257   0.466   0.708
11130TIP3    H133331   2.178   0.462   0.763
11130TIP3    H233332   2.257   0.384   0.660
11131TIP3   OH233333   6.129   4.531   1.753
11131TIP3    H133334   6.153   4.600   1.692
11131TIP3    H233335   6.033   4.531   1.752
11132TIP3   OH233336   5.994   2.004   2.660
11132TIP3    H133337   6.081   1.983   2.695
11132TIP3    H233338   5.987   1.951   2.581
11133TIP3   OH233339   0.265   5.122   1.426
11133TIP3    H133340   0.228   5.105   1.513
11133TIP3    H233341   0.334   5.186   1.441
11134TIP3   OH233342   1.397   7.785   1.871
11134TIP3    H133343   1.400   7.857   1.807
11134TIP3    H233344   1.463   7.808   1.936
11135TIP3   OH233345   6.401   1.344   2.163
11135TIP3    H133346   6.457   1.337   2.240
11135TIP3    H233347   6.405   1.436   2.138
11136TIP3   OH233348   2.665   6.809   0.289
11136TIP3    H133349   2.571   6.826   0.283
11136TIP3    H233350   2.678   6.727   0.241
11137TIP3   OH233351   7.512   0.761   3.022
11137TIP3    H133352   7.514   0.739   2.928
11137TIP3    H233353   7.427   0.728   3.052
11138TIP3   OH233354   7.230   6.638   2.418
11138TIP3    H133355   7.211   6.570   2.354
11138TIP3    H233356   7.145   6.679   2.436
11139TIP3   OH233357   4.788   3.818   5.226
11139TIP3    H133358   4.839   3.764   5.287
11139TIP3    H233359   4.797   3.907   5.260
11140TIP3   OH233360   3.552   0.200   2.216
11140TIP3    H133361   3.556   0.192   2.121
11140TIP3    H233362   3.641   0.180   2.246
11141TIP3   OH233363   5.239   6.664   3.102
11141TIP3    H133364   5.159   6.664   3.155
11141TIP3    H233365   5.291   6.591   3.137
11142TIP3   OH233366   6.772   2.099   6.428
11142TIP3    H133367   6.830   2.172   6.409
11142TIP3    H233368   6.763   2.052   6.345
11143TIP3   OH233369   5.706   4.372   0.749
11143TIP3    H133370   5.704   4.328   0.664
11143TIP3    H233371   5.677   4.462   0.730
11144TIP3   OH233372   4.361   0.167   1.524
11144TIP3    H133373   4.345   0.191   1.433
11144TIP3    H233374   4.375   0.251   1.568
11145TIP3   OH233375   7.777   4.786   3.821
11145TIP3    H133376   7.704   4.773   3.760
11145TIP3    H233377   7.819   4.700   3.827
11146TIP3   OH233378   8.274   5.183   2.848
11146TIP3    H133379   8.314   5.101   2.817
11146TIP3    H233380   8.335   5.251   2.822
11147TIP3   OH233381   2.655   2.240   0.802
11147TIP3    H133382   2.658   2.145   0.787
11147TIP3    H233383   2.573   2.268   0.761
11148TIP3   OH233384   8.124   5.356   3.967
11148TIP3    H133385   8.195   5.314   3.919
11148TIP3    H233386   8.065   5.285   3.990
11149TIP3   OH233387   0.474   4.716   6.608
11149TIP3    H133388   0.561   4.720   6.568
11149TIP3    H233389   0.486   4.660   6.685
11150TIP3   OH233390   4.330   3.364   1.855
11150TIP3    H133391   4.279   3.334   1.779
11150TIP3    H233392   4.272   3.349   1.930
11151TIP3   OH233393   7.876   3.396   6.453
11151TIP3    H133394   7.838   3.417   6.368
11151TIP3    H233395   7.807   3.350   6.500
11152TIP3   OH233396   1.890   4.953   6.226
11152TIP3    H133397   1.807   4.991   6.252
11152TIP3    H233398   1.867   4.883   6.164
11153TIP3   OH233399   3.563   1.632   2.126
11153TIP3    H133400   3.612   1.554   2.102
11153TIP3    H233401   3.488   1.632   2.066
11154TIP3   OH233402   0.402   4.516   2.456
11154TIP3    H133403   0.366   4.428   2.445
11154TIP3    H233404   0.494   4.501   2.476
11155TIP3   OH233405   2.539   4.068   0.615
11155TIP3    H133406   2.526   4.151   0.661
11155TIP3    H233407   2.628   4.074   0.580
11156TIP3   OH233408   2.493   5.284   6.463
11156TIP3    H133409   2.532   5.214   6.411
11156TIP3    H233410   2.531   5.365   6.427
11157TIP3   OH233411   6.455   2.648   5.979
11157TIP3    H133412   6.440   2.577   5.917
11157TIP3    H233413   6.548   2.667   5.973
11158TIP3   OH233414   6.656   3.489   6.016
11158TIP3    H133415   6.730   3.515   5.961
11158TIP3    H233416   6.693   3.424   6.076
11159TIP3   OH233417   3.277   0.362   3.039
11159TIP3    H133418   3.325   0.346   3.120
11159TIP3    H233419   3.246   0.452   3.047
11160TIP3   OH233420   5.270   7.349   3.271
11160TIP3    H133421   5.333   7.359   3.343
11160TIP3    H233422   5.270   7.435   3.228
11161TIP3   OH233423   5.381   1.577   5.011
11161TIP3    H133424   5.330   1.510   4.964
11161TIP3    H233425   5.338   1.659   4.987
11162TIP3   OH233426   2.623   6.808   2.703
11162TIP3    H133427   2.527   6.813   2.702
11162TIP3    H233428   2.651   6.872   2.637
11163TIP3   OH233429   7.062   0.313   6.625
11163TIP3    H133430   7.030   0.295   6.713
11163TIP3    H233431   7.135   0.374   6.638
11164TIP3   OH233432   2.475   5.180   5.353
11164TIP3    H133433   2.429   5.098   5.333
11164TIP3    H233434   2.406   5.242   5.373
11165TIP3   OH233435   4.545   5.829   1.837
11165TIP3    H133436   4.504   5.771   1.901
11165TIP3    H233437   4.636   5.799   1.833
11166TIP3   OH233438   2.712   4.092   1.442
11166TIP3    H133439   2.781   4.128   1.499
11166TIP3    H233440   2.724   4.138   1.359
11167TIP3   OH233441   2.658   5.916   4.480
11167TIP3    H133442   2.658   5.862   4.559
11167TIP3    H233443   2.649   5.854   4.408
11168TIP3   OH233444   4.852   4.972   5.056
11168TIP3    H133445   4.862   4.925   5.138
11168TIP3    H233446   4.813   4.908   4.996
11169TIP3   OH233447   6.123   7.491   5.658
11169TIP3    H133448   6.155   7.471   5.745
11169TIP3    H233449   6.201   7.511   5.607
11170TIP3   OH233450   2.357   0.343   1.634
11170TIP3    H133451   2.272   0.322   1.674
11170TIP3    H233452   2.390   0.417   1.685
11171TIP3   OH233453   6.488   0.434   6.662
11171TIP3    H133454   6.392   0.431   6.658
11171TIP3    H233455   6.516   0.450   6.572
11172TIP3   OH233456   2.359   3.507   0.701
11172TIP3    H133457   2.395   3.532   0.786
11172TIP3    H233458   2.336   3.414   0.712
11173TIP3   OH233459   5.021   2.129   5.726
11173TIP3    H133460   4.946   2.172   5.685
11173TIP3    H233461   5.094   2.190   5.712
11174TIP3   OH233462   7.261   6.327   3.477
11174TIP3    H133463   7.284   6.417   3.503
11174TIP3    H233464   7.210   6.293   3.550
11175TIP3   OH233465   4.793   7.140   5.637
11175TIP3    H133466   4.818   7.077   5.570
11175TIP3    H233467   4.874   7.185   5.659
11176TIP3   OH233468   5.770   5.817   0.229
11176TIP3    H133469   5.758   5.910   0.251
11176TIP3    H233470   5.797   5.777   0.312
11177TIP3   OH233471   4.687   1.850   5.845
11177TIP3    H133472   4.641   1.934   5.846
11177TIP3    H233473   4.771   1.868   5.888
11178TIP3   OH233474   0.095   6.980   6.649
11178TIP3    H133475   0.161   7.004   6.584
11178TIP3    H233476   0.140   6.986   6.733
11179TIP3   OH233477   3.637   4.297   0.486
11179TIP3    H133478   3.631   4.259   0.398
11179TIP3    H233479   3.672   4.385   0.472
11180TIP3   OH233480   0.086   4.418   4.068
11180TIP3    H133481   0.149   4.489   4.054
11180TIP3    H233482   0.047   4.404   3.982
11181TIP3   OH233483   3.805   0.248   1.255
11181TIP3    H133484   3.791   0.198   1.175
11181TIP3    H233485   3.776   0.336   1.233
11182TIP3   OH233486   2.186   5.877   1.659
11182TIP3    H133487   2.147   5.828   1.587
11182TIP3    H233488   2.269   5.831   1.677
11183TIP3   OH233489   2.402   1.034   4.572
11183TIP3    H133490   2.372   1.050   4.483
11183TIP3    H233491   2.496   1.051   4.569
11184TIP3   OH233492   7.112   2.049   3.701
11184TIP3    H133493   7.101   1.955   3.693
11184TIP3    H233494   7.184   2.060   3.763
11185TIP3   OH233495   0.295   6.200   0.560
11185TIP3    H133496   0.278   6.235   0.648
11185TIP3    H233497   0.390   6.204   0.550
11186TIP3   OH233498   3.270   6.884   4.461
11186TIP3    H133499   3.351   6.854   4.421
11186TIP3    H233500   3.275   6.853   4.552
11187TIP3   OH233501   1.358   1.067   1.102
11187TIP3    H133502   1.393   1.112   1.025
11187TIP3    H233503   1.315   1.135   1.153
11188TIP3   OH233504   0.789   4.686   3.120
11188TIP3    H133505   0.858   4.739   3.080
11188TIP3    H233506   0.829   4.600   3.132
11189TIP3   OH233507   6.432   5.903   3.715
11189TIP3    H133508   6.441   5.895   3.620
11189TIP3    H233509   6.426   5.997   3.731
11190TIP3   OH233510   6.130   2.716   3.813
11190TIP3    H133511   6.129   2.809   3.791
11190TIP3    H233512   6.223   2.695   3.824
11191TIP3   OH233513   5.592   5.565   1.473
11191TIP3    H133514   5.590   5.583   1.379
11191TIP3    H233515   5.569   5.472   1.480
11192TIP3   OH233516   4.289   7.844   1.407
11192TIP3    H133517   4.337   7.900   1.346
11192TIP3    H233518   4.201   7.882   1.410
11193TIP3   OH233519   6.351   0.802   3.361
11193TIP3    H133520   6.411   0.784   3.433
11193TIP3    H233521   6.264   0.789   3.399
11194TIP3   OH233522   0.285   7.226   0.976
11194TIP3    H133523   0.201   7.183   0.991
11194TIP3    H233524   0.346   7.179   1.032
11195TIP3   OH233525   4.071   2.973   0.381
11195TIP3    H133526   4.014   2.914   0.332
11195TIP3    H233527   4.038   3.060   0.362
11196TIP3   OH233528   3.740   3.519   5.670
11196TIP3    H133529   3.822   3.496   5.625
11196TIP3    H233530   3.689   3.438   5.668
11197TIP3   OH233531   5.089   7.601   5.190
11197TIP3    H133532   5.128   7.653   5.260
11197TIP3    H233533   5.101   7.510   5.217
11198TIP3   OH233534   7.373   2.774   6.717
11198TIP3    H133535   7.322   2.729   6.784
11198TIP3    H233536   7.384   2.710   6.648
11199TIP3   OH233537   2.088   7.076   6.700
11199TIP3    H133538   2.060   7.154   6.747
11199TIP3    H233539   2.083   7.005   6.764
11200TIP3   OH233540  -0.004   4.869   2.193
11200TIP3    H133541   0.035   4.955   2.209
11200TIP3    H233542  -0.009   4.829   2.280
11201TIP3   OH233543   2.223   5.169   2.027
11201TIP3    H133544   2.287   5.109   2.065
11201TIP3    H233545   2.180   5.209   2.103
11202TIP3   OH233546   2.489   7.131   5.808
11202TIP3    H133547   2.538   7.155   5.886
11202TIP3    H233548   2.459   7.215   5.772
11203TIP3   OH233549   7.040   2.647   1.721
11203TIP3    H133550   6.993   2.655   1.804
11203TIP3    H233551   6.971   2.638   1.655
11204TIP3   OH233552   3.595   4.445   2.352
11204TIP3    H133553   3.519   4.484   2.396
11204TIP3    H233554   3.563   4.363   2.316
11205TIP3   OH233555   3.417   0.942   6.650
11205TIP3    H133556   3.357   0.997   6.601
11205TIP3    H233557   3.362   0.870   6.682
11206TIP3   OH233558   4.440   6.363   0.518
11206TIP3    H133559   4.521   6.390   0.561
11206TIP3    H233560   4.408   6.289   0.570
11207TIP3   OH233561   8.191   4.723   5.558
11207TIP3    H133562   8.246   4.690   5.629
11207TIP3    H233563   8.169   4.646   5.506
11208TIP3   OH233564   1.657   6.076   3.887
11208TIP3    H133565   1.668   6.052   3.795
11208TIP3    H233566   1.744   6.063   3.926
11209TIP3   OH233567   3.532   3.736   4.134
11209TIP3    H133568   3.474   3.810   4.117
11209TIP3    H233569   3.608   3.752   4.078
11210TIP3   OH233570   8.066   4.841   1.959
11210TIP3    H133571   8.041   4.774   2.023
11210TIP3    H233572   8.084   4.919   2.012
11211TIP3   OH233573   2.409   5.684   3.405
11211TIP3    H133574   2.465   5.680   3.483
11211TIP3    H233575   2.446   5.618   3.346
11212TIP3   OH233576   4.513   6.257   0.266
11212TIP3    H133577   4.492   6.310   0.343
11212TIP3    H233578   4.530   6.170   0.302
11213TIP3   OH233579   0.105   3.645   5.029
11213TIP3    H133580   0.044   3.573   5.013
11213TIP3    H233581   0.066   3.720   4.985
11214TIP3   OH233582   2.429   0.003   1.563
11214TIP3    H133583   2.449   0.092   1.533
11214TIP3    H233584   2.480  -0.007   1.643
11215TIP3   OH233585   4.744   6.962   6.546
11215TIP3    H133586   4.652   6.973   6.523
11215TIP3    H233587   4.764   6.871   6.522
11216TIP3   OH233588   7.641   0.501   4.027
11216TIP3    H133589   7.648   0.551   3.946
11216TIP3    H233590   7.552   0.466   4.026
11217TIP3   OH233591   3.075   6.464   6.676
11217TIP3    H133592   3.064   6.380   6.720
11217TIP3    H233593   3.054   6.446   6.585
11218TIP3   OH233594   4.480   6.339   1.765
11218TIP3    H133595   4.397   6.387   1.772
11218TIP3    H233596   4.459   6.251   1.797
11219TIP3   OH233597   5.404   1.723   3.746
11219TIP3    H133598   5.457   1.667   3.690
11219TIP3    H233599   5.469   1.774   3.795
11220TIP3   OH233600   0.361   4.430   3.069
11220TIP3    H133601   0.282   4.428   3.015
11220TIP3    H233602   0.415   4.498   3.031
11221TIP3   OH233603   1.633   3.683   0.992
11221TIP3    H133604   1.636   3.773   1.024
11221TIP3    H233605   1.721   3.668   0.957
11222TIP3   OH233606   3.878   1.193   0.332
11222TIP3    H133607   3.855   1.218   0.421
11222TIP3    H233608   3.813   1.127   0.308
11223TIP3   OH233609   2.101   6.309   1.457
11223TIP3    H133610   2.024   6.351   1.496
11223TIP3    H233611   2.064   6.240   1.401
11224TIP3   OH233612   4.891   2.416   2.808
11224TIP3    H133613   4.985   2.399   2.817
11224TIP3    H233614   4.861   2.435   2.897
11225TIP3   OH233615   3.143   2.301   5.137
11225TIP3    H133616   3.113   2.211   5.124
11225TIP3    H233617   3.229   2.292   5.178
11226TIP3   OH233618   5.715   1.393   6.171
11226TIP3    H133619   5.643   1.457   6.174
11226TIP3    H233620   5.792   1.441   6.201
11227TIP3   OH233621   7.143   1.787   4.100
11227TIP3    H133622   7.225   1.803   4.053
11227TIP3    H233623   7.110   1.705   4.063
11228TIP3   OH233624   5.526   2.455   6.100
11228TIP3    H133625   5.461   2.489   6.039
11228TIP3    H233626   5.609   2.490   6.070
11229TIP3   OH233627   7.658   2.241   5.384
11229TIP3    H133628   7.663   2.145   5.381
11229TIP3    H233629   7.749   2.270   5.388
11230TIP3   OH233630   2.142   4.367   2.235
11230TIP3    H133631   2.129   4.436   2.170
11230TIP3    H233632   2.179   4.294   2.186
11231TIP3   OH233633   1.423   2.562   5.060
11231TIP3    H133634   1.504   2.531   5.020
11231TIP3    H233635   1.353   2.520   5.009
11232TIP3   OH233636   7.270   0.555   4.496
11232TIP3    H133637   7.245   0.463   4.502
11232TIP3    H233638   7.317   0.562   4.412
11233TIP3   OH233639   5.770   7.395   0.485
11233TIP3    H133640   5.713   7.433   0.552
11233TIP3    H233641   5.732   7.310   0.467
11234TIP3   OH233642   5.579   5.911   5.193
11234TIP3    H133643   5.593   5.866   5.110
11234TIP3    H233644   5.666   5.944   5.217
11235TIP3   OH233645   8.231   2.936   6.085
11235TIP3    H133646   8.208   2.935   6.178
11235TIP3    H233647   8.164   2.882   6.044
11236TIP3   OH233648   6.078   7.638   0.108
11236TIP3    H133649   6.166   7.676   0.112
11236TIP3    H233650   6.048   7.638   0.199
11237TIP3   OH233651   7.510   6.403   3.631
11237TIP3    H133652   7.564   6.352   3.571
11237TIP3    H233653   7.570   6.434   3.698
11238TIP3   OH233654   3.624   0.734   2.979
11238TIP3    H133655   3.651   0.812   2.930
11238TIP3    H233656   3.529   0.731   2.969
11239TIP3   OH233657   5.776   4.616   5.428
11239TIP3    H133658   5.696   4.652   5.465
11239TIP3    H233659   5.846   4.648   5.484
11240TIP3   OH233660   1.907   5.498   2.817
11240TIP3    H133661   1.826   5.543   2.843
11240TIP3    H233662   1.915   5.517   2.724
11241TIP3   OH233663   1.734   4.393   0.949
11241TIP3    H133664   1.763   4.470   0.902
11241TIP3    H233665   1.699   4.335   0.882
11242TIP3   OH233666   3.519   4.612   4.737
11242TIP3    H133667   3.604   4.577   4.710
11242TIP3    H233668   3.477   4.539   4.784
11243TIP3   OH233669   3.333   3.048   3.849
11243TIP3    H133670   3.410   3.103   3.858
11243TIP3    H233671   3.342   2.983   3.920
11244TIP3   OH233672   8.268   3.999   0.314
11244TIP3    H133673   8.316   3.922   0.287
11244TIP3    H233674   8.183   3.991   0.271
11245TIP3   OH233675   2.544   6.913   3.219
11245TIP3    H133676   2.636   6.906   3.242
11245TIP3    H233677   2.497   6.887   3.298
11246TIP3   OH233678   2.972   1.400   6.202
11246TIP3    H133679   2.955   1.456   6.126
11246TIP3    H233680   2.972   1.311   6.167
11247TIP3   OH233681   7.040   4.874   6.227
11247TIP3    H133682   7.047   4.865   6.322
11247TIP3    H233683   7.001   4.792   6.198
11248TIP3   OH233684   4.139   0.061   5.707
11248TIP3    H133685   4.146  -0.033   5.689
11248TIP3    H233686   4.227   0.088   5.734
11249TIP3   OH233687   2.737   7.607   0.286
11249TIP3    H133688   2.800   7.675   0.312
11249TIP3    H233689   2.739   7.608   0.190
11250TIP3   OH233690   3.219   0.668   4.523
11250TIP3    H133691   3.179   0.717   4.595
11250TIP3    H233692   3.165   0.590   4.514
11251TIP3   OH233693   8.006   4.907   0.842
11251TIP3    H133694   8.010   4.978   0.779
11251TIP3    H233695   8.087   4.857   0.828
11252TIP3   OH233696   0.293   2.650   0.910
11252TIP3    H133697   0.383   2.623   0.931
11252TIP3    H233698   0.252   2.666   0.995
11253TIP3   OH233699   2.719   1.301   6.677
11253TIP3    H133700   2.796   1.313   6.732
11253TIP3    H233701   2.648   1.347   6.723
11254TIP3   OH233702   0.413   2.131   2.071
11254TIP3    H133703   0.472   2.083   2.129
11254TIP3    H233704   0.350   2.172   2.130
11255TIP3   OH233705   3.919   0.396   1.456
11255TIP3    H133706   3.902   0.475   1.405
11255TIP3    H233707   3.879   0.326   1.406
11256TIP3   OH233708   3.094   4.615   6.762
11256TIP3    H133709   3.051   4.545   6.811
11256TIP3    H233710   3.110   4.684   6.827
11257TIP3   OH233711   1.385   4.069   2.051
11257TIP3    H133712   1.432   4.021   2.119
11257TIP3    H233713   1.397   4.016   1.972
11258TIP3   OH233714   4.420   2.607   0.678
11258TIP3    H133715   4.448   2.637   0.765
11258TIP3    H233716   4.337   2.651   0.663
11259TIP3   OH233717   4.072   1.236   1.026
11259TIP3    H133718   4.119   1.212   0.946
11259TIP3    H233719   4.079   1.331   1.029
11260TIP3   OH233720   4.887   6.665   5.011
11260TIP3    H133721   4.838   6.621   4.941
11260TIP3    H233722   4.857   6.623   5.092
11261TIP3   OH233723   3.450   0.259   5.698
11261TIP3    H133724   3.470   0.233   5.788
11261TIP3    H233725   3.507   0.205   5.644
11262TIP3   OH233726   6.140   2.057   4.455
11262TIP3    H133727   6.173   2.022   4.372
11262TIP3    H233728   6.212   2.111   4.488
11263TIP3   OH233729   6.330   7.686   2.256
11263TIP3    H133730   6.293   7.746   2.320
11263TIP3    H233731   6.264   7.682   2.186
11264TIP3   OH233732   4.753   6.398   4.077
11264TIP3    H133733   4.735   6.489   4.101
11264TIP3    H233734   4.760   6.400   3.981
11265TIP3   OH233735   2.024   7.709   2.117
11265TIP3    H133736   1.938   7.671   2.096
11265TIP3    H233737   2.055   7.746   2.034
11266TIP3   OH233738   7.458   2.230   6.504
11266TIP3    H133739   7.414   2.271   6.430
11266TIP3    H233740   7.537   2.282   6.517
11267TIP3   OH233741   4.265   5.888   2.625
11267TIP3    H133742   4.199   5.820   2.610
11267TIP3    H233743   4.341   5.861   2.575
11268TIP3   OH233744   3.251   0.067   3.679
11268TIP3    H133745   3.167   0.032   3.711
11268TIP3    H233746   3.283   0.000   3.619
11269TIP3   OH233747   7.381   5.800   4.567
11269TIP3    H133748   7.328   5.859   4.514
11269TIP3    H233749   7.463   5.847   4.580
11270TIP3   OH233750   7.958   4.809   6.104
11270TIP3    H133751   7.900   4.884   6.089
11270TIP3    H233752   8.017   4.808   6.028
11271TIP3   OH233753   0.709   0.770   1.112
11271TIP3    H133754   0.626   0.813   1.133
11271TIP3    H233755   0.686   0.700   1.052
11272TIP3   OH233756   3.579   5.653   4.943
11272TIP3    H133757   3.603   5.565   4.915
11272TIP3    H233758   3.637   5.711   4.894
11273TIP3   OH233759   4.636   1.250   1.393
11273TIP3    H133760   4.562   1.214   1.343
11273TIP3    H233761   4.639   1.342   1.368
11274TIP3   OH233762   4.160   0.017   5.195
11274TIP3    H133763   4.231  -0.034   5.233
11274TIP3    H233764   4.181   0.021   5.101
11275TIP3   OH233765   6.714   7.288   2.747
11275TIP3    H133766   6.798   7.332   2.736
11275TIP3    H233767   6.699   7.243   2.664
11276TIP3   OH233768   1.457   1.318   0.050
11276TIP3    H133769   1.467   1.260   0.125
11276TIP3    H233770   1.546   1.350   0.033
11277TIP3   OH233771   8.297   1.217   0.226
11277TIP3    H133772   8.295   1.303   0.268
11277TIP3    H233773   8.316   1.236   0.134
11278TIP3   OH233774   0.556   7.002   5.760
11278TIP3    H133775   0.550   6.948   5.682
11278TIP3    H233776   0.637   7.052   5.749
11279TIP3   OH233777   3.122   7.103   5.784
11279TIP3    H133778   3.027   7.112   5.778
11279TIP3    H233779   3.137   7.080   5.876
11280TIP3   OH233780   8.024   7.133   6.777
11280TIP3    H133781   7.974   7.101   6.702
11280TIP3    H233782   8.053   7.054   6.822
11281TIP3   OH233783   0.002   2.707   3.640
11281TIP3    H133784   0.094   2.732   3.650
11281TIP3    H233785  -0.028   2.759   3.565
11282TIP3   OH233786   6.049   3.845   3.605
11282TIP3    H133787   6.102   3.840   3.526
11282TIP3    H233788   5.970   3.795   3.585
11283TIP3   OH233789   2.430   1.258   1.286
11283TIP3    H133790   2.453   1.243   1.194
11283TIP3    H233791   2.344   1.301   1.282
11284TIP3   OH233792   0.603   0.434   5.857
11284TIP3    H133793   0.673   0.424   5.921
11284TIP3    H233794   0.599   0.350   5.812
11285TIP3   OH233795   3.562   0.637   5.633
11285TIP3    H133796   3.501   0.581   5.680
11285TIP3    H233797   3.603   0.690   5.700
11286TIP3   OH233798   4.262   2.382   2.361
11286TIP3    H133799   4.262   2.439   2.285
11286TIP3    H233800   4.221   2.301   2.331
11287TIP3   OH233801   7.333   4.941   2.431
11287TIP3    H133802   7.251   4.940   2.381
11287TIP3    H233803   7.384   5.011   2.391
11288TIP3   OH233804   2.651   2.981   5.762
11288TIP3    H133805   2.649   3.074   5.784
11288TIP3    H233806   2.744   2.960   5.754
11289TIP3   OH233807   7.819   5.493   1.552
11289TIP3    H133808   7.841   5.453   1.468
11289TIP3    H233809   7.896   5.478   1.606
11290TIP3   OH233810   7.240   5.979   3.426
11290TIP3    H133811   7.274   6.042   3.489
11290TIP3    H233812   7.145   5.990   3.429
11291TIP3   OH233813   1.870   4.324   4.946
11291TIP3    H133814   1.854   4.244   4.996
11291TIP3    H233815   1.927   4.376   5.003
11292TIP3   OH233816   7.761   6.405   3.507
11292TIP3    H133817   7.720   6.488   3.481
11292TIP3    H233818   7.854   6.417   3.487
11293TIP3   OH233819   8.181   7.192   2.757
11293TIP3    H133820   8.248   7.133   2.724
11293TIP3    H233821   8.228   7.252   2.815
11294TIP3   OH233822   1.672   3.887   4.494
11294TIP3    H133823   1.646   3.815   4.551
11294TIP3    H233824   1.696   3.845   4.412
11295TIP3   OH233825   3.329   1.147   3.947
11295TIP3    H133826   3.362   1.194   3.871
11295TIP3    H233827   3.361   1.058   3.936
11296TIP3   OH233828   3.340   4.191   0.667
11296TIP3    H133829   3.399   4.119   0.645
11296TIP3    H233830   3.255   4.150   0.681
11297TIP3   OH233831   6.625   1.971   5.729
11297TIP3    H133832   6.625   2.044   5.792
11297TIP3    H233833   6.580   1.900   5.775
11298TIP3   OH233834   5.703   7.016   5.840
11298TIP3    H133835   5.617   6.990   5.808
11298TIP3    H233836   5.731   6.943   5.896
11299TIP3   OH233837   3.126   2.451   4.213
11299TIP3    H133838   3.189   2.451   4.140
11299TIP3    H233839   3.180   2.444   4.291
11300TIP3   OH233840   7.518   1.260   6.132
11300TIP3    H133841   7.480   1.267   6.044
11300TIP3    H233842   7.544   1.350   6.154
11301TIP3   OH233843   3.391   3.845   6.399
11301TIP3    H133844   3.462   3.784   6.418
11301TIP3    H233845   3.311   3.795   6.417
11302TIP3   OH233846   0.828   3.568   6.782
11302TIP3    H133847   0.838   3.659   6.751
11302TIP3    H233848   0.738   3.563   6.813
11303TIP3   OH233849   6.584   0.236   0.750
11303TIP3    H133850   6.578   0.237   0.845
11303TIP3    H233851   6.670   0.198   0.731
11304TIP3   OH233852   3.214   7.761   6.881
11304TIP3    H133853   3.152   7.756   6.808
11304TIP3    H233854   3.297   7.785   6.839
11305TIP3   OH233855   0.555   2.169   2.420
11305TIP3    H133856   0.596   2.255   2.411
11305TIP3    H233857   0.495   2.178   2.494
11306TIP3   OH233858   0.858   2.324   4.187
11306TIP3    H133859   0.920   2.267   4.141
11306TIP3    H233860   0.872   2.306   4.280
11307TIP3   OH233861   8.280   1.937   3.881
11307TIP3    H133862   8.297   1.844   3.866
11307TIP3    H233863   8.265   1.944   3.975
11308TIP3   OH233864   1.116   2.812   0.062
11308TIP3    H133865   1.092   2.728   0.102
11308TIP3    H233866   1.032   2.857   0.049
11309TIP3   OH233867   7.343   0.832   2.025
11309TIP3    H133868   7.275   0.892   1.995
11309TIP3    H233869   7.305   0.745   2.016
11310TIP3   OH233870   5.425   2.710   2.733
11310TIP3    H133871   5.360   2.780   2.726
11310TIP3    H233872   5.376   2.630   2.716
11311TIP3   OH233873   2.282   5.505   2.601
11311TIP3    H133874   2.297   5.414   2.575
11311TIP3    H233875   2.210   5.534   2.544
11312TIP3   OH233876   5.677   6.853   2.659
11312TIP3    H133877   5.724   6.775   2.689
11312TIP3    H233878   5.746   6.916   2.640
11313TIP3   OH233879   1.612   3.092   0.486
11313TIP3    H133880   1.550   3.155   0.521
11313TIP3    H233881   1.698   3.133   0.499
11314TIP3   OH233882   3.313   1.175   4.554
11314TIP3    H133883   3.239   1.220   4.513
11314TIP3    H233884   3.276   1.133   4.632
11315TIP3   OH233885   3.306   1.694   2.005
11315TIP3    H133886   3.256   1.764   2.047
11315TIP3    H233887   3.248   1.617   2.011
11316TIP3   OH233888   6.752   6.239   4.407
11316TIP3    H133889   6.760   6.220   4.314
11316TIP3    H233890   6.660   6.258   4.420
11317TIP3   OH233891   2.727   0.206   0.543
11317TIP3    H133892   2.771   0.143   0.487
11317TIP3    H233893   2.782   0.284   0.540
11318TIP3   OH233894   1.155   5.534   0.225
11318TIP3    H133895   1.244   5.571   0.226
11318TIP3    H233896   1.121   5.552   0.313
11319TIP3   OH233897   1.396   5.414   3.613
11319TIP3    H133898   1.419   5.334   3.565
11319TIP3    H233899   1.399   5.387   3.705
11320TIP3   OH233900   6.645   5.148   5.768
11320TIP3    H133901   6.705   5.088   5.813
11320TIP3    H233902   6.695   5.182   5.695
11321TIP3   OH233903   0.631   3.815   6.307
11321TIP3    H133904   0.678   3.876   6.249
11321TIP3    H233905   0.676   3.732   6.296
11322TIP3   OH233906   0.504   5.451   5.104
11322TIP3    H133907   0.599   5.465   5.107
11322TIP3    H233908   0.493   5.359   5.127
11323TIP3   OH233909   2.734   2.728   6.414
11323TIP3    H133910   2.709   2.667   6.483
11323TIP3    H233911   2.716   2.681   6.332
11324TIP3   OH233912   3.153   5.252   0.390
11324TIP3    H133913   3.091   5.322   0.409
11324TIP3    H233914   3.132   5.226   0.300
11325TIP3   OH233915   0.910   4.753   0.828
11325TIP3    H133916   0.896   4.658   0.834
11325TIP3    H233917   0.998   4.766   0.863
11326TIP3   OH233918   5.024   0.842   5.003
11326TIP3    H133919   5.013   0.857   5.097
11326TIP3    H233920   4.979   0.915   4.961
11327TIP3   OH233921   3.606   0.848   5.841
11327TIP3    H133922   3.580   0.837   5.933
11327TIP3    H233923   3.528   0.884   5.798
11328TIP3   OH233924   5.398   7.510   6.402
11328TIP3    H133925   5.361   7.509   6.490
11328TIP3    H233926   5.340   7.453   6.351
11329TIP3   OH233927   6.746   6.078   0.880
11329TIP3    H133928   6.769   5.986   0.890
11329TIP3    H233929   6.802   6.110   0.810
11330TIP3   OH233930   2.691   2.612   0.631
11330TIP3    H133931   2.699   2.541   0.695
11330TIP3    H233932   2.781   2.641   0.616
11331TIP3   OH233933   1.093   7.627   5.199
11331TIP3    H133934   1.064   7.688   5.267
11331TIP3    H233935   1.077   7.674   5.117
11332TIP3   OH233936   3.863   0.486   0.585
11332TIP3    H133937   3.868   0.415   0.649
11332TIP3    H233938   3.859   0.443   0.500
11333TIP3   OH233939   5.018   2.146   0.357
11333TIP3    H133940   4.955   2.141   0.429
11333TIP3    H233941   5.044   2.055   0.342
11334TIP3   OH233942   3.304   5.145   1.001
11334TIP3    H133943   3.356   5.226   1.006
11334TIP3    H233944   3.369   5.075   1.000
11335TIP3   OH233945   7.722   3.255   2.925
11335TIP3    H133946   7.633   3.227   2.946
11335TIP3    H233947   7.771   3.174   2.912
11336TIP3   OH233948   3.004   0.755   0.502
11336TIP3    H133949   3.030   0.843   0.530
11336TIP3    H233950   2.914   0.765   0.471
11337TIP3   OH233951   7.255   2.338   5.754
11337TIP3    H133952   7.167   2.347   5.718
11337TIP3    H233953   7.259   2.401   5.826
11338TIP3   OH233954   6.910   5.646   0.756
11338TIP3    H133955   6.855   5.568   0.760
11338TIP3    H233956   6.952   5.641   0.670
11339TIP3   OH233957   5.333   3.652   6.400
11339TIP3    H133958   5.255   3.620   6.446
11339TIP3    H233959   5.301   3.723   6.344
11340TIP3   OH233960   3.219   7.113   6.049
11340TIP3    H133961   3.313   7.112   6.070
11340TIP3    H233962   3.177   7.139   6.131
11341TIP3   OH233963   6.345   1.127   6.173
11341TIP3    H133964   6.281   1.179   6.123
11341TIP3    H233965   6.299   1.045   6.193
11342TIP3   OH233966   6.495   7.810   3.248
11342TIP3    H133967   6.403   7.835   3.251
11342TIP3    H233968   6.509   7.781   3.158
11343TIP3   OH233969   8.162   6.275   4.085
11343TIP3    H133970   8.138   6.189   4.050
11343TIP3    H233971   8.234   6.304   4.028
11344TIP3   OH233972   7.963   5.184   5.893
11344TIP3    H133973   7.907   5.117   5.933
11344TIP3    H233974   8.036   5.134   5.855
11345TIP3   OH233975   4.513   7.492   0.757
11345TIP3    H133976   4.461   7.570   0.776
11345TIP3    H233977   4.497   7.433   0.831
11346TIP3   OH233978   5.398   6.147   6.774
11346TIP3    H133979   5.491   6.133   6.756
11346TIP3    H233980   5.352   6.099   6.705
11347TIP3   OH233981   0.954   1.263   1.631
11347TIP3    H133982   0.985   1.324   1.699
11347TIP3    H233983   0.888   1.210   1.674
11348TIP3   OH233984   1.935   7.876   6.223
11348TIP3    H133985   1.917   7.782   6.230
11348TIP3    H233986   1.925   7.896   6.130
11349TIP3   OH233987   0.077   6.121   1.247
11349TIP3    H133988   0.061   6.123   1.341
11349TIP3    H233989   0.051   6.208   1.216
11350TIP3   OH233990   6.635   5.414   2.477
11350TIP3    H133991   6.665   5.457   2.397
11350TIP3    H233992   6.587   5.482   2.525
11351TIP3   OH233993   5.264   4.468   2.539
11351TIP3    H133994   5.196   4.501   2.481
11351TIP3    H233995   5.263   4.527   2.615
11352TIP3   OH233996   0.048   0.900   0.965
11352TIP3    H133997  -0.039   0.918   0.929
11352TIP3    H233998   0.057   0.960   1.039
11353TIP3   OH233999   1.104   2.264   0.987
11353TIP3    H134000   1.049   2.240   1.061
11353TIP3    H234001   1.073   2.351   0.961
11354TIP3   OH234002   3.463   4.096   5.184
11354TIP3    H134003   3.401   4.046   5.237
11354TIP3    H234004   3.520   4.139   5.247
11355TIP3   OH234005   1.609   1.588   5.484
11355TIP3    H134006   1.591   1.610   5.392
11355TIP3    H234007   1.618   1.493   5.484
11356TIP3   OH234008   6.911   5.238   4.135
11356TIP3    H134009   6.988   5.211   4.185
11356TIP3    H234010   6.839   5.189   4.175
11357TIP3   OH234011   7.711   5.275   5.413
11357TIP3    H134012   7.757   5.200   5.377
11357TIP3    H234013   7.683   5.326   5.337
11358TIP3   OH234014   6.947   6.626   0.571
11358TIP3    H134015   6.995   6.709   0.573
11358TIP3    H234016   6.857   6.652   0.548
11359TIP3   OH234017   5.842   6.020   5.272
11359TIP3    H134018   5.848   6.115   5.260
11359TIP3    H234019   5.808   6.009   5.361
11360TIP3   OH234020   0.892   3.497   3.111
11360TIP3    H134021   0.984   3.501   3.137
11360TIP3    H234022   0.848   3.560   3.169
11361TIP3   OH234023   5.839   4.141   0.413
11361TIP3    H134024   5.770   4.206   0.429
11361TIP3    H234025   5.793   4.066   0.375
11362TIP3   OH234026   6.353   7.507   6.322
11362TIP3    H134027   6.323   7.597   6.333
11362TIP3    H234028   6.277   7.461   6.285
11363TIP3   OH234029   7.968   6.427   0.384
11363TIP3    H134030   7.997   6.400   0.471
11363TIP3    H234031   8.002   6.360   0.325
11364TIP3   OH234032   3.929   7.175   5.163
11364TIP3    H134033   3.994   7.130   5.217
11364TIP3    H234034   3.847   7.132   5.184
11365TIP3   OH234035   6.250   7.773   6.311
11365TIP3    H134036   6.212   7.767   6.399
11365TIP3    H234037   6.183   7.817   6.259
11366TIP3   OH234038   2.267   6.618   2.966
11366TIP3    H134039   2.211   6.605   2.890
11366TIP3    H234040   2.342   6.560   2.951
11367TIP3   OH234041   4.963   6.188   2.512
11367TIP3    H134042   4.870   6.177   2.491
11367TIP3    H234043   4.998   6.238   2.438
11368TIP3   OH234044   0.043   1.056   3.880
11368TIP3    H134045   0.030   1.082   3.789
11368TIP3    H234046   0.134   1.079   3.899
11369TIP3   OH234047   7.024   2.870   3.334
11369TIP3    H134048   6.966   2.864   3.258
11369TIP3    H234049   7.067   2.784   3.339
11370TIP3   OH234050   5.367   1.295   5.482
11370TIP3    H134051   5.364   1.293   5.387
11370TIP3    H234052   5.319   1.217   5.510
11371TIP3   OH234053   5.058   0.181   1.837
11371TIP3    H134054   5.118   0.185   1.912
11371TIP3    H234055   5.108   0.221   1.765
11372TIP3   OH234056   1.588   6.934   6.088
11372TIP3    H134057   1.643   6.959   6.162
11372TIP3    H234058   1.639   6.868   6.041
11373TIP3   OH234059   3.222   6.166   6.019
11373TIP3    H134060   3.255   6.076   6.020
11373TIP3    H234061   3.247   6.202   6.104
11374TIP3   OH234062   4.545   7.206   3.984
11374TIP3    H134063   4.640   7.208   3.997
11374TIP3    H234064   4.532   7.235   3.894
11375TIP3   OH234065   2.701   4.352   3.200
11375TIP3    H134066   2.712   4.438   3.159
11375TIP3    H234067   2.616   4.321   3.169
11376TIP3   OH234068   2.035   4.493   4.369
11376TIP3    H134069   1.991   4.416   4.405
11376TIP3    H234070   2.074   4.535   4.446
11377TIP3   OH234071   1.666   1.773   6.198
11377TIP3    H134072   1.690   1.686   6.230
11377TIP3    H234073   1.578   1.762   6.161
11378TIP3   OH234074   2.085   6.124   4.129
11378TIP3    H134075   2.172   6.088   4.112
11378TIP3    H234076   2.101   6.201   4.184
11379TIP3   OH234077   1.010   6.973   1.580
11379TIP3    H134078   0.922   6.936   1.572
11379TIP3    H234079   1.063   6.924   1.517
11380TIP3   OH234080   2.665   1.111   4.660
11380TIP3    H134081   2.707   1.099   4.575
11380TIP3    H234082   2.682   1.030   4.708
11381TIP3   OH234083   3.200   1.638   3.788
11381TIP3    H134084   3.271   1.626   3.726
11381TIP3    H234085   3.166   1.726   3.770
11382TIP3   OH234086   6.998   7.756   1.992
11382TIP3    H134087   6.909   7.772   1.963
11382TIP3    H234088   7.000   7.662   2.013
11383TIP3   OH234089   7.106   1.361   3.371
11383TIP3    H134090   7.066   1.276   3.390
11383TIP3    H234091   7.061   1.422   3.430
11384TIP3   OH234092   1.856   4.808   3.101
11384TIP3    H134093   1.907   4.781   3.178
11384TIP3    H234094   1.765   4.804   3.131
11385TIP3   OH234095   4.202   4.084   3.876
11385TIP3    H134096   4.281   4.062   3.827
11385TIP3    H234097   4.173   4.001   3.916
11386TIP3   OH234098   0.077   1.714   2.727
11386TIP3    H134099   0.032   1.797   2.717
11386TIP3    H234100   0.024   1.651   2.678
11387TIP3   OH234101   1.303   4.912   1.670
11387TIP3    H134102   1.211   4.887   1.677
11387TIP3    H234103   1.301   4.999   1.630
11388TIP3   OH234104   8.094   4.388   2.614
11388TIP3    H134105   8.024   4.441   2.652
11388TIP3    H234106   8.110   4.427   2.528
11389TIP3   OH234107   0.956   6.341   6.151
11389TIP3    H134108   0.867   6.376   6.147
11389TIP3    H234109   0.963   6.301   6.238
11390TIP3   OH234110   3.454   1.904   3.508
11390TIP3    H134111   3.360   1.905   3.527
11390TIP3    H234112   3.468   1.982   3.453
11391TIP3   OH234113   7.568   5.285   4.635
11391TIP3    H134114   7.640   5.345   4.654
11391TIP3    H234115   7.510   5.333   4.576
11392TIP3   OH234116   6.358   3.058   2.133
11392TIP3    H134117   6.412   3.108   2.072
11392TIP3    H234118   6.421   3.006   2.183
11393TIP3   OH234119   1.264   0.598   4.494
11393TIP3    H134120   1.321   0.573   4.422
11393TIP3    H234121   1.262   0.520   4.550
11394TIP3   OH234122   6.294   7.331   3.430
11394TIP3    H134123   6.279   7.238   3.414
11394TIP3    H234124   6.228   7.356   3.494
11395TIP3   OH234125   0.996   7.745   0.850
11395TIP3    H134126   1.001   7.671   0.910
11395TIP3    H234127   0.912   7.735   0.806
11396TIP3   OH234128   1.615   0.916   0.758
11396TIP3    H134129   1.692   0.968   0.736
11396TIP3    H234130   1.598   0.863   0.679
11397TIP3   OH234131   7.301   1.203   1.374
11397TIP3    H134132   7.276   1.290   1.405
11397TIP3    H234133   7.298   1.210   1.279
11398TIP3   OH234134   8.339   4.946   1.916
11398TIP3    H134135   8.383   4.924   1.998
11398TIP3    H234136   8.259   4.894   1.917
11399TIP3   OH234137   2.206   2.975   6.067
11399TIP3    H134138   2.300   2.985   6.053
11399TIP3    H234139   2.198   2.944   6.157
11400TIP3   OH234140   1.941   3.071   2.260
11400TIP3    H134141   2.028   3.106   2.279
11400TIP3    H234142   1.921   3.013   2.333
11401TIP3   OH234143   5.215   7.078   4.298
11401TIP3    H134144   5.270   7.065   4.375
11401TIP3    H234145   5.220   7.172   4.280
11402TIP3   OH234146   3.819   0.110   1.681
11402TIP3    H134147   3.839   0.026   1.639
11402TIP3    H234148   3.724   0.118   1.671
11403TIP3   OH234149   1.998   5.477   5.915
11403TIP3    H134150   1.982   5.418   5.841
11403TIP3    H234151   1.940   5.552   5.899
11404TIP3   OH234152   1.884   7.626   2.559
11404TIP3    H134153   1.941   7.702   2.549
11404TIP3    H234154   1.816   7.638   2.493
11405TIP3   OH234155   0.934   6.673   0.846
11405TIP3    H134156   0.875   6.720   0.786
11405TIP3    H234157   0.903   6.583   0.843
11406TIP3   OH234158   5.456   6.779   2.465
11406TIP3    H134159   5.522   6.785   2.534
11406TIP3    H234160   5.394   6.713   2.497
11407TIP3   OH234161   4.121   1.944   5.564
11407TIP3    H134162   4.213   1.925   5.542
11407TIP3    H234163   4.077   1.860   5.560
11408TIP3   OH234164   5.869   5.867   4.384
11408TIP3    H134165   5.924   5.860   4.306
11408TIP3    H234166   5.780   5.878   4.350
11409TIP3   OH234167   7.671   4.168   5.524
11409TIP3    H134168   7.598   4.221   5.555
11409TIP3    H234169   7.669   4.177   5.429
11410TIP3   OH234170   3.656   5.013   4.130
11410TIP3    H134171   3.631   4.928   4.168
11410TIP3    H234172   3.589   5.073   4.161
11411TIP3   OH234173   7.717   6.575   6.717
11411TIP3    H134174   7.749   6.554   6.629
11411TIP3    H234175   7.793   6.614   6.761
11412TIP3   OH234176   8.010   3.438   6.117
11412TIP3    H134177   8.067   3.374   6.158
11412TIP3    H234178   7.949   3.387   6.064
11413TIP3   OH234179   3.452   3.242   6.595
11413TIP3    H134180   3.456   3.189   6.515
11413TIP3    H234181   3.372   3.213   6.638
11414TIP3   OH234182   2.745   0.350   6.520
11414TIP3    H134183   2.820   0.349   6.461
11414TIP3    H234184   2.676   0.304   6.473
11415TIP3   OH234185   3.993   5.445   5.876
11415TIP3    H134186   3.953   5.390   5.944
11415TIP3    H234187   4.029   5.520   5.925
11416TIP3   OH234188   3.860   0.265   0.734
11416TIP3    H134189   3.781   0.211   0.733
11416TIP3    H234190   3.931   0.204   0.751
11417TIP3   OH234191   4.094   4.725   5.485
11417TIP3    H134192   4.081   4.632   5.501
11417TIP3    H234193   4.128   4.759   5.568
11418TIP3   OH234194   6.611   2.582   3.493
11418TIP3    H134195   6.588   2.662   3.540
11418TIP3    H234196   6.668   2.534   3.553
11419TIP3   OH234197   4.892   2.486   3.135
11419TIP3    H134198   4.802   2.460   3.158
11419TIP3    H234199   4.881   2.567   3.085
11420TIP3   OH234200   6.835   7.017   6.229
11420TIP3    H134201   6.921   7.048   6.201
11420TIP3    H234202   6.845   6.922   6.237
11421TIP3   OH234203   7.174   6.620   6.747
11421TIP3    H134204   7.172   6.525   6.758
11421TIP3    H234205   7.158   6.634   6.654
11422TIP3   OH234206   1.926   4.938   6.607
11422TIP3    H134207   1.871   4.863   6.629
11422TIP3    H234208   1.864   5.009   6.591
11423TIP3   OH234209   7.157   1.731   6.733
11423TIP3    H134210   7.096   1.787   6.686
11423TIP3    H234211   7.161   1.768   6.821
11424TIP3   OH234212   6.006   1.165   6.535
11424TIP3    H134213   6.013   1.093   6.473
11424TIP3    H234214   6.059   1.137   6.610
11425TIP3   OH234215   2.034   6.716   3.643
11425TIP3    H134216   2.056   6.703   3.735
11425TIP3    H234217   2.061   6.806   3.623
11426TIP3   OH234218   7.664   1.670   3.894
11426TIP3    H134219   7.654   1.599   3.830
11426TIP3    H234220   7.757   1.695   3.887
11427TIP3   OH234221   1.239   6.746   1.651
11427TIP3    H134222   1.238   6.779   1.561
11427TIP3    H234223   1.250   6.824   1.705
11428TIP3   OH234224   0.148   6.152   4.142
11428TIP3    H134225   0.176   6.228   4.193
11428TIP3    H234226   0.213   6.084   4.162
11429TIP3   OH234227   0.820   2.061   1.686
11429TIP3    H134228   0.746   2.002   1.702
11429TIP3    H234229   0.859   2.074   1.772
11430TIP3   OH234230   6.925   4.468   1.804
11430TIP3    H134231   6.892   4.385   1.770
11430TIP3    H234232   7.007   4.483   1.757
11431TIP3   OH234233   3.639   0.249   0.316
11431TIP3    H134234   3.651   0.156   0.337
11431TIP3    H234235   3.727   0.286   0.319
11432TIP3   OH234236   4.800   5.481   2.339
11432TIP3    H134237   4.814   5.470   2.245
11432TIP3    H234238   4.706   5.493   2.348
11433TIP3   OH234239   3.097   1.242   5.588
11433TIP3    H134240   3.069   1.262   5.677
11433TIP3    H234241   3.192   1.229   5.595
11434TIP3   OH234242   5.178   3.386   5.701
11434TIP3    H134243   5.140   3.440   5.632
11434TIP3    H234244   5.133   3.302   5.694
11435TIP3   OH234245   0.417   4.528   1.762
11435TIP3    H134246   0.339   4.560   1.807
11435TIP3    H234247   0.491   4.563   1.812
11436TIP3   OH234248   7.226   7.750   2.279
11436TIP3    H134249   7.305   7.709   2.314
11436TIP3    H234250   7.220   7.718   2.189
11437TIP3   OH234251   6.220   3.602   4.793
11437TIP3    H134252   6.280   3.562   4.857
11437TIP3    H234253   6.229   3.547   4.715
11438TIP3   OH234254   5.598   6.219   3.072
11438TIP3    H134255   5.529   6.165   3.109
11438TIP3    H234256   5.676   6.165   3.076
11439TIP3   OH234257   0.765   4.912   1.036
11439TIP3    H134258   0.810   4.982   1.084
11439TIP3    H234259   0.806   4.913   0.950
11440TIP3   OH234260   6.907   4.817   2.564
11440TIP3    H134261   6.985   4.765   2.547
11440TIP3    H234262   6.856   4.765   2.627
11441TIP3   OH234263   3.355   2.517   4.681
11441TIP3    H134264   3.297   2.523   4.605
11441TIP3    H234265   3.368   2.607   4.709
11442TIP3   OH234266   4.171   3.005   0.625
11442TIP3    H134267   4.142   2.996   0.534
11442TIP3    H234268   4.125   2.934   0.671
11443TIP3   OH234269   4.114   2.890   1.622
11443TIP3    H134270   4.177   2.924   1.559
11443TIP3    H234271   4.161   2.890   1.706
11444TIP3   OH234272   4.453   4.135   5.071
11444TIP3    H134273   4.526   4.155   5.130
11444TIP3    H234274   4.470   4.190   4.994
11445TIP3   OH234275   6.827   7.285   5.520
11445TIP3    H134276   6.760   7.228   5.558
11445TIP3    H234277   6.901   7.227   5.501
11446TIP3   OH234278   0.314   4.595   0.497
11446TIP3    H134279   0.324   4.542   0.577
11446TIP3    H234280   0.385   4.567   0.440
11447TIP3   OH234281   2.358   7.117   6.191
11447TIP3    H134282   2.450   7.096   6.172
11447TIP3    H234283   2.329   7.048   6.249
11448TIP3   OH234284   7.274   1.525   5.080
11448TIP3    H134285   7.303   1.576   5.156
11448TIP3    H234286   7.228   1.589   5.025
11449TIP3   OH234287   1.763   0.281   4.106
11449TIP3    H134288   1.799   0.198   4.136
11449TIP3    H234289   1.686   0.258   4.055
11450TIP3   OH234290   4.824   2.354   2.568
11450TIP3    H134291   4.870   2.385   2.646
11450TIP3    H234292   4.796   2.434   2.523
11451TIP3   OH234293   7.326   2.980   0.413
11451TIP3    H134294   7.265   2.990   0.487
11451TIP3    H234295   7.371   3.065   0.407
11452TIP3   OH234296   0.591   7.060   1.421
11452TIP3    H134297   0.592   7.126   1.490
11452TIP3    H234298   0.667   7.005   1.439
11453TIP3   OH234299   7.286   6.566   4.209
11453TIP3    H134300   7.220   6.556   4.141
11453TIP3    H234301   7.236   6.594   4.287
11454TIP3   OH234302   4.976   7.366   6.441
11454TIP3    H134303   4.913   7.368   6.513
11454TIP3    H234304   5.013   7.454   6.439
11455TIP3   OH234305   6.411   5.440   6.828
11455TIP3    H134306   6.373   5.375   6.769
11455TIP3    H234307   6.416   5.520   6.776
11456TIP3   OH234308   5.747   2.408   4.493
11456TIP3    H134309   5.829   2.424   4.538
11456TIP3    H234310   5.756   2.321   4.456
11457TIP3   OH234311   6.636   2.296   3.360
11457TIP3    H134312   6.677   2.363   3.414
11457TIP3    H234313   6.542   2.306   3.375
11458TIP3   OH234314   0.555   3.693   3.510
11458TIP3    H134315   0.625   3.649   3.559
11458TIP3    H234316   0.514   3.751   3.574
11459TIP3   OH234317   1.379   1.946   6.691
11459TIP3    H134318   1.436   1.875   6.722
11459TIP3    H234319   1.368   1.929   6.598
11460TIP3   OH234320   5.908   7.738   4.087
11460TIP3    H134321   5.932   7.661   4.036
11460TIP3    H234322   5.860   7.703   4.163
11461TIP3   OH234323   4.154   1.682   4.339
11461TIP3    H134324   4.130   1.602   4.293
11461TIP3    H234325   4.180   1.744   4.271
11462TIP3   OH234326   5.429   0.471   5.221
11462TIP3    H134327   5.402   0.541   5.280
11462TIP3    H234328   5.358   0.407   5.226
11463TIP3   OH234329   0.584   2.462   1.188
11463TIP3    H134330   0.496   2.444   1.221
11463TIP3    H234331   0.622   2.375   1.173
11464TIP3   OH234332   0.574   5.208   4.035
11464TIP3    H134333   0.524   5.162   3.966
11464TIP3    H234334   0.665   5.201   4.006
11465TIP3   OH234335   5.234   3.186   5.997
11465TIP3    H134336   5.321   3.221   6.016
11465TIP3    H234337   5.176   3.262   6.000
11466TIP3   OH234338   7.992   0.753   1.418
11466TIP3    H134339   8.041   0.752   1.335
11466TIP3    H234340   8.028   0.828   1.466
11467TIP3   OH234341   3.712   0.801   0.468
11467TIP3    H134342   3.724   0.770   0.558
11467TIP3    H234343   3.684   0.724   0.420
11468TIP3   OH234344   0.821   5.467   6.736
11468TIP3    H134345   0.770   5.399   6.691
11468TIP3    H234346   0.888   5.493   6.673
11469TIP3   OH234347   1.976   3.230   2.561
11469TIP3    H134348   1.926   3.150   2.577
11469TIP3    H234349   2.000   3.261   2.648
11470TIP3   OH234350   2.958   6.449   6.425
11470TIP3    H134351   2.905   6.528   6.427
11470TIP3    H234352   3.023   6.466   6.357
11471TIP3   OH234353   3.281   6.502   5.995
11471TIP3    H134354   3.296   6.433   5.930
11471TIP3    H234355   3.199   6.543   5.968
11472TIP3   OH234356   2.419   2.356   1.037
11472TIP3    H134357   2.338   2.311   1.060
11472TIP3    H234358   2.450   2.393   1.119
11473TIP3   OH234359   2.865   7.355   4.704
11473TIP3    H134360   2.910   7.418   4.647
11473TIP3    H234361   2.784   7.399   4.729
11474TIP3   OH234362   1.569   6.176   6.180
11474TIP3    H134363   1.656   6.196   6.214
11474TIP3    H234364   1.527   6.261   6.171
11475TIP3   OH234365   1.969   2.549   5.603
11475TIP3    H134366   2.004   2.481   5.546
11475TIP3    H234367   1.954   2.505   5.687
11476TIP3   OH234368   2.318   5.155   5.770
11476TIP3    H134369   2.298   5.164   5.863
11476TIP3    H234370   2.346   5.242   5.743
11477TIP3   OH234371   5.458   5.619   1.772
11477TIP3    H134372   5.470   5.645   1.681
11477TIP3    H234373   5.425   5.697   1.816
11478TIP3   OH234374   0.123   3.482   1.158
11478TIP3    H134375   0.130   3.509   1.250
11478TIP3    H234376   0.029   3.486   1.140
11479TIP3   OH234377   2.840   6.258   6.879
11479TIP3    H134378   2.802   6.264   6.791
11479TIP3    H234379   2.910   6.193   6.870
11480TIP3   OH234380   1.093   3.176   4.252
11480TIP3    H134381   1.070   3.167   4.345
11480TIP3    H234382   1.122   3.267   4.244
11481TIP3   OH234383   4.316   2.117   3.200
11481TIP3    H134384   4.339   2.166   3.121
11481TIP3    H234385   4.231   2.078   3.180
11482TIP3   OH234386   0.715   6.861   1.109
11482TIP3    H134387   0.807   6.833   1.114
11482TIP3    H234388   0.719   6.950   1.074
11483TIP3   OH234389   3.140   2.908   4.135
11483TIP3    H134390   3.178   2.994   4.155
11483TIP3    H234391   3.186   2.848   4.193
11484TIP3   OH234392   4.489   0.697   1.798
11484TIP3    H134393   4.532   0.773   1.759
11484TIP3    H234394   4.401   0.727   1.820
11485TIP3   OH234395   8.198   1.644   4.877
11485TIP3    H134396   8.249   1.688   4.945
11485TIP3    H234397   8.263   1.622   4.810
11486TIP3   OH234398   8.233   1.698   6.794
11486TIP3    H134399   8.178   1.641   6.741
11486TIP3    H234400   8.265   1.643   6.864
11487TIP3   OH234401   0.526   0.089   6.181
11487TIP3    H134402   0.618   0.106   6.201
11487TIP3    H234403   0.500   0.161   6.124
11488TIP3   OH234404   6.276   6.249   0.135
11488TIP3    H134405   6.336   6.276   0.205
11488TIP3    H234406   6.189   6.269   0.170
11489TIP3   OH234407   2.548   7.423   4.515
11489TIP3    H134408   2.563   7.469   4.433
11489TIP3    H234409   2.587   7.479   4.582
11490TIP3   OH234410   6.935   5.336   3.374
11490TIP3    H134411   6.974   5.253   3.346
11490TIP3    H234412   7.010   5.393   3.393
11491TIP3   OH234413   5.811   4.173   5.591
11491TIP3    H134414   5.731   4.151   5.543
11491TIP3    H234415   5.836   4.092   5.635
11492TIP3   OH234416   0.085   2.755   4.137
11492TIP3    H134417   0.157   2.773   4.197
11492TIP3    H234418   0.007   2.750   4.192
11493TIP3   OH234419   7.200   5.252   6.544
11493TIP3    H134420   7.119   5.213   6.578
11493TIP3    H234421   7.179   5.345   6.533
11494TIP3   OH234422   3.288   2.019   5.406
11494TIP3    H134423   3.338   2.008   5.487
11494TIP3    H234424   3.210   2.067   5.433
11495TIP3   OH234425   6.315   3.759   0.976
11495TIP3    H134426   6.241   3.700   0.989
11495TIP3    H234427   6.276   3.840   0.945
11496TIP3   OH234428   3.592   0.531   5.110
11496TIP3    H134429   3.541   0.563   5.035
11496TIP3    H234430   3.534   0.544   5.186
11497TIP3   OH234431   3.584   2.942   2.204
11497TIP3    H134432   3.591   2.846   2.201
11497TIP3    H234433   3.490   2.959   2.205
11498TIP3   OH234434   7.425   2.582   1.503
11498TIP3    H134435   7.398   2.667   1.471
11498TIP3    H234436   7.423   2.525   1.426
11499TIP3   OH234437   4.997   2.768   6.656
11499TIP3    H134438   4.969   2.816   6.734
11499TIP3    H234439   4.944   2.804   6.585
11500TIP3   OH234440   0.270   1.313   6.143
11500TIP3    H134441   0.183   1.278   6.164
11500TIP3    H234442   0.288   1.281   6.054
11501TIP3   OH234443   3.384   5.737   5.088
11501TIP3    H134444   3.446   5.789   5.138
11501TIP3    H234445   3.435   5.703   5.014
11502TIP3   OH234446   2.939   3.940   5.353
11502TIP3    H134447   2.902   4.029   5.353
11502TIP3    H234448   2.916   3.905   5.439
11503TIP3   OH234449   0.876   3.436   5.443
11503TIP3    H134450   0.871   3.365   5.507
11503TIP3    H234451   0.796   3.426   5.392
11504TIP3   OH234452   0.520   0.223   3.453
11504TIP3    H134453   0.494   0.284   3.521
11504TIP3    H234454   0.584   0.271   3.401
11505TIP3   OH234455   4.660   5.674   2.694
11505TIP3    H134456   4.585   5.627   2.657
11505TIP3    H234457   4.731   5.659   2.632
11506TIP3   OH234458   6.386   2.437   5.827
11506TIP3    H134459   6.427   2.433   5.741
11506TIP3    H234460   6.292   2.432   5.810
11507TIP3   OH234461   5.620   0.352   2.572
11507TIP3    H134462   5.702   0.358   2.523
11507TIP3    H234463   5.570   0.285   2.527
11508TIP3   OH234464   0.878   4.436   0.825
11508TIP3    H134465   0.831   4.353   0.827
11508TIP3    H234466   0.929   4.439   0.905
11509TIP3   OH234467   0.671   7.873   6.618
11509TIP3    H134468   0.727   7.948   6.638
11509TIP3    H234469   0.605   7.907   6.558
11510TIP3   OH234470   1.611   3.521   6.172
11510TIP3    H134471   1.623   3.508   6.078
11510TIP3    H234472   1.551   3.452   6.199
11511TIP3   OH234473   1.362   2.030   3.841
11511TIP3    H134474   1.296   1.962   3.848
11511TIP3    H234475   1.442   1.983   3.818
11512TIP3   OH234476   7.495   0.138   3.087
11512TIP3    H134477   7.420   0.197   3.096
11512TIP3    H234478   7.456   0.051   3.077
11513TIP3   OH234479   2.983   5.573   6.148
11513TIP3    H134480   2.938   5.515   6.087
11513TIP3    H234481   3.066   5.594   6.105
11514TIP3   OH234482   2.006   5.455   2.008
11514TIP3    H134483   2.035   5.383   2.063
11514TIP3    H234484   1.959   5.412   1.936
11515TIP3   OH234485   6.744   3.879   3.160
11515TIP3    H134486   6.771   3.852   3.073
11515TIP3    H234487   6.823   3.870   3.214
11516TIP3   OH234488   4.072   1.186   3.234
11516TIP3    H134489   4.143   1.233   3.277
11516TIP3    H234490   4.022   1.146   3.306
11517TIP3   OH234491   2.488   7.802   5.936
11517TIP3    H134492   2.468   7.717   5.895
11517TIP3    H234493   2.408   7.824   5.984
11518TIP3   OH234494   6.276   2.571   6.196
11518TIP3    H134495   6.244   2.655   6.230
11518TIP3    H234496   6.303   2.591   6.106
11519TIP3   OH234497   4.728   6.019   3.316
11519TIP3    H134498   4.725   6.049   3.225
11519TIP3    H234499   4.808   6.058   3.351
11520TIP3   OH234500   6.978   6.076   4.750
11520TIP3    H134501   7.073   6.069   4.761
11520TIP3    H234502   6.943   5.998   4.792
11521TIP3   OH234503   7.070   0.720   1.238
11521TIP3    H134504   7.080   0.707   1.144
11521TIP3    H234505   6.981   0.754   1.249
11522TIP3   OH234506   7.767   2.124   2.545
11522TIP3    H134507   7.731   2.076   2.471
11522TIP3    H234508   7.854   2.086   2.558
11523TIP3   OH234509   2.419   1.474   0.966
11523TIP3    H134510   2.474   1.410   1.012
11523TIP3    H234511   2.479   1.522   0.910
11524TIP3   OH234512   4.839   5.982   3.678
11524TIP3    H134513   4.778   5.924   3.633
11524TIP3    H234514   4.817   5.973   3.771
11525TIP3   OH234515   7.220   3.509   3.480
11525TIP3    H134516   7.294   3.452   3.456
11525TIP3    H234517   7.202   3.488   3.572
11526TIP3   OH234518   4.429   5.932   4.599
11526TIP3    H134519   4.517   5.944   4.636
11526TIP3    H234520   4.414   6.012   4.549
11527TIP3   OH234521   1.179   1.036   4.533
11527TIP3    H134522   1.222   1.111   4.573
11527TIP3    H234523   1.205   0.961   4.586
11528TIP3   OH234524   5.121   4.585   6.160
11528TIP3    H134525   5.082   4.571   6.074
11528TIP3    H234526   5.088   4.512   6.213
11529TIP3   OH234527   0.820   6.025   5.098
11529TIP3    H134528   0.905   6.062   5.119
11529TIP3    H234529   0.813   6.033   5.003
11530TIP3   OH234530   6.509   1.401   2.807
11530TIP3    H134531   6.531   1.334   2.743
11530TIP3    H234532   6.539   1.483   2.768
11531TIP3   OH234533   5.146   3.439   2.574
11531TIP3    H134534   5.237   3.446   2.603
11531TIP3    H234535   5.108   3.524   2.596
11532TIP3   OH234536   2.004   6.644   4.577
11532TIP3    H134537   1.947   6.598   4.516
11532TIP3    H234538   1.986   6.737   4.561
11533TIP3   OH234539   3.420   1.218   1.761
11533TIP3    H134540   3.487   1.234   1.695
11533TIP3    H234541   3.396   1.126   1.750
11534TIP3   OH234542   5.876   6.651   5.890
11534TIP3    H134543   5.930   6.726   5.863
11534TIP3    H234544   5.792   6.665   5.845
11535TIP3   OH234545   5.520   1.059   3.120
11535TIP3    H134546   5.453   1.112   3.077
11535TIP3    H234547   5.473   1.011   3.188
11536TIP3   OH234548   7.005   5.451   5.563
11536TIP3    H134549   7.068   5.393   5.518
11536TIP3    H234550   7.056   5.528   5.586
11537TIP3   OH234551   4.091   3.910   0.156
11537TIP3    H134552   4.107   3.816   0.159
11537TIP3    H234553   4.088   3.932   0.063
11538TIP3   OH234554   7.905   5.248   4.390
11538TIP3    H134555   7.966   5.271   4.320
11538TIP3    H234556   7.876   5.332   4.425
11539TIP3   OH234557   2.769   5.239   1.774
11539TIP3    H134558   2.802   5.287   1.850
11539TIP3    H234559   2.694   5.190   1.808
11540TIP3   OH234560   7.490   5.572   6.648
11540TIP3    H134561   7.569   5.602   6.693
11540TIP3    H234562   7.519   5.551   6.559
11541TIP3   OH234563   6.613   3.225   2.648
11541TIP3    H134564   6.708   3.239   2.649
11541TIP3    H234565   6.597   3.165   2.721
11542TIP3   OH234566   7.818   0.932   6.757
11542TIP3    H134567   7.800   0.989   6.833
11542TIP3    H234568   7.870   0.860   6.793
11543TIP3   OH234569   7.969   1.639   3.646
11543TIP3    H134570   7.957   1.687   3.727
11543TIP3    H234571   7.904   1.676   3.586
11544TIP3   OH234572   6.158   5.136   1.792
11544TIP3    H134573   6.110   5.137   1.875
11544TIP3    H234574   6.090   5.146   1.726
11545TIP3   OH234575   2.341   5.442   6.760
11545TIP3    H134576   2.305   5.452   6.672
11545TIP3    H234577   2.419   5.499   6.761
11546TIP3   OH234578   1.807   6.740   1.871
11546TIP3    H134579   1.901   6.756   1.872
11546TIP3    H234580   1.798   6.647   1.891
11547TIP3   OH234581   2.461   3.448   2.526
11547TIP3    H134582   2.555   3.466   2.524
11547TIP3    H234583   2.451   3.380   2.593
11548TIP3   OH234584   7.842   2.571   6.222
11548TIP3    H134585   7.856   2.480   6.198
11548TIP3    H234586   7.869   2.576   6.314
11549TIP3   OH234587   5.581   7.235   3.901
11549TIP3    H134588   5.582   7.169   3.971
11549TIP3    H234589   5.673   7.251   3.882
11550TIP3   OH234590   3.598   2.635   0.608
11550TIP3    H134591   3.517   2.595   0.577
11550TIP3    H234592   3.633   2.572   0.671
11551TIP3   OH234593   6.272   5.395   6.508
11551TIP3    H134594   6.179   5.415   6.499
11551TIP3    H234595   6.276   5.299   6.506
11552TIP3   OH234596   6.759   4.266   5.777
11552TIP3    H134597   6.705   4.330   5.730
11552TIP3    H234598   6.786   4.310   5.857
11553TIP3   OH234599   3.828   3.275   6.528
11553TIP3    H134600   3.829   3.185   6.561
11553TIP3    H234601   3.900   3.277   6.465
11554TIP3   OH234602   1.669   4.537   5.213
11554TIP3    H134603   1.741   4.544   5.276
11554TIP3    H234604   1.638   4.627   5.201
11555TIP3   OH234605   1.413   2.501   5.831
11555TIP3    H134606   1.362   2.422   5.848
11555TIP3    H234607   1.351   2.562   5.791
11556TIP3   OH234608   4.719   5.948   4.698
11556TIP3    H134609   4.759   5.909   4.621
11556TIP3    H234610   4.771   5.916   4.771
11557TIP3   OH234611   1.245   7.503   0.588
11557TIP3    H134612   1.183   7.458   0.645
11557TIP3    H234613   1.190   7.557   0.531
11558TIP3   OH234614   4.066   5.743   4.910
11558TIP3    H134615   4.101   5.698   4.834
11558TIP3    H234616   4.095   5.691   4.985
11559TIP3   OH234617   1.444   7.080   3.744
11559TIP3    H134618   1.457   7.024   3.667
11559TIP3    H234619   1.350   7.075   3.762
11560TIP3   OH234620   3.935   2.992   6.150
11560TIP3    H134621   3.866   3.039   6.196
11560TIP3    H234622   3.991   2.957   6.219
11561TIP3   OH234623   7.340   0.868   3.602
11561TIP3    H134624   7.255   0.902   3.627
11561TIP3    H234625   7.336   0.775   3.623
11562TIP3   OH234626   7.438   1.522   6.390
11562TIP3    H134627   7.388   1.583   6.336
11562TIP3    H234628   7.447   1.566   6.475
11563TIP3   OH234629   3.724   0.089   5.814
11563TIP3    H134630   3.767   0.124   5.737
11563TIP3    H234631   3.768   0.005   5.831
11564TIP3   OH234632   0.453   6.498   3.430
11564TIP3    H134633   0.372   6.541   3.457
11564TIP3    H234634   0.451   6.413   3.475
11565TIP3   OH234635   1.908   2.173   4.058
11565TIP3    H134636   1.815   2.198   4.064
11565TIP3    H234637   1.934   2.157   4.149
11566TIP3   OH234638   6.146   6.234   1.172
11566TIP3    H134639   6.181   6.263   1.256
11566TIP3    H234640   6.082   6.166   1.196
11567TIP3   OH234641   4.443   2.749   1.623
11567TIP3    H134642   4.520   2.798   1.652
11567TIP3    H234643   4.370   2.810   1.635
11568TIP3   OH234644   3.203   4.442   5.300
11568TIP3    H134645   3.170   4.430   5.389
11568TIP3    H234646   3.192   4.356   5.259
11569TIP3   OH234647   4.740   1.594   5.278
11569TIP3    H134648   4.699   1.512   5.307
11569TIP3    H234649   4.797   1.569   5.206
11570TIP3   OH234650   2.001   0.811   3.752
11570TIP3    H134651   2.022   0.740   3.813
11570TIP3    H234652   1.926   0.855   3.790
11571TIP3   OH234653   3.952   1.602   2.720
11571TIP3    H134654   3.872   1.553   2.740
11571TIP3    H234655   3.947   1.679   2.777
11572TIP3   OH234656   7.338   2.586   2.571
11572TIP3    H134657   7.425   2.589   2.611
11572TIP3    H234658   7.285   2.536   2.633
11573TIP3   OH234659   0.624   1.123   5.307
11573TIP3    H134660   0.635   1.129   5.212
11573TIP3    H234661   0.629   1.030   5.327
11574TIP3   OH234662   0.530   2.660   0.086
11574TIP3    H134663   0.580   2.718   0.028
11574TIP3    H234664   0.580   2.659   0.168
11575TIP3   OH234665   4.594   0.461   1.169
11575TIP3    H134666   4.543   0.520   1.225
11575TIP3    H234667   4.549   0.464   1.084
11576TIP3   OH234668   1.515   3.990   0.806
11576TIP3    H134669   1.441   4.040   0.840
11576TIP3    H234670   1.572   3.978   0.882
11577TIP3   OH234671   7.101   3.766   3.836
11577TIP3    H134672   7.179   3.781   3.889
11577TIP3    H234673   7.134   3.753   3.747
11578TIP3   OH234674   8.077   2.841   4.180
11578TIP3    H134675   8.120   2.821   4.097
11578TIP3    H234676   7.987   2.862   4.155
11579TIP3   OH234677   0.760   6.708   1.840
11579TIP3    H134678   0.690   6.744   1.895
11579TIP3    H234679   0.823   6.672   1.902
11580TIP3   OH234680   5.903   5.059   0.434
11580TIP3    H134681   5.895   5.154   0.442
11580TIP3    H234682   5.996   5.041   0.447
11581TIP3   OH234683   1.742   7.326   4.983
11581TIP3    H134684   1.707   7.246   4.943
11581TIP3    H234685   1.762   7.383   4.909
11582TIP3   OH234686   8.073   5.134   1.842
11582TIP3    H134687   7.990   5.102   1.877
11582TIP3    H234688   8.075   5.101   1.752
11583TIP3   OH234689   2.913   7.424   1.359
11583TIP3    H134690   2.851   7.483   1.317
11583TIP3    H234691   2.997   7.444   1.318
11584TIP3   OH234692   1.719   6.530   1.595
11584TIP3    H134693   1.807   6.509   1.626
11584TIP3    H234694   1.666   6.537   1.674
11585TIP3   OH234695   1.900   1.060   5.345
11585TIP3    H134696   1.917   1.069   5.251
11585TIP3    H234697   1.972   1.006   5.378
11586TIP3   OH234698   0.973   3.792   4.265
11586TIP3    H134699   0.924   3.868   4.234
11586TIP3    H234700   0.911   3.719   4.260
11587TIP3   OH234701   0.534   6.443   4.501
11587TIP3    H134702   0.616   6.426   4.548
11587TIP3    H234703   0.471   6.462   4.570
11588TIP3   OH234704   2.598   6.946   4.465
11588TIP3    H134705   2.532   7.015   4.467
11588TIP3    H234706   2.671   6.981   4.515
11589TIP3   OH234707   3.505   3.983   5.966
11589TIP3    H134708   3.442   4.037   5.917
11589TIP3    H234709   3.539   3.921   5.901
11590TIP3   OH234710   1.953   3.015   5.063
11590TIP3    H134711   1.950   2.985   4.972
11590TIP3    H234712   2.037   2.985   5.095
11591TIP3   OH234713   0.220   6.446   3.235
11591TIP3    H134714   0.276   6.390   3.288
11591TIP3    H234715   0.131   6.425   3.264
11592TIP3   OH234716   1.657   1.042   5.477
11592TIP3    H134717   1.738   1.031   5.428
11592TIP3    H234718   1.592   0.992   5.427
11593TIP3   OH234719   1.662   3.205   4.202
11593TIP3    H134720   1.702   3.119   4.190
11593TIP3    H234721   1.646   3.211   4.297
11594TIP3   OH234722   4.181   5.585   2.873
11594TIP3    H134723   4.154   5.586   2.781
11594TIP3    H234724   4.176   5.676   2.900
11595TIP3   OH234725   0.367   2.666   3.343
11595TIP3    H134726   0.337   2.743   3.390
11595TIP3    H234727   0.297   2.647   3.280
11596TIP3   OH234728   4.355   4.755   6.649
11596TIP3    H134729   4.358   4.823   6.582
11596TIP3    H234730   4.427   4.695   6.626
11597TIP3   OH234731   6.638   0.171   6.709
11597TIP3    H134732   6.600   0.129   6.787
11597TIP3    H234733   6.612   0.263   6.717
11598TIP3   OH234734   7.264   5.190   5.063
11598TIP3    H134735   7.204   5.124   5.028
11598TIP3    H234736   7.351   5.158   5.040
11599TIP3   OH234737   5.707   5.554   6.186
11599TIP3    H134738   5.753   5.580   6.266
11599TIP3    H234739   5.774   5.552   6.118
11600TIP3   OH234740   5.213   5.410   1.165
11600TIP3    H134741   5.230   5.496   1.205
11600TIP3    H234742   5.254   5.415   1.079
11601TIP3   OH234743   0.658   2.136   1.915
11601TIP3    H134744   0.568   2.117   1.942
11601TIP3    H234745   0.697   2.182   1.989
11602TIP3   OH234746   6.576   2.837   4.672
11602TIP3    H134747   6.599   2.745   4.653
11602TIP3    H234748   6.534   2.834   4.758
11603TIP3   OH234749   1.511   4.206   3.664
11603TIP3    H134750   1.436   4.155   3.694
11603TIP3    H234751   1.553   4.150   3.598
11604TIP3   OH234752   0.558   6.247   6.072
11604TIP3    H134753   0.628   6.182   6.072
11604TIP3    H234754   0.560   6.284   5.983
11605TIP3   OH234755   0.597   6.551   5.459
11605TIP3    H134756   0.537   6.476   5.457
11605TIP3    H234757   0.662   6.527   5.526
11606TIP3   OH234758   0.909   3.157   0.345
11606TIP3    H134759   0.967   3.160   0.421
11606TIP3    H234760   0.839   3.219   0.364
11607TIP3   OH234761   5.733   3.559   2.979
11607TIP3    H134762   5.811   3.523   3.022
11607TIP3    H234763   5.753   3.556   2.886
11608TIP3   OH234764   6.716   5.785   0.897
11608TIP3    H134765   6.778   5.726   0.853
11608TIP3    H234766   6.683   5.733   0.971
11609TIP3   OH234767   5.276   4.275   3.868
11609TIP3    H134768   5.251   4.263   3.776
11609TIP3    H234769   5.346   4.341   3.866
11610TIP3   OH234770   1.488   4.802   0.989
11610TIP3    H134771   1.413   4.760   0.948
11610TIP3    H234772   1.563   4.776   0.935
11611TIP3   OH234773   7.393   4.210   6.027
11611TIP3    H134774   7.438   4.172   5.952
11611TIP3    H234775   7.300   4.198   6.008
11612TIP3   OH234776   5.222   3.909   1.959
11612TIP3    H134777   5.296   3.968   1.944
11612TIP3    H234778   5.220   3.852   1.882
11613TIP3   OH234779   7.552   2.120   2.083
11613TIP3    H134780   7.540   2.032   2.119
11613TIP3    H234781   7.497   2.122   2.005
11614TIP3   OH234782   2.234   7.575   4.721
11614TIP3    H134783   2.141   7.591   4.731
11614TIP3    H234784   2.260   7.527   4.799
11615TIP3   OH234785   0.473   6.962   5.167
11615TIP3    H134786   0.474   7.004   5.253
11615TIP3    H234787   0.419   7.019   5.113
11616TIP3   OH234788   4.383   0.846   5.728
11616TIP3    H134789   4.414   0.912   5.789
11616TIP3    H234790   4.288   0.845   5.740
11617TIP3   OH234791   7.618   6.873   4.907
11617TIP3    H134792   7.604   6.937   4.976
11617TIP3    H234793   7.710   6.848   4.915
11618TIP3   OH234794   3.129   1.954   1.387
11618TIP3    H134795   3.189   1.898   1.338
11618TIP3    H234796   3.085   2.005   1.319
11619TIP3   OH234797   3.897   3.740   4.702
11619TIP3    H134798   3.852   3.736   4.618
11619TIP3    H234799   3.827   3.760   4.765
11620TIP3   OH234800   7.228   6.230   0.678
11620TIP3    H134801   7.138   6.207   0.655
11620TIP3    H234802   7.231   6.325   0.674
11621TIP3   OH234803   5.799   5.376   3.789
11621TIP3    H134804   5.834   5.453   3.835
11621TIP3    H234805   5.818   5.303   3.848
11622TIP3   OH234806   0.473   2.061   0.205
11622TIP3    H134807   0.534   2.109   0.261
11622TIP3    H234808   0.494   1.968   0.220
11623TIP3   OH234809   2.192   7.321   4.457
11623TIP3    H134810   2.259   7.385   4.481
11623TIP3    H234811   2.109   7.370   4.465
11624TIP3   OH234812   2.561   1.545   4.357
11624TIP3    H134813   2.520   1.548   4.443
11624TIP3    H234814   2.646   1.505   4.372
11625TIP3   OH234815   1.177   1.601   0.518
11625TIP3    H134816   1.125   1.653   0.579
11625TIP3    H234817   1.114   1.574   0.450
11626TIP3   OH234818   1.185   6.813   2.395
11626TIP3    H134819   1.168   6.720   2.406
11626TIP3    H234820   1.281   6.820   2.390
11627TIP3   OH234821   2.819   7.601   5.157
11627TIP3    H134822   2.729   7.621   5.133
11627TIP3    H234823   2.871   7.667   5.112
11628TIP3   OH234824   7.868   1.225   2.941
11628TIP3    H134825   7.871   1.138   2.900
11628TIP3    H234826   7.922   1.280   2.885
11629TIP3   OH234827   4.574   4.364   5.592
11629TIP3    H134828   4.663   4.388   5.564
11629TIP3    H234829   4.517   4.398   5.523
11630TIP3   OH234830   6.028   1.585   4.122
11630TIP3    H134831   6.051   1.647   4.052
11630TIP3    H234832   6.060   1.628   4.202
11631TIP3   OH234833   6.341   1.452   0.617
11631TIP3    H134834   6.391   1.371   0.616
11631TIP3    H234835   6.374   1.501   0.541
11632TIP3   OH234836   4.666   3.839   2.492
11632TIP3    H134837   4.746   3.849   2.441
11632TIP3    H234838   4.673   3.752   2.532
11633TIP3   OH234839   3.257   1.732   0.502
11633TIP3    H134840   3.309   1.799   0.547
11633TIP3    H234841   3.167   1.765   0.505
11634TIP3   OH234842   4.874   2.860   4.502
11634TIP3    H134843   4.835   2.870   4.589
11634TIP3    H234844   4.937   2.931   4.495
11635TIP3   OH234845   2.186   5.552   5.222
11635TIP3    H134846   2.206   5.532   5.130
11635TIP3    H234847   2.210   5.644   5.233
11636TIP3   OH234848   8.264   5.766   0.979
11636TIP3    H134849   8.189   5.818   1.007
11636TIP3    H234850   8.264   5.690   1.036
11637TIP3   OH234851   1.601   5.738   5.473
11637TIP3    H134852   1.583   5.815   5.420
11637TIP3    H234853   1.617   5.668   5.409
11638TIP3   OH234854   5.924   2.321   3.480
11638TIP3    H134855   5.862   2.381   3.520
11638TIP3    H234856   5.870   2.262   3.427
11639TIP3   OH234857   2.163   2.196   2.954
11639TIP3    H134858   2.190   2.287   2.966
11639TIP3    H234859   2.106   2.178   3.029
11640TIP3   OH234860   1.919   5.691   5.426
11640TIP3    H134861   1.918   5.762   5.361
11640TIP3    H234862   1.908   5.736   5.510
11641TIP3   OH234863   0.995   7.183   5.997
11641TIP3    H134864   0.950   7.203   6.079
11641TIP3    H234865   0.978   7.090   5.983
11642TIP3   OH234866   4.597   3.462   3.309
11642TIP3    H134867   4.674   3.513   3.337
11642TIP3    H234868   4.523   3.520   3.324
11643TIP3   OH234869   3.862   6.734   1.274
11643TIP3    H134870   3.809   6.689   1.340
11643TIP3    H234871   3.952   6.711   1.296
11644TIP3   OH234872   8.064   3.257   2.836
11644TIP3    H134873   8.059   3.182   2.776
11644TIP3    H234874   7.999   3.319   2.802
11645TIP3   OH234875   5.325   5.739   0.737
11645TIP3    H134876   5.388   5.668   0.721
11645TIP3    H234877   5.378   5.818   0.740
11646TIP3   OH234878   3.262   5.336   4.308
11646TIP3    H134879   3.213   5.335   4.390
11646TIP3    H234880   3.195   5.349   4.240
11647TIP3   OH234881   0.667   6.171   3.053
11647TIP3    H134882   0.607   6.210   2.989
11647TIP3    H234883   0.706   6.097   3.007
11648TIP3   OH234884   5.911   7.345   6.602
11648TIP3    H134885   5.858   7.273   6.570
11648TIP3    H234886   5.929   7.323   6.694
11649TIP3   OH234887   5.608   4.367   2.437
11649TIP3    H134888   5.590   4.297   2.500
11649TIP3    H234889   5.608   4.323   2.352
11650TIP3   OH234890   6.698   0.807   2.611
11650TIP3    H134891   6.701   0.745   2.538
11650TIP3    H234892   6.778   0.790   2.660
11651TIP3   OH234893   2.038   6.187   0.128
11651TIP3    H134894   2.033   6.098   0.095
11651TIP3    H234895   2.096   6.181   0.204
11652TIP3   OH234896   2.067   2.464   0.998
11652TIP3    H134897   2.120   2.395   1.037
11652TIP3    H234898   1.980   2.425   0.987
11653TIP3   OH234899   5.733   6.454   2.310
11653TIP3    H134900   5.675   6.451   2.234
11653TIP3    H234901   5.679   6.488   2.381
11654TIP3   OH234902   1.589   6.527   4.100
11654TIP3    H134903   1.511   6.474   4.117
11654TIP3    H234904   1.590   6.538   4.005
11655TIP3   OH234905   6.892   5.919   1.450
11655TIP3    H134906   6.829   5.899   1.519
11655TIP3    H234907   6.844   5.975   1.389
11656TIP3   OH234908   1.763   0.726   4.427
11656TIP3    H134909   1.808   0.695   4.506
11656TIP3    H234910   1.776   0.656   4.363
11657TIP3   OH234911   7.873   5.059   6.632
11657TIP3    H134912   7.798   5.003   6.652
11657TIP3    H234913   7.919   5.068   6.716
11658TIP3   OH234914   7.471   1.205   6.693
11658TIP3    H134915   7.475   1.297   6.668
11658TIP3    H234916   7.421   1.204   6.774
11659TIP3   OH234917   3.452   5.379   5.178
11659TIP3    H134918   3.464   5.472   5.160
11659TIP3    H234919   3.464   5.337   5.092
11660TIP3   OH234920   4.164   3.592   2.894
11660TIP3    H134921   4.233   3.527   2.908
11660TIP3    H234922   4.209   3.676   2.901
11661TIP3   OH234923   5.177   2.494   6.498
11661TIP3    H134924   5.228   2.475   6.576
11661TIP3    H234925   5.242   2.512   6.430
11662TIP3   OH234926   0.520   2.915   1.727
11662TIP3    H134927   0.483   2.935   1.640
11662TIP3    H234928   0.593   2.856   1.709
11663TIP3   OH234929   3.968   6.691   5.374
11663TIP3    H134930   4.010   6.680   5.459
11663TIP3    H234931   3.881   6.723   5.394
11664TIP3   OH234932   3.183   2.348   2.552
11664TIP3    H134933   3.173   2.443   2.539
11664TIP3    H234934   3.229   2.340   2.636
11665TIP3   OH234935   2.927   0.625   1.169
11665TIP3    H134936   2.917   0.670   1.086
11665TIP3    H234937   2.900   0.689   1.235
11666TIP3   OH234938   6.038   3.407   6.299
11666TIP3    H134939   6.079   3.406   6.213
11666TIP3    H234940   6.110   3.427   6.359
11667TIP3   OH234941   2.059   2.051   1.268
11667TIP3    H134942   2.051   2.108   1.344
11667TIP3    H234943   2.021   1.968   1.297
11668TIP3   OH234944   7.366   2.004   5.729
11668TIP3    H134945   7.272   2.019   5.729
11668TIP3    H234946   7.385   1.970   5.641
11669TIP3   OH234947   6.144   1.844   5.805
11669TIP3    H134948   6.143   1.935   5.777
11669TIP3    H234949   6.222   1.837   5.861
11670TIP3   OH234950   0.268   4.459   2.735
11670TIP3    H134951   0.181   4.423   2.752
11670TIP3    H234952   0.296   4.416   2.655
11671TIP3   OH234953   6.829   5.313   1.629
11671TIP3    H134954   6.746   5.270   1.650
11671TIP3    H234955   6.863   5.264   1.553
11672TIP3   OH234956   1.428   6.476   1.275
11672TIP3    H134957   1.407   6.499   1.366
11672TIP3    H234958   1.436   6.560   1.231
11673TIP3   OH234959   6.580   4.443   6.755
11673TIP3    H134960   6.521   4.369   6.749
11673TIP3    H234961   6.656   4.410   6.803
11674TIP3   OH234962   7.685   4.332   2.837
11674TIP3    H134963   7.702   4.388   2.912
11674TIP3    H234964   7.652   4.250   2.874
11675TIP3   OH234965   4.483   5.762   3.098
11675TIP3    H134966   4.538   5.734   3.171
11675TIP3    H234967   4.409   5.807   3.138
11676TIP3   OH234968   6.932   7.529   1.099
11676TIP3    H134969   6.907   7.524   1.006
11676TIP3    H234970   7.005   7.468   1.108
11677TIP3   OH234971   2.172   4.707   6.768
11677TIP3    H134972   2.230   4.634   6.791
11677TIP3    H234973   2.177   4.712   6.672
11678TIP3   OH234974   8.246   1.940   4.166
11678TIP3    H134975   8.284   1.900   4.244
11678TIP3    H234976   8.228   2.030   4.192
11679TIP3   OH234977   5.172   0.943   0.011
11679TIP3    H134978   5.123   0.893   0.076
11679TIP3    H234979   5.223   0.877  -0.036
11680TIP3   OH234980   5.990   6.991   4.628
11680TIP3    H134981   5.995   6.936   4.550
11680TIP3    H234982   6.051   6.951   4.689
11681TIP3   OH234983   6.527   7.514   2.345
11681TIP3    H134984   6.439   7.551   2.334
11681TIP3    H234985   6.579   7.586   2.381
11682TIP3   OH234986   3.770   1.351   1.271
11682TIP3    H134987   3.701   1.417   1.276
11682TIP3    H234988   3.740   1.281   1.329
11683TIP3   OH234989   0.382   2.246   3.390
11683TIP3    H134990   0.381   2.180   3.459
11683TIP3    H234991   0.360   2.198   3.310
11684TIP3   OH234992   6.798   1.167   4.681
11684TIP3    H134993   6.797   1.073   4.662
11684TIP3    H234994   6.779   1.173   4.775
11685TIP3   OH234995   5.732   7.801   1.389
11685TIP3    H134996   5.807   7.835   1.340
11685TIP3    H234997   5.700   7.729   1.335
11686TIP3   OH234998   5.776   2.543   0.407
11686TIP3    H134999   5.840   2.602   0.447
11686TIP3    H235000   5.822   2.505   0.332
11687TIP3   OH235001   5.360   0.597   2.456
11687TIP3    H135002   5.348   0.643   2.373
11687TIP3    H235003   5.279   0.614   2.504
11688TIP3   OH235004   6.392   2.422   3.301
11688TIP3    H135005   6.379   2.487   3.233
11688TIP3    H235006   6.315   2.364   3.294
11689TIP3   OH235007   7.591   4.323   2.235
11689TIP3    H135008   7.643   4.299   2.312
11689TIP3    H235009   7.537   4.396   2.264
11690TIP3   OH235010   0.061   1.083   5.728
11690TIP3    H135011  -0.008   1.035   5.682
11690TIP3    H235012   0.125   1.017   5.753
11691TIP3   OH235013   1.353   2.878   2.641
11691TIP3    H135014   1.280   2.934   2.615
11691TIP3    H235015   1.331   2.849   2.729
11692TIP3   OH235016   6.643   7.245   3.412
11692TIP3    H135017   6.573   7.204   3.463
11692TIP3    H235018   6.628   7.339   3.422
11693TIP3   OH235019   7.761   3.138   6.091
11693TIP3    H135020   7.741   3.230   6.108
11693TIP3    H235021   7.719   3.120   6.007
11694TIP3   OH235022   1.839   4.328   3.581
11694TIP3    H135023   1.889   4.374   3.649
11694TIP3    H235024   1.853   4.235   3.599
11695TIP3   OH235025   7.350   6.066   4.990
11695TIP3    H135026   7.323   6.142   5.043
11695TIP3    H235027   7.314   6.084   4.903
11696TIP3   OH235028   3.404   0.601   1.727
11696TIP3    H135029   3.409   0.655   1.648
11696TIP3    H235030   3.313   0.571   1.730
11697TIP3   OH235031   4.302   0.069   2.158
11697TIP3    H135032   4.361   0.014   2.106
11697TIP3    H235033   4.357   0.143   2.187
11698TIP3   OH235034   7.192   3.293   4.702
11698TIP3    H135035   7.165   3.256   4.617
11698TIP3    H235036   7.287   3.288   4.701
11699TIP3   OH235037   2.309   6.551   4.103
11699TIP3    H135038   2.284   6.584   4.016
11699TIP3    H235039   2.402   6.574   4.111
11700TIP3   OH235040   2.401   2.541   6.293
11700TIP3    H135041   2.407   2.637   6.285
11700TIP3    H235042   2.316   2.520   6.256
11701TIP3   OH235043   2.372   0.085   2.892
11701TIP3    H135044   2.300   0.069   2.831
11701TIP3    H235045   2.368   0.179   2.909
11702TIP3   OH235046   2.425   4.965   2.065
11702TIP3    H135047   2.477   4.913   2.002
11702TIP3    H235048   2.358   4.905   2.096
11703TIP3   OH235049   5.147   2.592   0.442
11703TIP3    H135050   5.095   2.533   0.496
11703TIP3    H235051   5.235   2.588   0.480
11704TIP3   OH235052   7.979   4.270   0.279
11704TIP3    H135053   7.934   4.266   0.363
11704TIP3    H235054   8.024   4.355   0.281
11705TIP3   OH235055   5.509   2.093   0.073
11705TIP3    H135056   5.510   2.180   0.033
11705TIP3    H235057   5.429   2.052   0.039
11706TIP3   OH235058   0.235   7.688   1.347
11706TIP3    H135059   0.235   7.768   1.295
11706TIP3    H235060   0.311   7.639   1.316
11707TIP3   OH235061   4.630   3.887   0.288
11707TIP3    H135062   4.589   3.826   0.349
11707TIP3    H235063   4.615   3.973   0.326
11708TIP3   OH235064   4.932   6.723   6.441
11708TIP3    H135065   4.967   6.739   6.353
11708TIP3    H235066   4.840   6.702   6.426
11709TIP3   OH235067   1.654   2.786   6.333
11709TIP3    H135068   1.678   2.869   6.292
11709TIP3    H235069   1.695   2.720   6.277
11710TIP3   OH235070   6.144   7.446   0.327
11710TIP3    H135071   6.096   7.475   0.404
11710TIP3    H235072   6.231   7.425   0.360
11711TIP3   OH235073   8.338   3.455   6.223
11711TIP3    H135074   8.266   3.446   6.287
11711TIP3    H235075   8.351   3.550   6.215
11712TIP3   OH235076   4.533   3.032   0.277
11712TIP3    H135077   4.548   3.108   0.333
11712TIP3    H235078   4.438   3.024   0.272
11713TIP3   OH235079   2.305   1.198   6.151
11713TIP3    H135080   2.248   1.217   6.077
11713TIP3    H235081   2.259   1.234   6.227
11714TIP3   OH235082   6.600   0.324   0.378
11714TIP3    H135083   6.641   0.239   0.365
11714TIP3    H235084   6.646   0.362   0.453
11715TIP3   OH235085   3.048   5.383   5.920
11715TIP3    H135086   3.080   5.330   5.993
11715TIP3    H235087   2.977   5.332   5.882
11716TIP3   OH235088   0.035   0.626   1.988
11716TIP3    H135089   0.055   0.533   2.000
11716TIP3    H235090  -0.031   0.627   1.918
11717TIP3   OH235091   2.026   3.574   4.651
11717TIP3    H135092   1.953   3.530   4.694
11717TIP3    H235093   2.011   3.667   4.665
11718TIP3   OH235094   7.481   7.585   0.265
11718TIP3    H135095   7.531   7.589   0.347
11718TIP3    H235096   7.498   7.498   0.230
11719TIP3   OH235097   5.304   0.956   1.770
11719TIP3    H135098   5.230   0.920   1.818
11719TIP3    H235099   5.325   1.038   1.816
11720TIP3   OH235100   1.110   3.975   4.056
11720TIP3    H135101   1.197   3.959   4.091
11720TIP3    H235102   1.057   3.999   4.132
11721TIP3   OH235103   1.530   2.750   5.846
11721TIP3    H135104   1.556   2.841   5.857
11721TIP3    H235105   1.434   2.753   5.845
11722TIP3   OH235106   8.091   6.280   6.362
11722TIP3    H135107   8.092   6.250   6.271
11722TIP3    H235108   8.153   6.354   6.363
11723TIP3   OH235109   0.749   1.966   0.054
11723TIP3    H135110   0.832   1.925   0.078
11723TIP3    H235111   0.757   1.987  -0.039
11724TIP3   OH235112   4.693   4.823   4.853
11724TIP3    H135113   4.623   4.802   4.915
11724TIP3    H235114   4.690   4.752   4.789
11725TIP3   OH235115   3.667   7.488   5.746
11725TIP3    H135116   3.742   7.428   5.755
11725TIP3    H235117   3.634   7.472   5.658
11726TIP3   OH235118   6.191   0.385   6.300
11726TIP3    H135119   6.114   0.436   6.323
11726TIP3    H235120   6.265   0.442   6.321
11727TIP3   OH235121   2.281   6.622   5.489
11727TIP3    H135122   2.346   6.622   5.560
11727TIP3    H235123   2.309   6.693   5.432
11728TIP3   OH235124   3.142   5.100   5.848
11728TIP3    H135125   3.051   5.099   5.821
11728TIP3    H235126   3.176   5.014   5.822
11729TIP3   OH235127   6.348   2.911   1.553
11729TIP3    H135128   6.385   2.938   1.637
11729TIP3    H235129   6.262   2.955   1.549
11730TIP3   OH235130   7.125   5.190   0.244
11730TIP3    H135131   7.050   5.149   0.286
11730TIP3    H235132   7.102   5.194   0.151
11731TIP3   OH235133   6.745   6.508   2.409
11731TIP3    H135134   6.717   6.456   2.334
11731TIP3    H235135   6.727   6.599   2.383
11732TIP3   OH235136   1.667   5.195   3.640
11732TIP3    H135137   1.586   5.197   3.589
11732TIP3    H235138   1.642   5.152   3.722
11733TIP3   OH235139   0.377   0.406   0.625
11733TIP3    H135140   0.356   0.472   0.691
11733TIP3    H235141   0.457   0.364   0.658
11734TIP3   OH235142   5.747   4.468   5.205
11734TIP3    H135143   5.779   4.504   5.288
11734TIP3    H235144   5.658   4.439   5.224
11735TIP3   OH235145   3.367   7.234   0.860
11735TIP3    H135146   3.415   7.158   0.827
11735TIP3    H235147   3.275   7.207   0.859
11736TIP3   OH235148   7.623   6.239   5.031
11736TIP3    H135149   7.629   6.286   5.115
11736TIP3    H235150   7.566   6.293   4.977
11737TIP3   OH235151   0.239   0.271   1.547
11737TIP3    H135152   0.166   0.211   1.562
11737TIP3    H235153   0.284   0.235   1.470
11738TIP3   OH235154   4.250   3.169   4.657
11738TIP3    H135155   4.320   3.223   4.695
11738TIP3    H235156   4.282   3.146   4.570
11739TIP3   OH235157   3.726   4.380   5.920
11739TIP3    H135158   3.742   4.286   5.919
11739TIP3    H235159   3.688   4.397   6.007
11740TIP3   OH235160   2.429   2.996   0.023
11740TIP3    H135161   2.346   2.947   0.024
11740TIP3    H235162   2.486   2.944  -0.035
11741TIP3   OH235163   5.035   5.485   1.501
11741TIP3    H135164   5.094   5.518   1.568
11741TIP3    H235165   4.984   5.416   1.544
11742TIP3   OH235166   7.252   1.264   4.516
11742TIP3    H135167   7.335   1.257   4.563
11742TIP3    H235168   7.236   1.358   4.509
11743TIP3   OH235169   5.726   1.754   6.513
11743TIP3    H135170   5.821   1.752   6.526
11743TIP3    H235171   5.695   1.674   6.556
11744TIP3   OH235172   1.209   7.032   5.833
11744TIP3    H135173   1.182   7.123   5.825
11744TIP3    H235174   1.240   7.024   5.923
11745TIP3   OH235175   6.683   4.169   1.071
11745TIP3    H135176   6.690   4.226   1.147
11745TIP3    H235177   6.598   4.127   1.079
11746TIP3   OH235178   3.422   6.365   3.446
11746TIP3    H135179   3.437   6.396   3.357
11746TIP3    H235180   3.441   6.271   3.442
11747TIP3   OH235181   5.295   2.322   1.309
11747TIP3    H135182   5.353   2.301   1.236
11747TIP3    H235183   5.342   2.293   1.387
11748TIP3   OH235184   4.807   6.382   6.640
11748TIP3    H135185   4.888   6.330   6.634
11748TIP3    H235186   4.738   6.322   6.612
11749TIP3   OH235187   2.935   6.369   1.958
11749TIP3    H135188   2.973   6.335   1.877
11749TIP3    H235189   2.979   6.320   2.027
11750TIP3   OH235190   6.566   5.315   1.328
11750TIP3    H135191   6.569   5.396   1.380
11750TIP3    H235192   6.621   5.334   1.252
11751TIP3   OH235193   7.394   3.527   1.374
11751TIP3    H135194   7.394   3.593   1.444
11751TIP3    H235195   7.396   3.578   1.293
11752TIP3   OH235196   0.865   5.983   5.802
11752TIP3    H135197   0.790   5.948   5.755
11752TIP3    H235198   0.832   6.001   5.890
11753TIP3   OH235199   3.013   7.780   6.666
11753TIP3    H135200   3.064   7.736   6.599
11753TIP3    H235201   2.937   7.724   6.679
11754TIP3   OH235202   5.659   5.370   2.558
11754TIP3    H135203   5.750   5.400   2.560
11754TIP3    H235204   5.655   5.300   2.624
11755TIP3   OH235205   0.990   2.285   5.452
11755TIP3    H135206   1.013   2.353   5.389
11755TIP3    H235207   1.073   2.257   5.489
11756TIP3   OH235208   2.855   4.713   2.870
11756TIP3    H135209   2.789   4.778   2.846
11756TIP3    H235210   2.827   4.633   2.827
11757TIP3   OH235211   1.347   4.678   2.380
11757TIP3    H135212   1.427   4.677   2.327
11757TIP3    H235213   1.377   4.695   2.469
11758TIP3   OH235214   6.863   1.193   6.403
11758TIP3    H135215   6.920   1.117   6.405
11758TIP3    H235216   6.914   1.261   6.359
11759TIP3   OH235217   7.293   5.760   2.633
11759TIP3    H135218   7.369   5.709   2.604
11759TIP3    H235219   7.225   5.695   2.648
11760TIP3   OH235220   4.696   0.150   4.297
11760TIP3    H135221   4.657   0.075   4.343
11760TIP3    H235222   4.642   0.161   4.219
11761TIP3   OH235223   6.893   5.484   3.124
11761TIP3    H135224   6.906   5.574   3.154
11761TIP3    H235225   6.888   5.432   3.204
11762TIP3   OH235226   2.326   4.112   4.699
11762TIP3    H135227   2.376   4.192   4.711
11762TIP3    H235228   2.321   4.073   4.786
11763TIP3   OH235229   5.826   0.002   6.271
11763TIP3    H135230   5.797   0.076   6.324
11763TIP3    H235231   5.921  -0.002   6.286
11764TIP3   OH235232   5.382   0.687   5.010
11764TIP3    H135233   5.409   0.638   5.087
11764TIP3    H235234   5.455   0.747   4.993
11765TIP3   OH235235   7.899   6.168   0.494
11765TIP3    H135236   7.954   6.093   0.472
11765TIP3    H235237   7.841   6.179   0.419
11766TIP3   OH235238   1.713   2.307   2.292
11766TIP3    H135239   1.630   2.270   2.261
11766TIP3    H235240   1.739   2.368   2.223
11767TIP3   OH235241   6.300   6.808   5.619
11767TIP3    H135242   6.367   6.832   5.555
11767TIP3    H235243   6.271   6.720   5.592
11768TIP3   OH235244   6.719   3.181   4.598
11768TIP3    H135245   6.751   3.232   4.673
11768TIP3    H235246   6.734   3.237   4.523
11769TIP3   OH235247   0.438   7.479   6.549
11769TIP3    H135248   0.524   7.515   6.531
11769TIP3    H235249   0.455   7.395   6.592
11770TIP3   OH235250   7.315   5.907   2.172
11770TIP3    H135251   7.360   5.975   2.222
11770TIP3    H235252   7.386   5.849   2.143
11771TIP3   OH235253   1.560   4.529   1.103
11771TIP3    H135254   1.501   4.561   1.035
11771TIP3    H235255   1.640   4.506   1.056
11772TIP3   OH235256   4.444   1.221   1.190
11772TIP3    H135257   4.384   1.167   1.138
11772TIP3    H235258   4.527   1.217   1.142
11773TIP3   OH235259   4.907   1.764   1.993
11773TIP3    H135260   4.846   1.691   2.005
11773TIP3    H235261   4.861   1.841   2.026
11774TIP3   OH235262   2.104   4.006   5.171
11774TIP3    H135263   2.047   3.966   5.236
11774TIP3    H235264   2.191   3.972   5.192
11775TIP3   OH235265   6.934   3.574   3.506
11775TIP3    H135266   6.921   3.668   3.513
11775TIP3    H235267   7.029   3.563   3.504
11776TIP3   OH235268   4.889   1.005   2.371
11776TIP3    H135269   4.869   1.014   2.464
11776TIP3    H235270   4.834   0.933   2.341
11777TIP3   OH235271   8.297   6.788   2.935
11777TIP3    H135272   8.318   6.856   2.999
11777TIP3    H235273   8.204   6.799   2.918
11778TIP3   OH235274   0.217   3.445   3.999
11778TIP3    H135275   0.226   3.496   3.919
11778TIP3    H235276   0.186   3.508   4.064
11779TIP3   OH235277   2.272   0.850   5.859
11779TIP3    H135278   2.182   0.883   5.870
11779TIP3    H235279   2.322   0.893   5.928
11780TIP3   OH235280   0.161   7.465   3.393
11780TIP3    H135281   0.240   7.453   3.446
11780TIP3    H235282   0.144   7.379   3.355
11781TIP3   OH235283   0.246   1.386   4.741
11781TIP3    H135284   0.305   1.402   4.815
11781TIP3    H235285   0.229   1.292   4.743
11782TIP3   OH235286   7.756   4.347   0.831
11782TIP3    H135287   7.664   4.318   0.827
11782TIP3    H235288   7.790   4.330   0.743
11783TIP3   OH235289   5.058   4.203   2.895
11783TIP3    H135290   5.060   4.112   2.924
11783TIP3    H235291   5.095   4.253   2.968
11784TIP3   OH235292   2.358   1.231   2.137
11784TIP3    H135293   2.444   1.269   2.153
11784TIP3    H235294   2.309   1.300   2.093
11785TIP3   OH235295   6.104   2.313   3.983
11785TIP3    H135296   6.049   2.382   4.019
11785TIP3    H235297   6.167   2.358   3.927
11786TIP3   OH235298   3.191   5.490   6.738
11786TIP3    H135299   3.261   5.524   6.682
11786TIP3    H235300   3.237   5.449   6.812
11787TIP3   OH235301   6.945   5.819   6.718
11787TIP3    H135302   6.897   5.784   6.792
11787TIP3    H235303   6.911   5.770   6.642
11788TIP3   OH235304   2.506   6.207   4.492
11788TIP3    H135305   2.525   6.157   4.572
11788TIP3    H235306   2.446   6.150   4.443
11789TIP3   OH235307   0.990   1.997   6.008
11789TIP3    H135308   1.082   1.986   6.032
11789TIP3    H235309   0.988   1.988   5.913
11790TIP3   OH235310   6.071   3.409   0.369
11790TIP3    H135311   6.057   3.463   0.447
11790TIP3    H235312   6.160   3.429   0.340
11791TIP3   OH235313   3.849   4.004   5.215
11791TIP3    H135314   3.923   3.951   5.187
11791TIP3    H235315   3.780   3.941   5.236
11792TIP3   OH235316   1.733   5.606   4.079
11792TIP3    H135317   1.741   5.572   4.169
11792TIP3    H235318   1.819   5.588   4.040
11793TIP3   OH235319   6.711   6.790   3.987
11793TIP3    H135320   6.724   6.782   4.082
11793TIP3    H235321   6.747   6.876   3.966
11794TIP3   OH235322   6.108   3.174   3.248
11794TIP3    H135323   6.188   3.225   3.234
11794TIP3    H235324   6.037   3.233   3.225
11795TIP3   OH235325   4.340   1.188   5.375
11795TIP3    H135326   4.361   1.194   5.468
11795TIP3    H235327   4.253   1.147   5.373
11796TIP3   OH235328   5.480   2.777   5.167
11796TIP3    H135329   5.440   2.708   5.221
11796TIP3    H235330   5.562   2.738   5.136
11797TIP3   OH235331   3.768   0.600   2.548
11797TIP3    H135332   3.718   0.603   2.466
11797TIP3    H235333   3.815   0.683   2.550
11798TIP3   OH235334   5.674   6.979   3.056
11798TIP3    H135335   5.650   7.068   3.081
11798TIP3    H235336   5.594   6.941   3.021
11799TIP3   OH235337   0.368   3.004   3.687
11799TIP3    H135338   0.356   3.071   3.620
11799TIP3    H235339   0.445   2.955   3.657
11800TIP3   OH235340   7.832   5.955   4.413
11800TIP3    H135341   7.787   5.923   4.334
11800TIP3    H235342   7.899   5.889   4.430
11801TIP3   OH235343   7.912   4.706   5.246
11801TIP3    H135344   7.916   4.750   5.331
11801TIP3    H235345   7.973   4.756   5.191
11802TIP3   OH235346   2.355   4.122   6.421
11802TIP3    H135347   2.383   4.211   6.443
11802TIP3    H235348   2.304   4.094   6.496
11803TIP3   OH235349   7.613   2.017   4.177
11803TIP3    H135350   7.627   1.925   4.197
11803TIP3    H235351   7.520   2.031   4.191
11804TIP3   OH235352   0.554   1.460   3.128
11804TIP3    H135353   0.644   1.479   3.099
11804TIP3    H235354   0.566   1.414   3.211
11805TIP3   OH235355   6.482   5.072   5.095
11805TIP3    H135356   6.471   4.978   5.108
11805TIP3    H235357   6.420   5.093   5.025
11806TIP3   OH235358   3.955   1.821   2.351
11806TIP3    H135359   3.964   1.812   2.256
11806TIP3    H235360   3.974   1.734   2.385
11807TIP3   OH235361   6.817   0.299   1.278
11807TIP3    H135362   6.734   0.267   1.314
11807TIP3    H235363   6.795   0.379   1.232
11808TIP3   OH235364   3.909   0.176   3.588
11808TIP3    H135365   3.840   0.121   3.623
11808TIP3    H235366   3.872   0.264   3.589
11809TIP3   OH235367   3.678   6.573   4.498
11809TIP3    H135368   3.742   6.602   4.563
11809TIP3    H235369   3.639   6.494   4.536
11810TIP3   OH235370   6.200   5.288   1.088
11810TIP3    H135371   6.124   5.346   1.093
11810TIP3    H235372   6.168   5.209   1.045
11811TIP3   OH235373   3.534   4.829   1.969
11811TIP3    H135374   3.556   4.747   2.013
11811TIP3    H235375   3.451   4.811   1.924
11812TIP3   OH235376   1.645   3.002   5.948
11812TIP3    H135377   1.649   3.081   5.894
11812TIP3    H235378   1.568   3.014   6.003
11813TIP3   OH235379   4.988   4.704   4.979
11813TIP3    H135380   4.968   4.691   5.071
11813TIP3    H235381   4.935   4.638   4.933
11814TIP3   OH235382   6.395   7.015   3.173
11814TIP3    H135383   6.370   7.100   3.137
11814TIP3    H235384   6.489   7.009   3.159
11815TIP3   OH235385   2.646   5.040   5.076
11815TIP3    H135386   2.625   5.003   5.162
11815TIP3    H235387   2.666   5.132   5.094
11816TIP3   OH235388   7.247   3.917   3.598
11816TIP3    H135389   7.276   4.002   3.632
11816TIP3    H235390   7.329   3.868   3.586
11817TIP3   OH235391   1.040   1.443  -0.020
11817TIP3    H135392   0.985   1.521  -0.025
11817TIP3    H235393   1.076   1.445   0.068
11818TIP3   OH235394   4.469   7.216   4.513
11818TIP3    H135395   4.560   7.197   4.537
11818TIP3    H235396   4.417   7.177   4.584
11819TIP3   OH235397   4.273   5.821   1.381
11819TIP3    H135398   4.237   5.760   1.316
11819TIP3    H235399   4.262   5.776   1.464
11820TIP3   OH235400   4.386   0.186   4.223
11820TIP3    H135401   4.373   0.141   4.306
11820TIP3    H235402   4.384   0.117   4.157
11821TIP3   OH235403   6.597   5.892   2.021
11821TIP3    H135404   6.595   5.833   1.945
11821TIP3    H235405   6.505   5.910   2.040
11822TIP3   OH235406   3.070   4.863   1.610
11822TIP3    H135407   3.131   4.796   1.581
11822TIP3    H235408   3.034   4.899   1.529
11823TIP3   OH235409   5.867   2.952   6.727
11823TIP3    H135410   5.940   2.890   6.718
11823TIP3    H235411   5.886   3.001   6.807
11824TIP3   OH235412   2.721   1.713   4.054
11824TIP3    H135413   2.813   1.688   4.043
11824TIP3    H235414   2.715   1.800   4.015
11825TIP3   OH235415   4.875   0.428   4.724
11825TIP3    H135416   4.790   0.384   4.726
11825TIP3    H235417   4.934   0.365   4.682
11826TIP3   OH235418   3.546   2.581   3.609
11826TIP3    H135419   3.556   2.579   3.514
11826TIP3    H235420   3.507   2.667   3.627
11827TIP3   OH235421   3.257   5.861   1.156
11827TIP3    H135422   3.161   5.865   1.156
11827TIP3    H235423   3.278   5.814   1.075
11828TIP3   OH235424   3.443   5.974   2.944
11828TIP3    H135425   3.450   5.915   2.869
11828TIP3    H235426   3.509   5.941   3.006
11829TIP3   OH235427   6.167   6.636   2.368
11829TIP3    H135428   6.091   6.622   2.312
11829TIP3    H235429   6.131   6.643   2.457
11830TIP3   OH235430   8.178   0.866   4.404
11830TIP3    H135431   8.230   0.943   4.381
11830TIP3    H235432   8.121   0.852   4.328
11831TIP3   OH235433   3.776   3.704   6.179
11831TIP3    H135434   3.799   3.678   6.090
11831TIP3    H235435   3.810   3.634   6.235
11832TIP3   OH235436   3.316   2.427   6.479
11832TIP3    H135437   3.281   2.404   6.566
11832TIP3    H235438   3.241   2.466   6.434
11833TIP3   OH235439   6.566   2.704   0.753
11833TIP3    H135440   6.520   2.715   0.837
11833TIP3    H235441   6.657   2.725   0.773
11834TIP3   OH235442   7.716   1.870   4.485
11834TIP3    H135443   7.773   1.817   4.541
11834TIP3    H235444   7.695   1.812   4.412
11835TIP3   OH235445   1.681   7.865   1.960
11835TIP3    H135446   1.723   7.812   1.893
11835TIP3    H235447   1.715   7.953   1.946
11836TIP3   OH235448   5.022   3.779   5.783
11836TIP3    H135449   5.005   3.704   5.726
11836TIP3    H235450   5.095   3.825   5.741
11837TIP3   OH235451   6.081   5.203   3.185
11837TIP3    H135452   6.153   5.255   3.219
11837TIP3    H235453   6.099   5.197   3.091
11838TIP3   OH235454   7.127   5.976   6.611
11838TIP3    H135455   7.181   5.912   6.565
11838TIP3    H235456   7.077   5.925   6.673
11839TIP3   OH235457   1.871   5.928   4.294
11839TIP3    H135458   1.927   6.004   4.279
11839TIP3    H235459   1.793   5.963   4.336
11840TIP3   OH235460   1.366   1.784   0.921
11840TIP3    H135461   1.458   1.763   0.936
11840TIP3    H235462   1.323   1.764   1.005
11841TIP3   OH235463   3.390   5.130   1.776
11841TIP3    H135464   3.377   5.056   1.836
11841TIP3    H235465   3.301   5.161   1.757
11842TIP3   OH235466   4.395   3.151   0.623
11842TIP3    H135467   4.329   3.085   0.642
11842TIP3    H235468   4.473   3.100   0.599
11843TIP3   OH235469   7.799   2.333   2.384
11843TIP3    H135470   7.766   2.278   2.455
11843TIP3    H235471   7.797   2.422   2.419
11844TIP3   OH235472   2.739   4.826   6.372
11844TIP3    H135473   2.680   4.902   6.369
11844TIP3    H235474   2.776   4.828   6.460
11845TIP3   OH235475   8.294   0.943   2.880
11845TIP3    H135476   8.339   0.859   2.868
11845TIP3    H235477   8.253   0.960   2.795
11846TIP3   OH235478   1.524   0.435   1.150
11846TIP3    H135479   1.494   0.522   1.176
11846TIP3    H235480   1.570   0.401   1.227
11847TIP3   OH235481   3.940   0.834   5.894
11847TIP3    H135482   3.876   0.819   5.824
11847TIP3    H235483   3.906   0.911   5.941
11848TIP3   OH235484   5.199   7.509   0.040
11848TIP3    H135485   5.170   7.438   0.097
11848TIP3    H235486   5.250   7.465  -0.029
11849TIP3   OH235487   3.295   6.304   1.907
11849TIP3    H135488   3.209   6.264   1.898
11849TIP3    H235489   3.313   6.343   1.821
11850TIP3   OH235490   3.027   2.232   3.770
11850TIP3    H135491   3.001   2.303   3.828
11850TIP3    H235492   3.044   2.158   3.829
11851TIP3   OH235493   4.935   7.062   0.967
11851TIP3    H135494   4.883   7.004   0.911
11851TIP3    H235495   5.026   7.043   0.944
11852TIP3   OH235496   3.921   6.185   5.530
11852TIP3    H135497   4.010   6.215   5.548
11852TIP3    H235498   3.868   6.265   5.535
11853TIP3   OH235499   0.819   1.948   3.583
11853TIP3    H135500   0.896   1.957   3.639
11853TIP3    H235501   0.847   1.980   3.498
11854TIP3   OH235502   1.014   2.909   0.976
11854TIP3    H135503   0.973   2.965   0.910
11854TIP3    H235504   1.056   2.969   1.036
11855TIP3   OH235505   3.980   1.716   0.119
11855TIP3    H135506   4.008   1.675   0.036
11855TIP3    H235507   3.960   1.642   0.176
11856TIP3   OH235508   8.107   7.410   0.902
11856TIP3    H135509   8.158   7.433   0.824
11856TIP3    H235510   8.077   7.495   0.936
11857TIP3   OH235511  -0.005   5.527   1.176
11857TIP3    H135512   0.057   5.563   1.240
11857TIP3    H235513   0.051   5.482   1.112
11858TIP3   OH235514   7.318   0.926   1.117
11858TIP3    H135515   7.330   1.021   1.120
11858TIP3    H235516   7.223   0.914   1.122
11859TIP3   OH235517   8.354   1.219   6.123
11859TIP3    H135518   8.352   1.128   6.092
11859TIP3    H235519   8.306   1.217   6.205
11860TIP3   OH235520   0.924   3.030   3.341
11860TIP3    H135521   0.929   2.937   3.321
11860TIP3    H235522   0.973   3.040   3.423
11861TIP3   OH235523   0.411   6.491   3.808
11861TIP3    H135524   0.362   6.510   3.728
11861TIP3    H235525   0.502   6.511   3.786
11862TIP3   OH235526   3.460   0.807   3.452
11862TIP3    H135527   3.441   0.870   3.383
11862TIP3    H235528   3.556   0.806   3.458
11863TIP3   OH235529   7.468   4.109   2.100
11863TIP3    H135530   7.491   4.191   2.144
11863TIP3    H235531   7.455   4.047   2.171
11864TIP3   OH235532   3.287   3.219   5.320
11864TIP3    H135533   3.225   3.199   5.390
11864TIP3    H235534   3.270   3.310   5.298
11865TIP3   OH235535   1.485   4.003   0.277
11865TIP3    H135536   1.486   3.909   0.297
11865TIP3    H235537   1.461   4.045   0.360
11866TIP3   OH235538   6.521   3.165   4.158
11866TIP3    H135539   6.453   3.173   4.225
11866TIP3    H235540   6.515   3.074   4.129
11867TIP3   OH235541   5.440   3.218   0.734
11867TIP3    H135542   5.347   3.241   0.737
11867TIP3    H235543   5.449   3.165   0.655
11868TIP3   OH235544   4.985   1.420   2.382
11868TIP3    H135545   4.907   1.371   2.354
11868TIP3    H235546   5.030   1.442   2.301
11869TIP3   OH235547   4.807   2.853   4.761
11869TIP3    H135548   4.887   2.840   4.810
11869TIP3    H235549   4.737   2.831   4.822
11870TIP3   OH235550   2.093   7.856   3.147
11870TIP3    H135551   2.042   7.861   3.065
11870TIP3    H235552   2.182   7.835   3.119
11871TIP3   OH235553   8.263   3.512   2.541
11871TIP3    H135554   8.251   3.607   2.532
11871TIP3    H235555   8.199   3.486   2.608
11872TIP3   OH235556   1.154   3.300   6.614
11872TIP3    H135557   1.249   3.285   6.609
11872TIP3    H235558   1.120   3.267   6.531
11873TIP3   OH235559   8.285   2.433   4.250
11873TIP3    H135560   8.375   2.453   4.274
11873TIP3    H235561   8.289   2.409   4.157
11874TIP3   OH235562   6.525   0.156   0.183
11874TIP3    H135563   6.472   0.174   0.106
11874TIP3    H235564   6.509   0.230   0.241
11875TIP3   OH235565   5.143   2.000   2.941
11875TIP3    H135566   5.210   2.002   2.873
11875TIP3    H235567   5.159   2.078   2.993
11876TIP3   OH235568   7.630   2.721   6.105
11876TIP3    H135569   7.708   2.665   6.111
11876TIP3    H235570   7.651   2.785   6.037
11877TIP3   OH235571   8.169   6.064   2.684
11877TIP3    H135572   8.182   6.118   2.606
11877TIP3    H235573   8.161   6.126   2.756
11878TIP3   OH235574   7.854   6.315   0.973
11878TIP3    H135575   7.780   6.279   0.924
11878TIP3    H235576   7.833   6.407   0.986
11879TIP3   OH235577   4.722   7.551   5.827
11879TIP3    H135578   4.810   7.587   5.827
11879TIP3    H235579   4.685   7.576   5.911
11880TIP3   OH235580   4.338   5.418   0.240
11880TIP3    H135581   4.266   5.474   0.269
11880TIP3    H235582   4.319   5.333   0.279
11881TIP3   OH235583   2.979   0.707   2.813
11881TIP3    H135584   2.921   0.758   2.757
11881TIP3    H235585   2.980   0.620   2.774
11882TIP3   OH235586   0.275   2.258   4.791
11882TIP3    H135587   0.215   2.322   4.827
11882TIP3    H235588   0.219   2.193   4.747
11883TIP3   OH235589   4.146   1.099   2.748
11883TIP3    H135590   4.131   1.087   2.655
11883TIP3    H235591   4.165   1.192   2.757
11884TIP3   OH235592   0.921   5.664   4.230
11884TIP3    H135593   0.857   5.618   4.176
11884TIP3    H235594   0.880   5.667   4.317
11885TIP3   OH235595   5.489   5.220   0.669
11885TIP3    H135596   5.560   5.221   0.605
11885TIP3    H235597   5.474   5.127   0.688
11886TIP3   OH235598   2.186   5.359   0.856
11886TIP3    H135599   2.162   5.319   0.940
11886TIP3    H235600   2.144   5.303   0.791
11887TIP3   OH235601   4.693   1.159   3.648
11887TIP3    H135602   4.754   1.194   3.584
11887TIP3    H235603   4.721   1.068   3.660
11888TIP3   OH235604   2.467   1.043   3.133
11888TIP3    H135605   2.478   1.019   3.041
11888TIP3    H235606   2.542   1.003   3.177
11889TIP3   OH235607   3.983   1.744   2.076
11889TIP3    H135608   3.952   1.819   2.025
11889TIP3    H235609   4.066   1.720   2.036
11890TIP3   OH235610   6.251   1.433   5.227
11890TIP3    H135611   6.321   1.454   5.289
11890TIP3    H235612   6.231   1.341   5.245
11891TIP3   OH235613   4.499   1.759   4.301
11891TIP3    H135614   4.495   1.665   4.286
11891TIP3    H235615   4.511   1.797   4.214
11892TIP3   OH235616   1.375   5.318   0.607
11892TIP3    H135617   1.412   5.375   0.675
11892TIP3    H235618   1.281   5.319   0.622
11893TIP3   OH235619   0.129   6.799   1.628
11893TIP3    H135620   0.076   6.840   1.696
11893TIP3    H235621   0.081   6.719   1.605
11894TIP3   OH235622   8.268   6.456   4.274
11894TIP3    H135623   8.211   6.414   4.209
11894TIP3    H235624   8.340   6.493   4.223
11895TIP3   OH235625   7.733   1.189   1.976
11895TIP3    H135626   7.650   1.166   2.019
11895TIP3    H235627   7.710   1.195   1.883
11896TIP3   OH235628   7.023   2.245   4.337
11896TIP3    H135629   7.037   2.169   4.281
11896TIP3    H235630   7.043   2.215   4.425
11897TIP3   OH235631   7.552   0.787   4.434
11897TIP3    H135632   7.592   0.825   4.513
11897TIP3    H235633   7.506   0.709   4.465
11898TIP3   OH235634   3.553   1.650   6.088
11898TIP3    H135635   3.591   1.736   6.104
11898TIP3    H235636   3.587   1.595   6.160
11899TIP3   OH235637   3.680   6.415   0.391
11899TIP3    H135638   3.714   6.505   0.390
11899TIP3    H235639   3.600   6.420   0.339
11900TIP3   OH235640   3.407   3.616   2.121
11900TIP3    H135641   3.326   3.575   2.092
11900TIP3    H235642   3.474   3.550   2.104
11901TIP3   OH235643   2.017   6.099   3.497
11901TIP3    H135644   2.072   6.177   3.487
11901TIP3    H235645   2.078   6.026   3.505
11902TIP3   OH235646   3.076   6.227   2.129
11902TIP3    H135647   3.127   6.148   2.114
11902TIP3    H235648   3.128   6.276   2.194
11903TIP3   OH235649   2.029   2.085   6.671
11903TIP3    H135650   2.051   2.174   6.646
11903TIP3    H235651   2.017   2.089   6.766
11904TIP3   OH235652   6.087   3.403   4.513
11904TIP3    H135653   6.168   3.455   4.517
11904TIP3    H235654   6.106   3.325   4.566
11905TIP3   OH235655   2.397   7.783   1.707
11905TIP3    H135656   2.451   7.778   1.629
11905TIP3    H235657   2.403   7.875   1.735
11906TIP3   OH235658   2.858   2.365   5.212
11906TIP3    H135659   2.833   2.274   5.229
11906TIP3    H235660   2.953   2.365   5.219
11907TIP3   OH235661   3.597   6.893   3.199
11907TIP3    H135662   3.609   6.806   3.162
11907TIP3    H235663   3.684   6.933   3.196
11908TIP3   OH235664   6.873   2.742   0.743
11908TIP3    H135665   6.896   2.759   0.652
11908TIP3    H235666   6.917   2.659   0.764
11909TIP3   OH235667   6.000   5.476   4.806
11909TIP3    H135668   5.919   5.514   4.771
11909TIP3    H235669   6.069   5.511   4.750
11910TIP3   OH235670   3.791   7.271   4.754
11910TIP3    H135671   3.745   7.220   4.821
11910TIP3    H235672   3.736   7.348   4.741
11911TIP3   OH235673   0.276   1.376   3.107
11911TIP3    H135674   0.245   1.416   3.026
11911TIP3    H235675   0.371   1.385   3.102
11912TIP3   OH235676   4.384   7.233   2.810
11912TIP3    H135677   4.365   7.323   2.836
11912TIP3    H235678   4.451   7.241   2.742
11913TIP3   OH235679   7.841   0.561   5.423
11913TIP3    H135680   7.808   0.645   5.455
11913TIP3    H235681   7.916   0.543   5.480
11914TIP3   OH235682   1.573   4.873   2.924
11914TIP3    H135683   1.534   4.865   3.012
11914TIP3    H235684   1.576   4.967   2.907
11915TIP3   OH235685   4.667   1.917   2.347
11915TIP3    H135686   4.642   1.994   2.399
11915TIP3    H235687   4.673   1.949   2.257
11916TIP3   OH235688   3.454   2.095   5.629
11916TIP3    H135689   3.510   2.152   5.682
11916TIP3    H235690   3.463   2.008   5.669
11917TIP3   OH235691   2.155   3.483   5.868
11917TIP3    H135692   2.155   3.390   5.847
11917TIP3    H235693   2.207   3.490   5.948
11918TIP3   OH235694   4.459   0.091   6.618
11918TIP3    H135695   4.454   0.149   6.542
11918TIP3    H235696   4.455   0.002   6.581
11919TIP3   OH235697   0.890   1.034   2.383
11919TIP3    H135698   0.844   1.009   2.463
11919TIP3    H235699   0.969   1.080   2.414
11920TIP3   OH235700   5.333   0.683   0.036
11920TIP3    H135701   5.337   0.699  -0.058
11920TIP3    H235702   5.414   0.721   0.071
11921TIP3   OH235703   3.111   0.043   5.853
11921TIP3    H135704   3.202   0.023   5.831
11921TIP3    H235705   3.098   0.003   5.939
11922TIP3   OH235706   6.805   4.904   5.852
11922TIP3    H135707   6.843   4.858   5.776
11922TIP3    H235708   6.880   4.945   5.895
11923TIP3   OH235709   0.555   1.941   2.246
11923TIP3    H135710   0.520   1.856   2.274
11923TIP3    H235711   0.555   1.994   2.325
11924TIP3   OH235712   7.141   2.618   4.963
11924TIP3    H135713   7.085   2.540   4.958
11924TIP3    H235714   7.106   2.676   4.895
11925TIP3   OH235715   5.717   6.266   6.304
11925TIP3    H135716   5.663   6.265   6.225
11925TIP3    H235717   5.807   6.271   6.273
11926TIP3   OH235718   1.926   4.792   4.487
11926TIP3    H135719   1.936   4.832   4.400
11926TIP3    H235720   1.835   4.762   4.489
11927TIP3   OH235721   1.044   4.598   2.884
11927TIP3    H135722   0.986   4.673   2.872
11927TIP3    H235723   1.030   4.571   2.975
11928TIP3   OH235724   7.366   4.261   4.466
11928TIP3    H135725   7.444   4.233   4.513
11928TIP3    H235726   7.397   4.328   4.405
11929TIP3   OH235727   3.797   2.164   6.799
11929TIP3    H135728   3.790   2.259   6.812
11929TIP3    H235729   3.711   2.131   6.824
11930TIP3   OH235730   3.334   5.752   5.796
11930TIP3    H135731   3.281   5.675   5.774
11930TIP3    H235732   3.401   5.754   5.728
11931TIP3   OH235733   0.941   0.958   6.424
11931TIP3    H135734   0.916   0.999   6.342
11931TIP3    H235735   0.960   1.031   6.483
11932TIP3   OH235736   0.352   4.984   3.349
11932TIP3    H135737   0.265   5.002   3.387
11932TIP3    H235738   0.409   4.974   3.426
11933TIP3   OH235739   1.349   1.235   4.656
11933TIP3    H135740   1.404   1.272   4.587
11933TIP3    H235741   1.401   1.162   4.691
11934TIP3   OH235742   5.476   1.899   3.533
11934TIP3    H135743   5.456   1.931   3.445
11934TIP3    H235744   5.424   1.819   3.541
11935TIP3   OH235745   7.400   7.124   5.414
11935TIP3    H135746   7.396   7.119   5.510
11935TIP3    H235747   7.452   7.202   5.396
11936TIP3   OH235748   8.040   6.011   4.699
11936TIP3    H135749   7.973   6.078   4.685
11936TIP3    H235750   8.068   6.024   4.790
11937TIP3   OH235751   5.989   0.067   4.028
11937TIP3    H135752   5.908   0.060   4.080
11937TIP3    H235753   6.041  -0.009   4.054
11938TIP3   OH235754   5.721   1.521   3.358
11938TIP3    H135755   5.694   1.597   3.305
11938TIP3    H235756   5.674   1.447   3.319
11939TIP3   OH235757   0.226   5.928   4.923
11939TIP3    H135758   0.316   5.905   4.947
11939TIP3    H235759   0.209   6.010   4.969
11940TIP3   OH235760   4.516   3.526   2.347
11940TIP3    H135761   4.443   3.514   2.408
11940TIP3    H235762   4.591   3.487   2.391
11941TIP3   OH235763   6.425   5.061   1.787
11941TIP3    H135764   6.330   5.076   1.785
11941TIP3    H235765   6.454   5.105   1.867
11942TIP3   OH235766   4.684   6.059   3.031
11942TIP3    H135767   4.763   6.089   2.987
11942TIP3    H235768   4.638   6.007   2.965
11943TIP3   OH235769   7.943   2.751   3.385
11943TIP3    H135770   8.030   2.718   3.361
11943TIP3    H235771   7.927   2.822   3.322
11944TIP3   OH235772   1.733   3.016   0.837
11944TIP3    H135773   1.754   3.040   0.747
11944TIP3    H235774   1.672   3.084   0.867
11945TIP3   OH235775   1.936   0.194   0.499
11945TIP3    H135776   1.963   0.117   0.449
11945TIP3    H235777   1.871   0.237   0.444
11946TIP3   OH235778   2.629   4.438   6.062
11946TIP3    H135779   2.717   4.476   6.060
11946TIP3    H235780   2.585   4.484   6.134
11947TIP3   OH235781   3.877   5.799   4.455
11947TIP3    H135782   3.826   5.879   4.447
11947TIP3    H235783   3.968   5.829   4.462
11948TIP3   OH235784   7.083   0.813   1.715
11948TIP3    H135785   7.117   0.879   1.654
11948TIP3    H235786   7.079   0.859   1.799
11949TIP3   OH235787   0.217   5.442   0.513
11949TIP3    H135788   0.204   5.370   0.576
11949TIP3    H235789   0.173   5.517   0.553
11950TIP3   OH235790   0.414   4.055   1.555
11950TIP3    H135791   0.369   4.027   1.635
11950TIP3    H235792   0.430   4.148   1.567
11951TIP3   OH235793   8.231   4.217   5.993
11951TIP3    H135794   8.288   4.294   5.996
11951TIP3    H235795   8.290   4.144   5.974
11952TIP3   OH235796   6.768   4.855   5.040
11952TIP3    H135797   6.792   4.796   5.111
11952TIP3    H235798   6.796   4.810   4.960
11953TIP3   OH235799   0.290   5.021   4.840
11953TIP3    H135800   0.355   5.051   4.903
11953TIP3    H235801   0.339   4.971   4.776
11954TIP3   OH235802   0.065   2.924   5.015
11954TIP3    H135803   0.007   2.873   5.072
11954TIP3    H235804   0.091   2.862   4.946
11955TIP3   OH235805   4.527   6.974   6.162
11955TIP3    H135806   4.442   7.018   6.157
11955TIP3    H235807   4.580   7.015   6.094
11956TIP3   OH235808   6.299   3.589   2.495
11956TIP3    H135809   6.302   3.671   2.447
11956TIP3    H235810   6.391   3.565   2.508
11957TIP3   OH235811   8.122   1.652   1.703
11957TIP3    H135812   8.151   1.658   1.794
11957TIP3    H235813   8.028   1.639   1.709
11958TIP3   OH235814   4.202   1.789   4.083
11958TIP3    H135815   4.297   1.800   4.081
11958TIP3    H235816   4.180   1.751   3.998
11959TIP3   OH235817   3.410   6.756   3.821
11959TIP3    H135818   3.429   6.819   3.751
11959TIP3    H235819   3.390   6.811   3.897
11960TIP3   OH235820   6.781   4.086   3.946
11960TIP3    H135821   6.784   4.080   3.850
11960TIP3    H235822   6.794   3.996   3.976
11961TIP3   OH235823   0.275   0.996   5.548
11961TIP3    H135824   0.331   0.923   5.573
11961TIP3    H235825   0.312   1.072   5.594
11962TIP3   OH235826   3.072   1.000   1.282
11962TIP3    H135827   3.007   1.062   1.248
11962TIP3    H235828   3.112   1.046   1.356
11963TIP3   OH235829   5.477   7.424   5.351
11963TIP3    H135830   5.505   7.451   5.438
11963TIP3    H235831   5.408   7.486   5.328
11964TIP3   OH235832   0.954   1.523   2.878
11964TIP3    H135833   1.049   1.529   2.889
11964TIP3    H235834   0.937   1.572   2.797
11965TIP3   OH235835   6.930   5.947   4.325
11965TIP3    H135836   6.935   5.879   4.258
11965TIP3    H235837   6.904   6.026   4.276
11966TIP3   OH235838   0.160   4.780   1.573
11966TIP3    H135839   0.077   4.812   1.536
11966TIP3    H235840   0.145   4.687   1.587
11967TIP3   OH235841   1.918   5.410   1.613
11967TIP3    H135842   1.871   5.385   1.534
11967TIP3    H235843   1.896   5.503   1.626
11968TIP3   OH235844   6.594   3.026   5.544
11968TIP3    H135845   6.505   3.059   5.535
11968TIP3    H235846   6.610   3.026   5.638
11969TIP3   OH235847   5.186   4.941   2.474
11969TIP3    H135848   5.116   4.877   2.462
11969TIP3    H235849   5.249   4.921   2.405
11970TIP3   OH235850   0.729   6.018   3.500
11970TIP3    H135851   0.672   6.047   3.429
11970TIP3    H235852   0.694   6.061   3.578
11971TIP3   OH235853   6.924   6.190   2.665
11971TIP3    H135854   6.969   6.274   2.673
11971TIP3    H235855   6.833   6.212   2.649
11972TIP3   OH235856   7.574   0.427   1.930
11972TIP3    H135857   7.658   0.418   1.887
11972TIP3    H235858   7.522   0.354   1.895
11973TIP3   OH235859   0.897   6.712   5.794
11973TIP3    H135860   0.841   6.718   5.717
11973TIP3    H235861   0.985   6.700   5.760
11974TIP3   OH235862   2.575   2.763   5.219
11974TIP3    H135863   2.639   2.732   5.154
11974TIP3    H235864   2.611   2.735   5.303
11975TIP3   OH235865   8.327   5.709   2.817
11975TIP3    H135866   8.393   5.676   2.756
11975TIP3    H235867   8.260   5.640   2.820
11976TIP3   OH235868   7.506   1.549   5.488
11976TIP3    H135869   7.518   1.481   5.421
11976TIP3    H235870   7.420   1.587   5.468
11977TIP3   OH235871   4.215   1.672   3.805
11977TIP3    H135872   4.300   1.655   3.764
11977TIP3    H235873   4.169   1.729   3.744
11978TIP3   OH235874   3.310   3.895   4.127
11978TIP3    H135875   3.252   3.880   4.201
11978TIP3    H235876   3.372   3.962   4.157
11979TIP3   OH235877   5.144   6.270   3.394
11979TIP3    H135878   5.217   6.297   3.450
11979TIP3    H235879   5.186   6.238   3.314
11980TIP3   OH235880   4.201   6.450   5.536
11980TIP3    H135881   4.177   6.526   5.590
11980TIP3    H235882   4.170   6.375   5.586
11981TIP3   OH235883   3.523   6.501   2.532
11981TIP3    H135884   3.584   6.448   2.481
11981TIP3    H235885   3.463   6.438   2.572
11982TIP3   OH235886   1.672   2.605   2.330
11982TIP3    H135887   1.702   2.529   2.380
11982TIP3    H235888   1.671   2.577   2.239
11983TIP3   OH235889   8.254   5.901   2.986
11983TIP3    H135890   8.211   5.851   3.055
11983TIP3    H235891   8.282   5.834   2.922
11984TIP3   OH235892   3.557   2.816   4.135
11984TIP3    H135893   3.516   2.889   4.181
11984TIP3    H235894   3.641   2.849   4.106
11985TIP3   OH235895   2.507   0.235   1.439
11985TIP3    H135896   2.465   0.291   1.504
11985TIP3    H235897   2.531   0.294   1.368
11986TIP3   OH235898   7.800   2.586   0.041
11986TIP3    H135899   7.800   2.514   0.104
11986TIP3    H235900   7.840   2.549  -0.038
11987TIP3   OH235901   5.552   5.706   5.378
11987TIP3    H135902   5.548   5.760   5.299
11987TIP3    H235903   5.468   5.721   5.422
11988TIP3   OH235904   7.990   2.828   6.309
11988TIP3    H135905   8.077   2.852   6.341
11988TIP3    H235906   7.973   2.743   6.349
11989TIP3   OH235907   6.900   6.021   1.861
11989TIP3    H135908   6.874   5.929   1.871
11989TIP3    H235909   6.978   6.018   1.806
11990TIP3   OH235910   0.253   5.462   5.905
11990TIP3    H135911   0.303   5.533   5.866
11990TIP3    H235912   0.161   5.484   5.886
11991TIP3   OH235913   3.629   3.665   0.859
11991TIP3    H135914   3.635   3.736   0.923
11991TIP3    H235915   3.540   3.670   0.824
11992TIP3   OH235916   3.224   5.286   2.949
11992TIP3    H135917   3.173   5.358   2.985
11992TIP3    H235918   3.246   5.314   2.860
11993TIP3   OH235919   5.631   4.438   1.969
11993TIP3    H135920   5.667   4.514   2.014
11993TIP3    H235921   5.622   4.372   2.038
11994TIP3   OH235922   7.266   5.742   3.262
11994TIP3    H135923   7.187   5.718   3.213
11994TIP3    H235924   7.248   5.829   3.295
11995TIP3   OH235925   3.578   6.156   1.686
11995TIP3    H135926   3.632   6.136   1.610
11995TIP3    H235927   3.491   6.172   1.650
11996TIP3   OH235928   8.329   2.609   0.042
11996TIP3    H135929   8.324   2.551   0.118
11996TIP3    H235930   8.422   2.631   0.035
11997TIP3   OH235931   5.115   1.118   5.913
11997TIP3    H135932   5.201   1.143   5.881
11997TIP3    H235933   5.101   1.173   5.990
11998TIP3   OH235934   4.749   0.997   5.682
11998TIP3    H135935   4.734   1.001   5.587
11998TIP3    H235936   4.805   1.072   5.701
11999TIP3   OH235937   5.198   6.898   3.706
11999TIP3    H135938   5.278   6.863   3.746
11999TIP3    H235939   5.192   6.987   3.740
12000TIP3   OH235940   4.762   1.053   4.048
12000TIP3    H135941   4.801   1.126   4.000
12000TIP3    H235942   4.825   0.982   4.037
12001TIP3   OH235943   4.542   1.782   3.192
12001TIP3    H135944   4.638   1.776   3.185
12001TIP3    H235945   4.520   1.729   3.268
12002TIP3   OH235946   4.284   5.214   5.499
12002TIP3    H135947   4.227   5.286   5.527
12002TIP3    H235948   4.232   5.169   5.431
12003TIP3   OH235949   1.629   0.155   3.126
12003TIP3    H135950   1.612   0.223   3.190
12003TIP3    H235951   1.629   0.200   3.042
12004TIP3   OH235952   1.792   7.564   1.529
12004TIP3    H135953   1.705   7.584   1.562
12004TIP3    H235954   1.849   7.568   1.605
12005TIP3   OH235955   0.400   6.009   6.135
12005TIP3    H135956   0.479   5.961   6.160
12005TIP3    H235957   0.431   6.098   6.117
12006TIP3   OH235958   3.667   3.959   6.193
12006TIP3    H135959   3.740   3.896   6.189
12006TIP3    H235960   3.629   3.958   6.106
12007TIP3   OH235961   8.187   5.473   4.215
12007TIP3    H135962   8.156   5.434   4.133
12007TIP3    H235963   8.266   5.522   4.190
12008TIP3   OH235964   6.649   0.257   5.975
12008TIP3    H135965   6.703   0.298   6.043
12008TIP3    H235966   6.568   0.234   6.019
12009TIP3   OH235967   0.750   5.461   1.697
12009TIP3    H135968   0.787   5.397   1.757
12009TIP3    H235969   0.655   5.453   1.707
12010TIP3   OH235970   1.785   2.165   3.780
12010TIP3    H135971   1.700   2.135   3.811
12010TIP3    H235972   1.846   2.136   3.848
12011TIP3   OH235973   6.735   2.717   6.515
12011TIP3    H135974   6.645   2.745   6.496
12011TIP3    H235975   6.768   2.782   6.577
12012TIP3   OH235976   5.602   4.580   3.069
12012TIP3    H135977   5.552   4.502   3.045
12012TIP3    H235978   5.663   4.549   3.136
12013TIP3   OH235979   8.190   3.647   5.030
12013TIP3    H135980   8.113   3.649   5.086
12013TIP3    H235981   8.156   3.627   4.943
12014TIP3   OH235982   2.593   7.181   1.961
12014TIP3    H135983   2.606   7.231   2.041
12014TIP3    H235984   2.639   7.231   1.893
12015TIP3   OH235985   5.992   7.491   0.627
12015TIP3    H135986   5.974   7.546   0.703
12015TIP3    H235987   5.907   7.476   0.587
12016TIP3   OH235988   5.555   0.157   4.133
12016TIP3    H135989   5.513   0.169   4.048
12016TIP3    H235990   5.486   0.123   4.190
12017TIP3   OH235991   7.769   7.434   6.605
12017TIP3    H135992   7.719   7.357   6.633
12017TIP3    H235993   7.797   7.413   6.516
12018TIP3   OH235994   4.426   1.824   2.470
12018TIP3    H135995   4.517   1.852   2.456
12018TIP3    H235996   4.393   1.805   2.382
12019TIP3   OH235997   6.511   2.820   2.526
12019TIP3    H135998   6.597   2.849   2.497
12019TIP3    H235999   6.526   2.785   2.614
12020TIP3   OH236000   3.615   0.776   4.110
12020TIP3    H136001   3.555   0.839   4.150
12020TIP3    H236002   3.658   0.826   4.041
12021TIP3   OH236003   3.379   2.181   2.468
12021TIP3    H136004   3.301   2.227   2.497
12021TIP3    H236005   3.428   2.164   2.548
12022TIP3   OH236006   3.550   7.537   0.348
12022TIP3    H136007   3.541   7.589   0.268
12022TIP3    H236008   3.640   7.504   0.346
12023TIP3   OH236009   0.551   2.580   3.712
12023TIP3    H136010   0.595   2.503   3.748
12023TIP3    H236011   0.483   2.544   3.654
12024TIP3   OH236012   1.205   3.871   6.719
12024TIP3    H136013   1.143   3.942   6.703
12024TIP3    H236014   1.266   3.874   6.645
12025TIP3   OH236015   0.533   4.062   2.404
12025TIP3    H136016   0.445   4.045   2.370
12025TIP3    H236017   0.589   4.002   2.355
12026TIP3   OH236018   0.980   4.372   4.464
12026TIP3    H136019   1.022   4.402   4.544
12026TIP3    H236020   1.018   4.286   4.447
12027TIP3   OH236021   2.401   4.558   2.097
12027TIP3    H136022   2.426   4.480   2.046
12027TIP3    H236023   2.313   4.580   2.065
12028TIP3   OH236024   6.108   3.108   0.798
12028TIP3    H136025   6.015   3.129   0.789
12028TIP3    H236026   6.152   3.192   0.790
12029TIP3   OH236027   5.084   5.069   0.980
12029TIP3    H136028   5.077   5.087   1.074
12029TIP3    H236029   5.112   4.977   0.975
12030TIP3   OH236030   7.187   7.059   0.231
12030TIP3    H136031   7.212   7.041   0.140
12030TIP3    H236032   7.213   7.150   0.246
12031TIP3   OH236033   4.782   2.139   1.746
12031TIP3    H136034   4.787   2.221   1.698
12031TIP3    H236035   4.825   2.158   1.830
12032TIP3   OH236036   4.069   2.705   6.479
12032TIP3    H136037   4.019   2.703   6.561
12032TIP3    H236038   4.161   2.706   6.507
12033TIP3   OH236039   3.893   3.220   4.248
12033TIP3    H136040   3.958   3.152   4.265
12033TIP3    H236041   3.945   3.298   4.228
12034TIP3   OH236042   0.076   0.080   3.290
12034TIP3    H136043   0.033   0.150   3.339
12034TIP3    H236044   0.036   0.000   3.324
12035TIP3   OH236045   4.892   7.652   3.187
12035TIP3    H136046   4.940   7.654   3.105
12035TIP3    H236047   4.913   7.567   3.225
12036TIP3   OH236048   2.422   1.952   4.487
12036TIP3    H136049   2.499   1.930   4.434
12036TIP3    H236050   2.353   1.970   4.423
12037TIP3   OH236051   2.821   2.408   5.492
12037TIP3    H136052   2.915   2.406   5.511
12037TIP3    H236053   2.815   2.386   5.399
12038TIP3   OH236054   7.845   4.872  -0.019
12038TIP3    H136055   7.878   4.840   0.065
12038TIP3    H236056   7.770   4.816  -0.038
12039TIP3   OH236057   4.607   5.865   2.889
12039TIP3    H136058   4.559   5.822   2.960
12039TIP3    H236059   4.627   5.794   2.828
12040TIP3   OH236060   6.496   3.207   1.606
12040TIP3    H136061   6.463   3.249   1.527
12040TIP3    H236062   6.571   3.155   1.577
12041TIP3   OH236063   7.203   5.453   0.323
12041TIP3    H136064   7.166   5.395   0.256
12041TIP3    H236065   7.230   5.394   0.393
12042TIP3   OH236066   1.562   4.531   0.380
12042TIP3    H136067   1.652   4.531   0.348
12042TIP3    H236068   1.508   4.531   0.301
12043TIP3   OH236069   4.776   7.858   1.300
12043TIP3    H136070   4.690   7.862   1.258
12043TIP3    H236071   4.837   7.884   1.230
12044TIP3   OH236072   3.115   5.794   1.563
12044TIP3    H136073   3.159   5.850   1.499
12044TIP3    H236074   3.054   5.742   1.512
12045TIP3   OH236075   4.484   5.964   5.316
12045TIP3    H136076   4.480   6.002   5.404
12045TIP3    H236077   4.570   5.988   5.284
12046TIP3   OH236078   7.237   3.240   1.125
12046TIP3    H136079   7.224   3.319   1.074
12046TIP3    H236080   7.302   3.263   1.191
12047TIP3   OH236081   1.155   0.316   0.121
12047TIP3    H136082   1.175   0.230   0.083
12047TIP3    H236083   1.219   0.327   0.192
12048TIP3   OH236084   4.454   0.729   6.010
12048TIP3    H136085   4.380   0.757   5.955
12048TIP3    H236086   4.417   0.662   6.067
12049TIP3   OH236087   0.947   1.623   2.615
12049TIP3    H136088   0.985   1.597   2.530
12049TIP3    H236089   0.854   1.603   2.606
12050TIP3   OH236090   5.064   1.524   4.245
12050TIP3    H136091   5.080   1.434   4.273
12050TIP3    H236092   5.132   1.575   4.287
12051TIP3   OH236093   3.757   1.011   4.783
12051TIP3    H136094   3.820   1.002   4.711
12051TIP3    H236095   3.672   1.014   4.740
12052TIP3   OH236096   7.684   2.824   1.454
12052TIP3    H136097   7.779   2.826   1.450
12052TIP3    H236098   7.661   2.886   1.523
12053TIP3   OH236099   3.029   0.608   5.532
12053TIP3    H136100   3.012   0.551   5.607
12053TIP3    H236101   2.943   0.623   5.493
12054TIP3   OH236102   2.300   4.572   3.459
12054TIP3    H136103   2.210   4.549   3.436
12054TIP3    H236104   2.301   4.668   3.459
12055TIP3   OH236105   6.556   7.444   0.211
12055TIP3    H136106   6.542   7.357   0.247
12055TIP3    H236107   6.499   7.447   0.134
12056TIP3   OH236108   7.692   6.333   5.884
12056TIP3    H136109   7.738   6.365   5.806
12056TIP3    H236110   7.617   6.392   5.893
12057TIP3   OH236111   1.577   3.654   0.062
12057TIP3    H136112   1.610   3.744   0.058
12057TIP3    H236113   1.512   3.656   0.132
12058TIP3   OH236114   7.834   5.040   5.317
12058TIP3    H136115   7.741   5.022   5.309
12058TIP3    H236116   7.864   4.982   5.387
12059TIP3   OH236117   0.453   6.184   6.785
12059TIP3    H136118   0.545   6.160   6.776
12059TIP3    H236119   0.422   6.196   6.696
12060TIP3   OH236120   3.450   3.658   5.098
12060TIP3    H136121   3.423   3.689   5.185
12060TIP3    H236122   3.544   3.643   5.107
12061TIP3   OH236123   7.249   2.370   1.298
12061TIP3    H136124   7.190   2.400   1.229
12061TIP3    H236125   7.195   2.311   1.351
12062TIP3   OH236126   2.536   5.042   1.517
12062TIP3    H136127   2.576   4.957   1.498
12062TIP3    H236128   2.443   5.022   1.529
12063TIP3   OH236129   4.767   7.750   5.305
12063TIP3    H136130   4.767   7.802   5.386
12063TIP3    H236131   4.765   7.659   5.335
12064TIP3   OH236132   6.102   3.060   5.096
12064TIP3    H136133   6.184   3.039   5.141
12064TIP3    H236134   6.124   3.133   5.038
12065TIP3   OH236135   0.998   0.356   1.744
12065TIP3    H136136   0.977   0.284   1.685
12065TIP3    H236137   0.915   0.401   1.758
12066TIP3   OH236138   5.615   1.486   3.042
12066TIP3    H136139   5.696   1.493   2.991
12066TIP3    H236140   5.546   1.512   2.980
12067TIP3   OH236141   0.887   3.797   1.988
12067TIP3    H136142   0.949   3.869   2.001
12067TIP3    H236143   0.853   3.810   1.899
12068TIP3   OH236144   1.484   7.414   1.440
12068TIP3    H136145   1.524   7.492   1.402
12068TIP3    H236146   1.546   7.344   1.422
12069TIP3   OH236147   0.900   7.254   4.245
12069TIP3    H136148   0.984   7.252   4.199
12069TIP3    H236149   0.835   7.265   4.176
12070TIP3   OH236150   3.364   1.288   2.022
12070TIP3    H136151   3.390   1.256   1.935
12070TIP3    H236152   3.441   1.272   2.077
12071TIP3   OH236153   3.802   1.258   0.978
12071TIP3    H136154   3.885   1.210   0.985
12071TIP3    H236155   3.798   1.310   1.058
12072TIP3   OH236156   5.533   1.550   0.453
12072TIP3    H136157   5.574   1.601   0.523
12072TIP3    H236158   5.531   1.610   0.378
12073TIP3   OH236159   4.320   1.710   5.263
12073TIP3    H136160   4.385   1.643   5.285
12073TIP3    H236161   4.236   1.669   5.279
12074TIP3   OH236162   0.889   5.125   2.633
12074TIP3    H136163   0.827   5.072   2.583
12074TIP3    H236164   0.933   5.179   2.567
12075TIP3   OH236165   2.054   7.124   5.257
12075TIP3    H136166   1.995   7.054   5.231
12075TIP3    H236167   2.007   7.170   5.326
12076TIP3   OH236168   2.145   6.371   5.444
12076TIP3    H136169   2.113   6.347   5.531
12076TIP3    H236170   2.198   6.450   5.459
12077TIP3   OH236171   7.839   0.383   3.508
12077TIP3    H136172   7.841   0.305   3.452
12077TIP3    H236173   7.748   0.386   3.540
12078TIP3   OH236174   8.020   6.136   1.362
12078TIP3    H136175   7.993   6.227   1.348
12078TIP3    H236176   8.065   6.137   1.446
12079TIP3   OH236177   2.534   7.837   0.939
12079TIP3    H136178   2.585   7.915   0.960
12079TIP3    H236179   2.476   7.864   0.867
12080TIP3   OH236180   2.263   1.217   3.502
12080TIP3    H136181   2.202   1.201   3.575
12080TIP3    H236182   2.321   1.141   3.502
12081TIP3   OH236183   6.118   1.337   4.055
12081TIP3    H136184   6.059   1.404   4.089
12081TIP3    H236185   6.155   1.376   3.976
12082TIP3   OH236186   7.515   2.527   0.450
12082TIP3    H136187   7.524   2.471   0.373
12082TIP3    H236188   7.604   2.536   0.484
12083TIP3   OH236189   1.055   0.280   3.494
12083TIP3    H136190   1.129   0.340   3.507
12083TIP3    H236191   1.082   0.224   3.421
12084TIP3   OH236192   6.673   5.908   2.934
12084TIP3    H136193   6.704   5.997   2.943
12084TIP3    H236194   6.598   5.914   2.875
12085TIP3   OH236195   0.954   3.990   2.968
12085TIP3    H136196   1.014   3.928   3.011
12085TIP3    H236197   0.870   3.946   2.967
12086TIP3   OH236198   4.175   1.295   6.463
12086TIP3    H136199   4.184   1.213   6.512
12086TIP3    H236200   4.169   1.362   6.530
12087TIP3   OH236201   5.119   3.225   1.110
12087TIP3    H136202   5.196   3.257   1.157
12087TIP3    H236203   5.045   3.270   1.151
12088TIP3   OH236204   5.256   7.856   6.286
12088TIP3    H136205   5.230   7.948   6.276
12088TIP3    H236206   5.223   7.831   6.372
12089TIP3   OH236207   2.688   5.628   5.260
12089TIP3    H136208   2.620   5.567   5.231
12089TIP3    H236209   2.665   5.649   5.350
12090TIP3   OH236210   8.307   5.171   1.002
12090TIP3    H136211   8.249   5.160   0.927
12090TIP3    H236212   8.385   5.120   0.979
12091TIP3   OH236213   3.747   0.512   1.714
12091TIP3    H136214   3.779   0.447   1.651
12091TIP3    H236215   3.686   0.566   1.664
12092TIP3   OH236216   6.534   4.913   6.203
12092TIP3    H136217   6.531   4.897   6.108
12092TIP3    H236218   6.562   5.005   6.210
12093TIP3   OH236219   2.185   5.305   3.519
12093TIP3    H136220   2.147   5.219   3.538
12093TIP3    H236221   2.154   5.361   3.591
12094TIP3   OH236222   2.380   5.190   0.158
12094TIP3    H136223   2.356   5.240   0.080
12094TIP3    H236224   2.464   5.150   0.136
12095TIP3   OH236225   2.868   3.241   4.339
12095TIP3    H136226   2.936   3.306   4.318
12095TIP3    H236227   2.914   3.174   4.389
12096TIP3   OH236228   4.668   6.840   2.468
12096TIP3    H136229   4.681   6.929   2.502
12096TIP3    H236230   4.738   6.789   2.509
12097TIP3   OH236231   4.834   6.486   0.770
12097TIP3    H136232   4.778   6.508   0.696
12097TIP3    H236233   4.780   6.502   0.847
12098TIP3   OH236234   3.828   7.384   1.842
12098TIP3    H136235   3.849   7.313   1.781
12098TIP3    H236236   3.743   7.360   1.877
12099TIP3   OH236237   5.064   1.012   1.216
12099TIP3    H136238   5.016   1.031   1.297
12099TIP3    H236239   5.026   0.930   1.184
12100TIP3   OH236240   7.625   6.075   5.854
12100TIP3    H136241   7.665   6.162   5.846
12100TIP3    H236242   7.690   6.015   5.818
12101TIP3   OH236243   1.857   4.285   5.361
12101TIP3    H136244   1.783   4.344   5.372
12101TIP3    H236245   1.908   4.295   5.441
12102TIP3   OH236246   3.101   3.098   5.494
12102TIP3    H136247   3.045   3.028   5.461
12102TIP3    H236248   3.176   3.052   5.534
12103TIP3   OH236249   1.370   6.898   5.479
12103TIP3    H136250   1.377   6.931   5.389
12103TIP3    H236251   1.458   6.911   5.516
12104TIP3   OH236252   6.288   1.481   6.095
12104TIP3    H136253   6.264   1.393   6.068
12104TIP3    H236254   6.205   1.529   6.099
12105TIP3   OH236255   3.799   7.261   0.433
12105TIP3    H136256   3.817   7.167   0.428
12105TIP3    H236257   3.821   7.294   0.346
12106TIP3   OH236258   3.506   2.533   5.647
12106TIP3    H136259   3.563   2.559   5.575
12106TIP3    H236260   3.546   2.573   5.724
12107TIP3   OH236261   6.748   4.702   4.325
12107TIP3    H136262   6.680   4.681   4.389
12107TIP3    H236263   6.746   4.628   4.263
12108TIP3   OH236264   0.032   4.825   3.562
12108TIP3    H136265  -0.055   4.838   3.598
12108TIP3    H236266   0.040   4.891   3.493
12109TIP3   OH236267   7.344   3.463   2.257
12109TIP3    H136268   7.429   3.419   2.253
12109TIP3    H236269   7.367   3.557   2.259
12110TIP3   OH236270   2.870   5.171   5.829
12110TIP3    H136271   2.781   5.152   5.799
12110TIP3    H236272   2.868   5.151   5.923
12111TIP3   OH236273   2.714   4.833   5.580
12111TIP3    H136274   2.764   4.752   5.581
12111TIP3    H236275   2.696   4.851   5.673
12112TIP3   OH236276   3.496   2.824   1.003
12112TIP3    H136277   3.527   2.877   0.930
12112TIP3    H236278   3.403   2.845   1.011
12113TIP3   OH236279   5.008   1.327   5.523
12113TIP3    H136280   5.051   1.410   5.500
12113TIP3    H236281   4.982   1.289   5.439
12114TIP3   OH236282   8.239   1.954   3.219
12114TIP3    H136283   8.174   1.884   3.230
12114TIP3    H236284   8.319   1.919   3.258
12115TIP3   OH236285   6.988   0.543   6.377
12115TIP3    H136286   7.037   0.467   6.408
12115TIP3    H236287   6.912   0.549   6.434
12116TIP3   OH236288   1.330   4.754   5.859
12116TIP3    H136289   1.365   4.835   5.820
12116TIP3    H236290   1.288   4.783   5.940
12117TIP3   OH236291   7.647   4.108   3.626
12117TIP3    H136292   7.732   4.068   3.606
12117TIP3    H236293   7.664   4.160   3.705
12118TIP3   OH236294   3.779   5.309   4.339
12118TIP3    H136295   3.713   5.345   4.279
12118TIP3    H236296   3.828   5.247   4.286
12119TIP3   OH236297   7.135   0.569   0.989
12119TIP3    H136298   7.085   0.627   0.932
12119TIP3    H236299   7.224   0.572   0.954
12120TIP3   OH236300   3.858   7.090   0.851
12120TIP3    H136301   3.786   7.044   0.894
12120TIP3    H236302   3.869   7.045   0.767
12121TIP3   OH236303   5.242   7.449   3.641
12121TIP3    H136304   5.322   7.397   3.647
12121TIP3    H236305   5.171   7.386   3.651
12122TIP3   OH236306   8.021   0.053   0.630
12122TIP3    H136307   8.013  -0.022   0.571
12122TIP3    H236308   7.973   0.027   0.709
12123TIP3   OH236309   5.049   1.065   6.316
12123TIP3    H136310   5.078   0.985   6.273
12123TIP3    H236311   4.988   1.036   6.383
12124TIP3   OH236312   0.919   1.680   4.561
12124TIP3    H136313   0.924   1.607   4.624
12124TIP3    H236314   1.009   1.694   4.533
12125TIP3   OH236315   0.243   4.225   3.845
12125TIP3    H136316   0.169   4.267   3.801
12125TIP3    H236317   0.294   4.298   3.881
12126TIP3   OH236318   1.052   5.077   1.882
12126TIP3    H136319   1.054   5.164   1.922
12126TIP3    H236320   0.996   5.087   1.805
12127TIP3   OH236321   2.854   7.209   6.453
12127TIP3    H136322   2.911   7.186   6.527
12127TIP3    H236323   2.794   7.136   6.446
12128TIP3   OH236324   7.118   4.046   6.691
12128TIP3    H136325   7.036   3.997   6.688
12128TIP3    H236326   7.104   4.120   6.632
12129TIP3   OH236327   0.982   0.662   2.822
12129TIP3    H136328   0.939   0.591   2.870
12129TIP3    H236329   0.916   0.732   2.818
12130TIP3   OH236330   0.824   0.766   6.703
12130TIP3    H136331   0.895   0.830   6.697
12130TIP3    H236332   0.804   0.743   6.613
12131TIP3   OH236333   6.567   0.763   5.841
12131TIP3    H136334   6.545   0.675   5.810
12131TIP3    H236335   6.484   0.800   5.871
12132TIP3   OH236336   3.287   4.587   2.303
12132TIP3    H136337   3.196   4.614   2.297
12132TIP3    H236338   3.303   4.537   2.224
12133TIP3   OH236339   4.615   3.257   6.017
12133TIP3    H136340   4.525   3.243   6.046
12133TIP3    H236341   4.649   3.325   6.075
12134TIP3   OH236342   0.086   1.883   5.795
12134TIP3    H136343   0.052   1.928   5.872
12134TIP3    H236344   0.036   1.802   5.791
12135TIP3   OH236345   4.764   2.191   3.585
12135TIP3    H136346   4.725   2.254   3.524
12135TIP3    H236347   4.807   2.127   3.528
12136TIP3   OH236348   7.935   0.839   4.189
12136TIP3    H136349   7.948   0.788   4.109
12136TIP3    H236350   7.861   0.897   4.169
12137TIP3   OH236351   1.952   6.022   2.477
12137TIP3    H136352   1.908   6.076   2.411
12137TIP3    H236353   1.913   6.049   2.560
12138TIP3   OH236354   6.950   5.426   2.434
12138TIP3    H136355   6.854   5.432   2.436
12138TIP3    H236356   6.978   5.514   2.410
12139TIP3   OH236357   6.463   0.464   1.778
12139TIP3    H136358   6.442   0.388   1.832
12139TIP3    H236359   6.379   0.493   1.743
12140TIP3   OH236360   3.371   7.137   6.595
12140TIP3    H136361   3.455   7.121   6.551
12140TIP3    H236362   3.357   7.231   6.583
12141TIP3   OH236363   7.092   6.327   1.753
12141TIP3    H136364   7.027   6.322   1.824
12141TIP3    H236365   7.155   6.258   1.774
12142TIP3   OH236366   2.389   4.136   5.802
12142TIP3    H136367   2.340   4.059   5.833
12142TIP3    H236368   2.474   4.101   5.774
12143TIP3   OH236369   0.440   7.548   4.915
12143TIP3    H136370   0.510   7.602   4.877
12143TIP3    H236371   0.370   7.551   4.850
12144TIP3   OH236372   2.341   0.822   1.430
12144TIP3    H136373   2.266   0.838   1.372
12144TIP3    H236374   2.332   0.889   1.499
12145TIP3   OH236375   4.262   2.141   1.367
12145TIP3    H136376   4.277   2.159   1.460
12145TIP3    H236377   4.349   2.132   1.330
12146TIP3   OH236378   0.083   7.429   4.429
12146TIP3    H136379   0.041   7.452   4.346
12146TIP3    H236380   0.012   7.391   4.481
12147TIP3   OH236381   4.474   4.614   4.315
12147TIP3    H136382   4.563   4.622   4.349
12147TIP3    H236383   4.453   4.521   4.322
12148TIP3   OH236384   6.164   7.166   1.928
12148TIP3    H136385   6.197   7.077   1.928
12148TIP3    H236386   6.072   7.158   1.905
12149TIP3   OH236387   6.593   4.539   3.524
12149TIP3    H136388   6.561   4.453   3.497
12149TIP3    H236389   6.575   4.543   3.618
12150TIP3   OH236390   7.230   1.008   6.624
12150TIP3    H136391   7.288   1.049   6.688
12150TIP3    H236392   7.278   1.011   6.542
12151TIP3   OH236393   4.988   5.804   1.579
12151TIP3    H136394   4.913   5.745   1.582
12151TIP3    H236395   4.958   5.884   1.621
12152TIP3   OH236396   8.068   2.133   0.233
12152TIP3    H136397   8.083   2.208   0.175
12152TIP3    H236398   8.148   2.081   0.227
12153TIP3   OH236399   5.673   0.686   2.389
12153TIP3    H136400   5.697   0.770   2.351
12153TIP3    H236401   5.613   0.647   2.326
12154TIP3   OH236402   0.153   7.017   0.615
12154TIP3    H136403   0.098   7.092   0.595
12154TIP3    H236404   0.094   6.954   0.657
12155TIP3   OH236405   5.531   6.297   4.056
12155TIP3    H136406   5.515   6.391   4.055
12155TIP3    H236407   5.548   6.274   3.965
12156TIP3   OH236408   7.562   0.195   4.858
12156TIP3    H136409   7.582   0.156   4.943
12156TIP3    H236410   7.630   0.261   4.844
12157TIP3   OH236411   7.343   6.640   5.406
12157TIP3    H136412   7.385   6.560   5.437
12157TIP3    H236413   7.379   6.653   5.318
12158TIP3   OH236414   8.255   3.041   4.260
12158TIP3    H136415   8.190   2.970   4.255
12158TIP3    H236416   8.339   2.996   4.264
12159TIP3   OH236417   3.269   7.452   6.149
12159TIP3    H136418   3.347   7.421   6.103
12159TIP3    H236419   3.264   7.545   6.128
12160TIP3   OH236420   3.960   5.457   4.515
12160TIP3    H136421   3.943   5.550   4.499
12160TIP3    H236422   3.893   5.411   4.464
12161TIP3   OH236423   0.975   2.131   6.489
12161TIP3    H136424   0.936   2.102   6.406
12161TIP3    H236425   0.981   2.226   6.479
12162TIP3   OH236426   8.378   1.656   6.188
12162TIP3    H136427   8.333   1.601   6.124
12162TIP3    H236428   8.471   1.641   6.171
12163TIP3   OH236429   5.855   0.876   3.401
12163TIP3    H136430   5.948   0.861   3.418
12163TIP3    H236431   5.852   0.964   3.365
12164TIP3   OH236432   2.512   7.411   5.725
12164TIP3    H136433   2.501   7.450   5.638
12164TIP3    H236434   2.607   7.409   5.738
12165TIP3   OH236435   2.762   4.119   0.401
12165TIP3    H136436   2.796   4.132   0.312
12165TIP3    H236437   2.667   4.122   0.391
12166TIP3   OH236438   3.340   5.696   1.391
12166TIP3    H136439   3.294   5.756   1.332
12166TIP3    H236440   3.342   5.613   1.344
12167TIP3   OH236441   1.273   2.756   3.437
12167TIP3    H136442   1.262   2.759   3.532
12167TIP3    H236443   1.187   2.781   3.402
12168TIP3   OH236444   0.202   1.199   2.486
12168TIP3    H136445   0.193   1.105   2.467
12168TIP3    H236446   0.173   1.242   2.406
12169TIP3   OH236447   5.498   7.813   6.468
12169TIP3    H136448   5.509   7.762   6.549
12169TIP3    H236449   5.423   7.772   6.424
12170TIP3   OH236450   1.883   0.479   3.848
12170TIP3    H136451   1.821   0.535   3.801
12170TIP3    H236452   1.945   0.539   3.888
12171TIP3   OH236453   0.444   4.924   6.261
12171TIP3    H136454   0.389   4.998   6.286
12171TIP3    H236455   0.507   4.916   6.333
12172TIP3   OH236456   3.737   2.747   6.476
12172TIP3    H136457   3.775   2.659   6.471
12172TIP3    H236458   3.658   2.742   6.423
12173TIP3   OH236459   7.643   7.313   4.527
12173TIP3    H136460   7.586   7.237   4.533
12173TIP3    H236461   7.585   7.386   4.505
12174TIP3   OH236462   5.525   3.740   2.293
12174TIP3    H136463   5.560   3.800   2.227
12174TIP3    H236464   5.566   3.770   2.375
12175TIP3   OH236465   4.080   1.303   2.401
12175TIP3    H136466   4.154   1.247   2.379
12175TIP3    H236467   4.004   1.260   2.360
12176TIP3   OH236468   1.933   5.728   4.960
12176TIP3    H136469   1.951   5.769   5.045
12176TIP3    H236470   1.993   5.654   4.956
12177TIP3   OH236471   4.300   4.196   2.256
12177TIP3    H136472   4.239   4.172   2.325
12177TIP3    H236473   4.320   4.288   2.273
12178TIP3   OH236474   6.816   1.759   2.672
12178TIP3    H136475   6.751   1.705   2.628
12178TIP3    H236476   6.879   1.697   2.707
12179TIP3   OH236477   1.837   3.143   1.375
12179TIP3    H136478   1.839   3.101   1.461
12179TIP3    H236479   1.746   3.137   1.347
12180TIP3   OH236480   0.813   7.345   2.287
12180TIP3    H136481   0.744   7.398   2.326
12180TIP3    H236482   0.818   7.374   2.196
12181TIP3   OH236483   0.919   5.263   4.271
12181TIP3    H136484   0.921   5.230   4.181
12181TIP3    H236485   0.864   5.341   4.266
12182TIP3   OH236486   2.829   7.134   0.399
12182TIP3    H136487   2.859   7.054   0.442
12182TIP3    H236488   2.829   7.200   0.469
12183TIP3   OH236489   4.710   1.311   2.432
12183TIP3    H136490   4.757   1.360   2.499
12183TIP3    H236491   4.643   1.372   2.400
12184TIP3   OH236492   7.012   5.328   2.943
12184TIP3    H136493   6.952   5.380   2.995
12184TIP3    H236494   6.962   5.305   2.864
12185TIP3   OH236495   2.078   7.618   6.596
12185TIP3    H136496   2.096   7.538   6.547
12185TIP3    H236497   2.049   7.587   6.682
12186TIP3   OH236498   4.300   7.506   2.169
12186TIP3    H136499   4.277   7.424   2.124
12186TIP3    H236500   4.370   7.544   2.116
12187TIP3   OH236501   7.271   7.097   2.476
12187TIP3    H136502   7.206   7.120   2.409
12187TIP3    H236503   7.252   7.156   2.549
12188TIP3   OH236504   1.805   0.453   1.637
12188TIP3    H136505   1.872   0.386   1.625
12188TIP3    H236506   1.730   0.406   1.675
12189TIP3   OH236507   4.027   3.454   5.635
12189TIP3    H136508   4.053   3.425   5.722
12189TIP3    H236509   4.037   3.549   5.637
12190TIP3   OH236510   6.543   7.703   2.036
12190TIP3    H136511   6.492   7.703   2.117
12190TIP3    H236512   6.572   7.612   2.027
12191TIP3   OH236513   4.974   1.297   0.754
12191TIP3    H136514   4.984   1.386   0.721
12191TIP3    H236515   5.056   1.281   0.802
12192TIP3   OH236516   3.377   4.214   5.586
12192TIP3    H136517   3.370   4.197   5.680
12192TIP3    H236518   3.287   4.221   5.556
12193TIP3   OH236519   6.125   3.897   6.003
12193TIP3    H136520   6.162   3.818   6.042
12193TIP3    H236521   6.192   3.964   6.016
12194TIP3   OH236522   4.110   6.029   2.381
12194TIP3    H136523   4.026   6.067   2.406
12194TIP3    H236524   4.157   6.018   2.463
12195TIP3   OH236525   4.717   0.753   4.981
12195TIP3    H136526   4.755   0.808   4.913
12195TIP3    H236527   4.760   0.668   4.971
12196TIP3   OH236528   4.138   7.757   0.291
12196TIP3    H136529   4.087   7.835   0.272
12196TIP3    H236530   4.208   7.758   0.226
12197TIP3   OH236531   5.844   4.669   4.788
12197TIP3    H136532   5.849   4.726   4.864
12197TIP3    H236533   5.761   4.622   4.797
12198TIP3   OH236534   3.800   4.627   3.861
12198TIP3    H136535   3.871   4.683   3.833
12198TIP3    H236536   3.761   4.594   3.780
12199TIP3   OH236537   0.532   7.246   4.806
12199TIP3    H136538   0.608   7.305   4.812
12199TIP3    H236539   0.570   7.158   4.807
12200TIP3   OH236540   8.275   2.440   3.297
12200TIP3    H136541   8.195   2.387   3.290
12200TIP3    H236542   8.307   2.445   3.207
12201TIP3   OH236543   8.182   7.145   4.275
12201TIP3    H136544   8.110   7.122   4.217
12201TIP3    H236545   8.219   7.061   4.303
12202TIP3   OH236546   4.556   5.039   4.544
12202TIP3    H136547   4.591   4.955   4.517
12202TIP3    H236548   4.485   5.057   4.482
12203TIP3   OH236549   0.119   5.770   5.207
12203TIP3    H136550   0.151   5.760   5.297
12203TIP3    H236551   0.088   5.860   5.202
12204TIP3   OH236552   4.877   5.706   2.880
12204TIP3    H136553   4.830   5.639   2.830
12204TIP3    H236554   4.871   5.677   2.971
12205TIP3   OH236555   4.937   3.209   3.553
12205TIP3    H136556   4.910   3.217   3.462
12205TIP3    H236557   4.961   3.117   3.562
12206TIP3   OH236558   3.035   5.345   3.789
12206TIP3    H136559   3.080   5.305   3.864
12206TIP3    H236560   3.093   5.416   3.762
12207TIP3   OH236561   6.438   1.044   6.567
12207TIP3    H136562   6.498   1.029   6.493
12207TIP3    H236563   6.393   0.960   6.579
12208TIP3   OH236564   5.813   4.743   2.075
12208TIP3    H136565   5.883   4.767   2.015
12208TIP3    H236566   5.801   4.820   2.131
12209TIP3   OH236567   3.773   3.016   4.553
12209TIP3    H136568   3.744   2.945   4.611
12209TIP3    H236569   3.859   2.988   4.522
12210TIP3   OH236570   3.581   3.202   3.314
12210TIP3    H136571   3.601   3.137   3.381
12210TIP3    H236572   3.640   3.275   3.333
12211TIP3   OH236573   2.391   3.009   1.758
12211TIP3    H136574   2.420   2.951   1.688
12211TIP3    H236575   2.308   3.046   1.727
12212TIP3   OH236576   2.779   1.954   2.165
12212TIP3    H136577   2.762   1.976   2.256
12212TIP3    H236578   2.706   1.992   2.117
12213TIP3   OH236579   0.308   5.340   5.543
12213TIP3    H136580   0.395   5.352   5.582
12213TIP3    H236581   0.282   5.252   5.570
12214TIP3   OH236582   6.015   0.695   6.588
12214TIP3    H136583   5.941   0.635   6.592
12214TIP3    H236584   5.997   0.761   6.656
12215TIP3   OH236585   1.077   3.374   6.165
12215TIP3    H136586   1.022   3.318   6.110
12215TIP3    H236587   1.061   3.343   6.254
12216TIP3   OH236588   7.074   7.776   3.221
12216TIP3    H136589   7.031   7.819   3.147
12216TIP3    H236590   7.166   7.803   3.214
12217TIP3   OH236591   2.292   3.038   6.623
12217TIP3    H136592   2.379   3.037   6.582
12217TIP3    H236593   2.244   2.968   6.578
12218TIP3   OH236594   2.171   5.004   6.713
12218TIP3    H136595   2.084   5.017   6.677
12218TIP3    H236596   2.157   4.960   6.797
12219TIP3   OH236597   7.229   7.034   4.052
12219TIP3    H136598   7.270   6.949   4.041
12219TIP3    H236599   7.276   7.075   4.124
12220TIP3   OH236600   7.449   5.336   4.055
12220TIP3    H136601   7.479   5.358   4.143
12220TIP3    H236602   7.524   5.292   4.014
12221TIP3   OH236603   0.949   0.286   4.041
12221TIP3    H136604   0.882   0.225   4.009
12221TIP3    H236605   1.014   0.288   3.971
12222TIP3   OH236606   1.227   3.648   2.421
12222TIP3    H136607   1.193   3.700   2.348
12222TIP3    H236608   1.288   3.586   2.381
12223TIP3   OH236609   1.473   2.328   1.937
12223TIP3    H136610   1.402   2.389   1.918
12223TIP3    H236611   1.473   2.320   2.032
12224TIP3   OH236612   5.762   6.809   2.233
12224TIP3    H136613   5.733   6.823   2.143
12224TIP3    H236614   5.824   6.736   2.227
12225TIP3   OH236615   3.126   1.814   4.160
12225TIP3    H136616   3.103   1.863   4.238
12225TIP3    H236617   3.218   1.836   4.144
12226TIP3   OH236618   0.112   7.451   1.078
12226TIP3    H136619   0.163   7.371   1.064
12226TIP3    H236620   0.044   7.425   1.141
12227TIP3   OH236621   5.413   4.857   1.426
12227TIP3    H136622   5.373   4.907   1.355
12227TIP3    H236623   5.397   4.765   1.403
12228TIP3   OH236624   7.099   5.442   5.836
12228TIP3    H136625   7.128   5.461   5.747
12228TIP3    H236626   7.179   5.440   5.888
12229TIP3   OH236627   8.200   2.714   3.293
12229TIP3    H136628   8.274   2.763   3.330
12229TIP3    H236629   8.233   2.625   3.283
12230TIP3   OH236630   3.143   4.075   6.288
12230TIP3    H136631   3.203   4.009   6.252
12230TIP3    H236632   3.093   4.105   6.212
12231TIP3   OH236633   0.684   1.688   3.798
12231TIP3    H136634   0.754   1.681   3.863
12231TIP3    H236635   0.623   1.619   3.820
12232TIP3   OH236636   6.826   4.854   1.612
12232TIP3    H136637   6.828   4.884   1.521
12232TIP3    H236638   6.875   4.773   1.611
12233TIP3   OH236639   5.699   2.593   3.920
12233TIP3    H136640   5.617   2.574   3.875
12233TIP3    H236641   5.720   2.512   3.967
12234TIP3   OH236642   3.806   7.657   1.838
12234TIP3    H136643   3.792   7.593   1.769
12234TIP3    H236644   3.863   7.613   1.901
12235TIP3   OH236645   6.070   6.825   4.441
12235TIP3    H136646   6.124   6.757   4.401
12235TIP3    H236647   6.028   6.781   4.515
12236TIP3   OH236648   8.148   1.423   5.012
12236TIP3    H136649   8.115   1.475   4.939
12236TIP3    H236650   8.108   1.337   5.000
12237TIP3   OH236651   2.893   6.782   6.098
12237TIP3    H136652   2.985   6.769   6.121
12237TIP3    H236653   2.895   6.820   6.010
12238TIP3   OH236654   7.235   0.517   5.705
12238TIP3    H136655   7.271   0.588   5.652
12238TIP3    H236656   7.156   0.553   5.744
12239TIP3   OH236657   6.398   1.030   3.202
12239TIP3    H136658   6.414   0.972   3.277
12239TIP3    H236659   6.396   1.118   3.240
12240TIP3   OH236660   3.681   2.528   6.209
12240TIP3    H136661   3.721   2.525   6.295
12240TIP3    H236662   3.627   2.449   6.206
12241TIP3   OH236663   3.557   6.945   1.444
12241TIP3    H136664   3.483   6.967   1.389
12241TIP3    H236665   3.523   6.950   1.534
12242TIP3   OH236666   1.461   2.050   0.883
12242TIP3    H136667   1.400   1.976   0.884
12242TIP3    H236668   1.415   2.118   0.833
12243TIP3   OH236669   4.268   2.972   5.392
12243TIP3    H136670   4.208   3.014   5.330
12243TIP3    H236671   4.211   2.923   5.451
12244TIP3   OH236672   7.171   0.116   1.760
12244TIP3    H136673   7.084   0.096   1.794
12244TIP3    H236674   7.205   0.031   1.730
12245TIP3   OH236675   7.974   1.907   6.032
12245TIP3    H136676   8.053   1.878   6.078
12245TIP3    H236677   7.915   1.935   6.102
12246TIP3   OH236678   4.946   5.800   4.849
12246TIP3    H136679   4.922   5.871   4.908
12246TIP3    H236680   5.041   5.809   4.838
12247TIP3   OH236681   2.609   3.049   4.309
12247TIP3    H136682   2.642   3.057   4.398
12247TIP3    H236683   2.686   3.024   4.257
12248TIP3   OH236684   2.766   0.573   2.211
12248TIP3    H136685   2.856   0.583   2.179
12248TIP3    H236686   2.726   0.511   2.150
12249TIP3   OH236687   6.004   0.572   3.967
12249TIP3    H136688   6.033   0.490   3.926
12249TIP3    H236689   6.072   0.592   4.031
12250TIP3   OH236690   3.782   2.987   4.072
12250TIP3    H136691   3.873   2.966   4.090
12250TIP3    H236692   3.785   3.043   3.994
12251TIP3   OH236693   4.329   2.150   5.883
12251TIP3    H136694   4.330   2.057   5.907
12251TIP3    H236695   4.415   2.165   5.844
12252TIP3   OH236696   2.940   5.319   0.101
12252TIP3    H136697   3.017   5.336   0.047
12252TIP3    H236698   2.871   5.299   0.038
12253TIP3   OH236699   3.036   6.165   1.793
12253TIP3    H136700   3.084   6.182   1.711
12253TIP3    H236701   2.978   6.093   1.772
12254TIP3   OH236702   5.911   7.928   3.899
12254TIP3    H136703   6.004   7.919   3.877
12254TIP3    H236704   5.893   7.854   3.956
12255TIP3   OH236705   3.216   4.171   6.727
12255TIP3    H136706   3.306   4.165   6.692
12255TIP3    H236707   3.188   4.080   6.738
12256TIP3   OH236708   1.185   6.843   4.145
12256TIP3    H136709   1.213   6.763   4.100
12256TIP3    H236710   1.126   6.886   4.084
12257TIP3   OH236711   7.100   1.845   4.982
12257TIP3    H136712   7.138   1.872   5.065
12257TIP3    H236713   7.053   1.764   5.002
12258TIP3   OH236714   7.001   5.904   5.216
12258TIP3    H136715   6.984   5.814   5.246
12258TIP3    H236716   6.961   5.908   5.129
12259TIP3   OH236717   4.509   3.081   1.950
12259TIP3    H136718   4.494   3.164   1.996
12259TIP3    H236719   4.521   3.017   2.020
12260TIP3   OH236720   4.633   0.072   2.646
12260TIP3    H136721   4.619   0.163   2.619
12260TIP3    H236722   4.567   0.056   2.713
12261TIP3   OH236723   3.004   5.104   2.791
12261TIP3    H136724   3.091   5.142   2.799
12261TIP3    H236725   2.957   5.164   2.732
12262TIP3   OH236726   7.620   5.356   0.415
12262TIP3    H136727   7.583   5.443   0.422
12262TIP3    H236728   7.655   5.352   0.326
12263TIP3   OH236729   5.687   4.907   1.526
12263TIP3    H136730   5.623   4.937   1.462
12263TIP3    H236731   5.661   4.818   1.547
12264TIP3   OH236732   2.170   1.658   5.144
12264TIP3    H136733   2.112   1.721   5.101
12264TIP3    H236734   2.138   1.572   5.115
12265TIP3   OH236735   4.173   6.380   4.633
12265TIP3    H136736   4.197   6.392   4.541
12265TIP3    H236737   4.217   6.299   4.659
12266TIP3   OH236738   4.108   6.228   1.239
12266TIP3    H136739   4.135   6.179   1.317
12266TIP3    H236740   4.189   6.265   1.205
12267TIP3   OH236741   5.023   5.682   5.567
12267TIP3    H136742   5.042   5.765   5.611
12267TIP3    H236743   4.936   5.694   5.529
12268TIP3   OH236744   2.006   2.232   0.268
12268TIP3    H136745   2.099   2.226   0.290
12268TIP3    H236746   1.965   2.267   0.347
12269TIP3   OH236747   6.732   5.872   5.869
12269TIP3    H136748   6.743   5.944   5.807
12269TIP3    H236749   6.648   5.833   5.845
12270TIP3   OH236750   6.039   6.818   0.526
12270TIP3    H136751   6.045   6.759   0.602
12270TIP3    H236752   6.110   6.881   0.539
12271TIP3   OH236753   4.520   6.485   6.495
12271TIP3    H136754   4.576   6.444   6.560
12271TIP3    H236755   4.457   6.536   6.546
12272TIP3   OH236756   6.501   2.302   3.068
12272TIP3    H136757   6.439   2.375   3.079
12272TIP3    H236758   6.567   2.317   3.135
12273TIP3   OH236759   7.612   4.687   0.826
12273TIP3    H136760   7.559   4.704   0.748
12273TIP3    H236761   7.702   4.684   0.794
12274TIP3   OH236762   5.136   6.622   5.929
12274TIP3    H136763   5.152   6.575   5.847
12274TIP3    H236764   5.095   6.558   5.987
12275TIP3   OH236765   6.029   4.638   6.477
12275TIP3    H136766   6.000   4.613   6.565
12275TIP3    H236767   6.093   4.570   6.453
12276TIP3   OH236768   2.960   5.643   1.405
12276TIP3    H136769   2.894   5.574   1.408
12276TIP3    H236770   3.042   5.598   1.388
12277TIP3   OH236771   3.986   7.295   4.453
12277TIP3    H136772   3.974   7.361   4.385
12277TIP3    H236773   4.078   7.271   4.447
12278TIP3   OH236774   6.799   0.142   2.429
12278TIP3    H136775   6.818   0.231   2.460
12278TIP3    H236776   6.865   0.087   2.470
12279TIP3   OH236777   2.924   4.664   4.446
12279TIP3    H136778   2.851   4.722   4.469
12279TIP3    H236779   2.997   4.697   4.499
12280TIP3   OH236780   5.924   7.563   3.737
12280TIP3    H136781   5.921   7.498   3.808
12280TIP3    H236782   5.836   7.562   3.700
12281TIP3   OH236783   5.023   7.234   4.493
12281TIP3    H136784   5.060   7.248   4.580
12281TIP3    H236785   5.003   7.322   4.461
12282TIP3   OH236786   7.221   3.664   4.144
12282TIP3    H136787   7.165   3.676   4.221
12282TIP3    H236788   7.234   3.753   4.110
12283TIP3   OH236789   3.424   5.445   1.237
12283TIP3    H136790   3.456   5.358   1.217
12283TIP3    H236791   3.496   5.504   1.215
12284TIP3   OH236792  -0.007   4.564   2.498
12284TIP3    H136793   0.075   4.594   2.537
12284TIP3    H236794  -0.068   4.637   2.512
12285TIP3   OH236795   6.210   6.900   4.738
12285TIP3    H136796   6.272   6.852   4.684
12285TIP3    H236797   6.241   6.887   4.828
12286TIP3   OH236798   0.696   0.604   1.374
12286TIP3    H136799   0.729   0.671   1.314
12286TIP3    H236800   0.748   0.526   1.352
12287TIP3   OH236801   2.508   3.207   6.534
12287TIP3    H136802   2.574   3.265   6.497
12287TIP3    H236803   2.537   3.190   6.623
12288TIP3   OH236804   2.938   0.547   4.330
12288TIP3    H136805   2.886   0.559   4.410
12288TIP3    H236806   2.878   0.570   4.259
12289TIP3   OH236807   3.166   5.239   4.912
12289TIP3    H136808   3.136   5.149   4.926
12289TIP3    H236809   3.259   5.236   4.934
12290TIP3   OH236810   2.323   5.486   2.244
12290TIP3    H136811   2.334   5.459   2.153
12290TIP3    H236812   2.390   5.438   2.292
12291TIP3   OH236813   0.193   5.321   3.732
12291TIP3    H136814   0.118   5.354   3.781
12291TIP3    H236815   0.179   5.353   3.642
12292TIP3   OH236816   0.664   6.535   4.871
12292TIP3    H136817   0.744   6.582   4.845
12292TIP3    H236818   0.598   6.604   4.877
12293TIP3   OH236819   3.747   3.853   3.623
12293TIP3    H136820   3.810   3.882   3.557
12293TIP3    H236821   3.722   3.933   3.669
12294TIP3   OH236822   7.023   3.646   0.411
12294TIP3    H136823   7.048   3.565   0.365
12294TIP3    H236824   6.928   3.640   0.420
12295TIP3   OH236825   1.200   5.077   3.453
12295TIP3    H136826   1.133   5.008   3.449
12295TIP3    H236827   1.191   5.124   3.370
12296TIP3   OH236828   5.525   1.635   4.697
12296TIP3    H136829   5.441   1.593   4.679
12296TIP3    H236830   5.545   1.685   4.618
12297TIP3   OH236831   5.541   6.643   4.581
12297TIP3    H136832   5.545   6.568   4.640
12297TIP3    H236833   5.529   6.605   4.494
12298TIP3   OH236834   2.779   1.241   0.847
12298TIP3    H136835   2.867   1.244   0.885
12298TIP3    H236836   2.762   1.148   0.834
12299TIP3   OH236837   2.630   1.176   0.134
12299TIP3    H136838   2.629   1.125   0.053
12299TIP3    H236839   2.583   1.256   0.112
12300TIP3   OH236840   2.183   0.440   5.686
12300TIP3    H136841   2.104   0.411   5.733
12300TIP3    H236842   2.241   0.473   5.754
12301TIP3   OH236843   8.179   5.598   0.428
12301TIP3    H136844   8.246   5.544   0.385
12301TIP3    H236845   8.097   5.574   0.385
12302TIP3   OH236846   1.754   2.134   5.943
12302TIP3    H136847   1.799   2.219   5.947
12302TIP3    H236848   1.790   2.085   6.017
12303TIP3   OH236849   0.024   0.542   3.925
12303TIP3    H136850   0.064   0.481   3.987
12303TIP3    H236851  -0.001   0.487   3.850
12304TIP3   OH236852   6.943   7.334   5.140
12304TIP3    H136853   7.014   7.372   5.192
12304TIP3    H236854   6.968   7.243   5.128
12305TIP3   OH236855   0.144   6.953   4.528
12305TIP3    H136856   0.211   6.949   4.596
12305TIP3    H236857   0.163   7.033   4.479
12306TIP3   OH236858   2.134   0.517   6.699
12306TIP3    H136859   2.197   0.445   6.689
12306TIP3    H236860   2.064   0.496   6.638
12307TIP3   OH236861   0.343   7.585   3.698
12307TIP3    H136862   0.380   7.515   3.644
12307TIP3    H236863   0.271   7.543   3.745
12308TIP3   OH236864   4.703   3.232   6.688
12308TIP3    H136865   4.709   3.233   6.592
12308TIP3    H236866   4.626   3.179   6.707
12309TIP3   OH236867   1.012   4.448   5.653
12309TIP3    H136868   1.098   4.476   5.683
12309TIP3    H236869   1.028   4.410   5.567
12310TIP3   OH236870   4.942   3.518   2.300
12310TIP3    H136871   4.883   3.568   2.244
12310TIP3    H236872   4.982   3.454   2.241
12311TIP3   OH236873   4.603   4.139   5.733
12311TIP3    H136874   4.670   4.157   5.799
12311TIP3    H236875   4.593   4.222   5.685
12312TIP3   OH236876   2.290   7.467   1.130
12312TIP3    H136877   2.254   7.459   1.042
12312TIP3    H236878   2.264   7.386   1.174
12313TIP3   OH236879   8.263   4.685   4.981
12313TIP3    H136880   8.332   4.751   4.968
12313TIP3    H236881   8.284   4.646   5.066
12314TIP3   OH236882   0.368   1.651   1.594
12314TIP3    H136883   0.385   1.742   1.620
12314TIP3    H236884   0.335   1.609   1.674
12315TIP3   OH236885   6.458   1.828   4.677
12315TIP3    H136886   6.444   1.748   4.627
12315TIP3    H236887   6.533   1.870   4.634
12316TIP3   OH236888   2.375   7.111   4.424
12316TIP3    H136889   2.329   7.049   4.480
12316TIP3    H236890   2.315   7.186   4.417
12317TIP3   OH236891   6.559   1.759   0.231
12317TIP3    H136892   6.537   1.693   0.165
12317TIP3    H236893   6.655   1.763   0.230
12318TIP3   OH236894   0.059   6.811   6.172
12318TIP3    H136895   0.023   6.883   6.224
12318TIP3    H236896   0.136   6.782   6.221
12319TIP3   OH236897   7.906   6.249   1.886
12319TIP3    H136898   7.934   6.339   1.900
12319TIP3    H236899   7.908   6.209   1.973
12320TIP3   OH236900   6.950   2.236   2.066
12320TIP3    H136901   6.962   2.163   2.127
12320TIP3    H236902   6.888   2.295   2.111
12321TIP3   OH236903   1.149   5.027   4.319
12321TIP3    H136904   1.072   5.030   4.375
12321TIP3    H236905   1.117   4.991   4.236
12322TIP3   OH236906   1.064   0.273   0.432
12322TIP3    H136907   1.117   0.334   0.381
12322TIP3    H236908   1.126   0.206   0.461
12323TIP3   OH236909   4.652   5.513   0.198
12323TIP3    H136910   4.623   5.510   0.289
12323TIP3    H236911   4.638   5.604   0.172
12324TIP3   OH236912   0.221   1.456   0.907
12324TIP3    H136913   0.316   1.470   0.910
12324TIP3    H236914   0.210   1.368   0.872
12325TIP3   OH236915   5.779   6.935   6.177
12325TIP3    H136916   5.699   6.882   6.182
12325TIP3    H236917   5.850   6.871   6.177
12326TIP3   OH236918   3.296   5.939   1.885
12326TIP3    H136919   3.255   5.973   1.806
12326TIP3    H236920   3.223   5.923   1.945
12327TIP3   OH236921   1.329   1.732   1.767
12327TIP3    H136922   1.325   1.820   1.730
12327TIP3    H236923   1.380   1.681   1.704
12328TIP3   OH236924   4.902   3.337   5.085
12328TIP3    H136925   4.827   3.277   5.089
12328TIP3    H236926   4.961   3.295   5.022
12329TIP3   OH236927   1.152   1.486   1.079
12329TIP3    H136928   1.149   1.405   1.129
12329TIP3    H236929   1.154   1.458   0.987
12330TIP3   OH236930   8.379   7.351   4.750
12330TIP3    H136931   8.457   7.295   4.753
12330TIP3    H236932   8.329   7.320   4.675
12331TIP3   OH236933   6.470   2.002   4.980
12331TIP3    H136934   6.397   1.940   4.981
12331TIP3    H236935   6.545   1.950   5.007
12332TIP3   OH236936   4.387   1.266   3.009
12332TIP3    H136937   4.438   1.347   3.002
12332TIP3    H236938   4.300   1.290   2.978
12333TIP3   OH236939   1.150   3.601   1.294
12333TIP3    H136940   1.190   3.531   1.243
12333TIP3    H236941   1.086   3.556   1.349
12334TIP3   OH236942   1.899   1.305   1.705
12334TIP3    H136943   1.976   1.347   1.667
12334TIP3    H236944   1.933   1.255   1.780
12335TIP3   OH236945   3.039   0.268   6.069
12335TIP3    H136946   3.065   0.280   5.977
12335TIP3    H236947   3.073   0.182   6.092
12336TIP3   OH236948   8.403   6.059   3.176
12336TIP3    H136949   8.316   6.056   3.216
12336TIP3    H236950   8.386   6.057   3.082
12337TIP3   OH236951   5.876   0.815   5.434
12337TIP3    H136952   5.857   0.907   5.450
12337TIP3    H236953   5.805   0.785   5.378
12338TIP3   OH236954   6.378   5.295   4.365
12338TIP3    H136955   6.286   5.274   4.378
12338TIP3    H236956   6.412   5.312   4.453
12339TIP3   OH236957   1.114   0.943   3.896
12339TIP3    H136958   1.141   0.859   3.858
12339TIP3    H236959   1.144   1.008   3.833
12340TIP3   OH236960   5.411   7.268   1.950
12340TIP3    H136961   5.438   7.256   1.859
12340TIP3    H236962   5.321   7.300   1.944
12341TIP3   OH236963   3.097   7.536   3.594
12341TIP3    H136964   3.125   7.627   3.599
12341TIP3    H236965   3.001   7.540   3.595
12342TIP3   OH236966   0.525   6.992   0.089
12342TIP3    H136967   0.511   6.936   0.165
12342TIP3    H236968   0.517   7.082   0.123
12343TIP3   OH236969   2.942   4.198   6.069
12343TIP3    H136970   2.858   4.226   6.031
12343TIP3    H236971   3.005   4.264   6.041
12344TIP3   OH236972   1.240   0.679   0.325
12344TIP3    H136973   1.302   0.743   0.290
12344TIP3    H236974   1.199   0.640   0.248
12345TIP3   OH236975   7.103   6.096   6.352
12345TIP3    H136976   7.194   6.085   6.327
12345TIP3    H236977   7.097   6.058   6.440
12346TIP3   OH236978   7.593   3.384   1.828
12346TIP3    H136979   7.676   3.337   1.825
12346TIP3    H236980   7.535   3.328   1.880
12347TIP3   OH236981   5.994   1.033   5.815
12347TIP3    H136982   5.920   1.092   5.800
12347TIP3    H236983   6.071   1.088   5.811
12348TIP3   OH236984   6.139   3.346   2.487
12348TIP3    H136985   6.166   3.438   2.496
12348TIP3    H236986   6.044   3.350   2.481
12349TIP3   OH236987   4.300   4.373   4.502
12349TIP3    H136988   4.310   4.371   4.407
12349TIP3    H236989   4.222   4.320   4.519
12350TIP3   OH236990   7.804   1.712   1.729
12350TIP3    H136991   7.846   1.757   1.802
12350TIP3    H236992   7.800   1.778   1.660
12351TIP3   OH236993   3.267   3.940   5.332
12351TIP3    H136994   3.300   3.927   5.421
12351TIP3    H236995   3.172   3.943   5.341
12352TIP3   OH236996   6.678   0.555   3.898
12352TIP3    H136997   6.675   0.470   3.853
12352TIP3    H236998   6.691   0.532   3.990
12353TIP3   OH236999   3.173   7.300   2.583
12353TIP3    H137000   3.237   7.288   2.654
12353TIP3    H237001   3.227   7.309   2.504
12354TIP3   OH237002   0.677   3.327   1.183
12354TIP3    H137003   0.617   3.389   1.225
12354TIP3    H237004   0.619   3.264   1.140
12355TIP3   OH237005   1.663   2.246   0.237
12355TIP3    H137006   1.598   2.302   0.280
12355TIP3    H237007   1.742   2.257   0.290
12356TIP3   OH237008   2.506   2.874   6.518
12356TIP3    H137009   2.581   2.849   6.464
12356TIP3    H237010   2.520   2.828   6.601
12357TIP3   OH237011   2.433   5.192   6.198
12357TIP3    H137012   2.415   5.099   6.208
12357TIP3    H237013   2.350   5.229   6.167
12358TIP3   OH237014   8.205   3.726   1.294
12358TIP3    H137015   8.225   3.707   1.386
12358TIP3    H237016   8.286   3.762   1.259
12359TIP3   OH237017   5.311   3.946   4.460
12359TIP3    H137018   5.339   3.985   4.543
12359TIP3    H237019   5.315   4.018   4.398
12360TIP3   OH237020   0.363   7.504   4.397
12360TIP3    H137021   0.270   7.482   4.393
12360TIP3    H237022   0.405   7.427   4.434
12361TIP3   OH237023   0.713   4.754   4.446
12361TIP3    H137024   0.791   4.730   4.395
12361TIP3    H237025   0.673   4.825   4.396
12362TIP3   OH237026   7.968   4.234   3.470
12362TIP3    H137027   7.944   4.227   3.377
12362TIP3    H237028   8.044   4.292   3.471
12363TIP3   OH237029   1.782   7.238   4.155
12363TIP3    H137030   1.869   7.210   4.183
12363TIP3    H237031   1.770   7.324   4.197
12364TIP3   OH237032   8.175   0.947   5.824
12364TIP3    H137033   8.134   1.031   5.843
12364TIP3    H237034   8.104   0.883   5.830
12365TIP3   OH237035   1.064   2.330   1.781
12365TIP3    H137036   0.984   2.321   1.729
12365TIP3    H237037   1.071   2.424   1.797
12366TIP3   OH237038   1.670   4.431   3.811
12366TIP3    H137039   1.668   4.386   3.727
12366TIP3    H237040   1.614   4.379   3.868
12367TIP3   OH237041   7.927   3.552   2.471
12367TIP3    H137042   7.997   3.591   2.418
12367TIP3    H237043   7.850   3.552   2.414
12368TIP3   OH237044   2.032   6.332   2.044
12368TIP3    H137045   1.936   6.330   2.045
12368TIP3    H237046   2.058   6.254   2.092
12369TIP3   OH237047   4.019   1.749   6.689
12369TIP3    H137048   4.046   1.755   6.781
12369TIP3    H237049   4.040   1.835   6.652
12370TIP3   OH237050   3.642   6.993   1.027
12370TIP3    H137051   3.654   7.071   1.082
12370TIP3    H237052   3.655   6.920   1.088
12371TIP3   OH237053   8.380   6.025   2.151
12371TIP3    H137054   8.414   6.099   2.101
12371TIP3    H237055   8.298   6.057   2.189
12372TIP3   OH237056   7.393   7.676   5.990
12372TIP3    H137057   7.469   7.732   5.979
12372TIP3    H237058   7.428   7.587   5.987
12373TIP3   OH237059   5.252   6.348   1.703
12373TIP3    H137060   5.169   6.354   1.750
12373TIP3    H237061   5.291   6.435   1.713
12374TIP3   OH237062   2.351   0.229   5.558
12374TIP3    H137063   2.401   0.241   5.638
12374TIP3    H237064   2.263   0.261   5.578
12375TIP3   OH237065   1.396   1.036   0.129
12375TIP3    H137066   1.416   0.943   0.144
12375TIP3    H237067   1.308   1.034   0.090
12376TIP3   OH237068   5.086   5.160   3.415
12376TIP3    H137069   5.179   5.153   3.393
12376TIP3    H237070   5.067   5.079   3.462
12377TIP3   OH237071   7.502   1.980   3.590
12377TIP3    H137072   7.567   2.020   3.532
12377TIP3    H237073   7.551   1.961   3.670
12378TIP3   OH237074   8.086   4.960   0.373
12378TIP3    H137075   8.109   4.997   0.288
12378TIP3    H237076   8.170   4.932   0.410
12379TIP3   OH237077   4.187   5.434   2.406
12379TIP3    H137078   4.179   5.513   2.459
12379TIP3    H237079   4.272   5.397   2.430
12380TIP3   OH237080   2.671   1.236   4.914
12380TIP3    H137081   2.595   1.243   4.972
12380TIP3    H237082   2.636   1.201   4.832
12381TIP3   OH237083   8.221   0.866   4.848
12381TIP3    H137084   8.250   0.957   4.854
12381TIP3    H237085   8.151   0.868   4.783
12382TIP3   OH237086   1.482   1.240   2.987
12382TIP3    H137087   1.556   1.223   2.929
12382TIP3    H237088   1.522   1.276   3.066
12383TIP3   OH237089   5.824   0.405   1.318
12383TIP3    H137090   5.841   0.324   1.269
12383TIP3    H237091   5.856   0.475   1.261
12384TIP3   OH237092   6.629   6.945   1.747
12384TIP3    H137093   6.650   6.993   1.667
12384TIP3    H237094   6.632   7.012   1.816
12385TIP3   OH237095   7.715   6.813   1.215
12385TIP3    H137096   7.633   6.855   1.188
12385TIP3    H237097   7.732   6.847   1.303
12386TIP3   OH237098   8.174   4.875   5.918
12386TIP3    H137099   8.174   4.953   5.863
12386TIP3    H237100   8.256   4.831   5.896
12387TIP3   OH237101   5.471   7.218   4.324
12387TIP3    H137102   5.551   7.178   4.357
12387TIP3    H237103   5.424   7.246   4.403
12388TIP3   OH237104   7.924   3.161   3.568
12388TIP3    H137105   7.976   3.227   3.522
12388TIP3    H237106   7.833   3.182   3.546
12389TIP3   OH237107   7.046   6.181   3.629
12389TIP3    H137108   7.040   6.089   3.603
12389TIP3    H237109   6.959   6.217   3.611
12390TIP3   OH237110   3.423   4.979   6.711
12390TIP3    H137111   3.518   4.965   6.718
12390TIP3    H237112   3.389   4.898   6.673
12391TIP3   OH237113   2.025   0.158   2.121
12391TIP3    H137114   2.078   0.093   2.167
12391TIP3    H237115   2.065   0.242   2.144
12392TIP3   OH237116   7.589   6.830   4.056
12392TIP3    H137117   7.680   6.858   4.051
12392TIP3    H237118   7.569   6.796   3.969
12393TIP3   OH237119   0.486   3.793   5.707
12393TIP3    H137120   0.549   3.728   5.675
12393TIP3    H237121   0.522   3.877   5.680
12394TIP3   OH237122   0.896   4.787   2.685
12394TIP3    H137123   0.960   4.767   2.616
12394TIP3    H237124   0.946   4.836   2.750
12395TIP3   OH237125   1.248   7.309   6.001
12395TIP3    H137126   1.303   7.254   6.058
12395TIP3    H237127   1.167   7.259   5.992
12396TIP3   OH237128   5.751   0.094   5.918
12396TIP3    H137129   5.771   0.161   5.984
12396TIP3    H237130   5.828   0.092   5.862
12397TIP3   OH237131   5.555   7.521   1.916
12397TIP3    H137132   5.503   7.440   1.922
12397TIP3    H237133   5.641   7.496   1.949
12398TIP3   OH237134   5.693   6.753   1.561
12398TIP3    H137135   5.625   6.819   1.546
12398TIP3    H237136   5.767   6.781   1.507
12399TIP3   OH237137   8.331   4.184   4.205
12399TIP3    H137138   8.275   4.162   4.130
12399TIP3    H237139   8.388   4.254   4.172
12400TIP3   OH237140   3.445   7.769   2.708
12400TIP3    H137141   3.351   7.747   2.705
12400TIP3    H237142   3.463   7.782   2.801
12401TIP3   OH237143   7.369   5.014   5.545
12401TIP3    H137144   7.372   5.031   5.451
12401TIP3    H237145   7.456   4.981   5.566
12402TIP3   OH237146   2.675   2.679   2.171
12402TIP3    H137147   2.637   2.637   2.248
12402TIP3    H237148   2.656   2.773   2.184
12403TIP3   OH237149   1.934   1.784   6.020
12403TIP3    H137150   1.841   1.799   6.040
12403TIP3    H237151   1.939   1.790   5.925
12404TIP3   OH237152   3.662   2.616   5.385
12404TIP3    H137153   3.730   2.554   5.355
12404TIP3    H237154   3.598   2.616   5.314
12405TIP3   OH237155   5.524   1.184   0.070
12405TIP3    H137156   5.431   1.187   0.049
12405TIP3    H237157   5.568   1.172  -0.014
12406TIP3   OH237158   2.580   2.947   0.425
12406TIP3    H137159   2.544   3.031   0.395
12406TIP3    H237160   2.673   2.953   0.406
12407TIP3   OH237161   7.503   4.394   4.285
12407TIP3    H137162   7.481   4.484   4.262
12407TIP3    H237163   7.516   4.350   4.202
12408TIP3   OH237164   5.673   0.554   6.790
12408TIP3    H137165   5.637   0.526   6.874
12408TIP3    H237166   5.630   0.498   6.725
12409TIP3   OH237167   4.515   2.028   2.947
12409TIP3    H137168   4.518   2.023   3.043
12409TIP3    H237169   4.582   2.092   2.924
12410TIP3   OH237170   1.247   1.732   4.086
12410TIP3    H137171   1.218   1.789   4.157
12410TIP3    H237172   1.339   1.717   4.104
12411TIP3   OH237173   7.302   7.677   4.311
12411TIP3    H137174   7.397   7.674   4.301
12411TIP3    H237175   7.272   7.593   4.278
12412TIP3   OH237176   0.556   1.427   2.096
12412TIP3    H137177   0.647   1.408   2.119
12412TIP3    H237178   0.541   1.379   2.015
12413TIP3   OH237179   4.525   1.107   4.899
12413TIP3    H137180   4.617   1.088   4.915
12413TIP3    H237181   4.485   1.022   4.882
12414TIP3   OH237182   0.438   1.999   4.460
12414TIP3    H137183   0.382   2.075   4.445
12414TIP3    H237184   0.428   1.981   4.554
12415TIP3   OH237185   0.380   6.154   1.245
12415TIP3    H137186   0.296   6.147   1.199
12415TIP3    H237187   0.419   6.234   1.210
12416TIP3   OH237188   0.349   6.380   4.816
12416TIP3    H137189   0.335   6.439   4.743
12416TIP3    H237190   0.395   6.432   4.881
12417TIP3   OH237191   4.397   3.790   1.809
12417TIP3    H137192   4.376   3.698   1.823
12417TIP3    H237193   4.475   3.806   1.863
12418TIP3   OH237194   6.194   0.066   1.004
12418TIP3    H137195   6.189   0.007   1.079
12418TIP3    H237196   6.118   0.043   0.950
12419TIP3   OH237197   6.449   0.484   6.038
12419TIP3    H137198   6.450   0.483   5.942
12419TIP3    H237199   6.530   0.529   6.063
12420TIP3   OH237200   3.605   2.431   1.594
12420TIP3    H137201   3.594   2.372   1.669
12420TIP3    H237202   3.521   2.476   1.586
12421TIP3   OH237203   7.757   4.095   6.648
12421TIP3    H137204   7.815   4.092   6.724
12421TIP3    H237205   7.683   4.149   6.677
12422TIP3   OH237206   3.471   1.858   1.470
12422TIP3    H137207   3.399   1.879   1.529
12422TIP3    H237208   3.524   1.794   1.518
12423TIP3   OH237209   3.750   3.511   0.679
12423TIP3    H137210   3.842   3.527   0.700
12423TIP3    H237211   3.702   3.577   0.729
12424TIP3   OH237212   8.096   0.281   3.639
12424TIP3    H137213   8.027   0.311   3.580
12424TIP3    H237214   8.129   0.201   3.599
12425TIP3   OH237215   0.736   6.335   2.384
12425TIP3    H137216   0.718   6.301   2.296
12425TIP3    H237217   0.657   6.384   2.408
12426TIP3   OH237218   7.544   1.954   1.640
12426TIP3    H137219   7.507   1.882   1.590
12426TIP3    H237220   7.637   1.955   1.616
12427TIP3   OH237221   5.123   4.510   2.277
12427TIP3    H137222   5.170   4.442   2.229
12427TIP3    H237223   5.031   4.489   2.264
12428TIP3   OH237224   2.610   4.788   2.526
12428TIP3    H137225   2.599   4.744   2.442
12428TIP3    H237226   2.574   4.727   2.591
12429TIP3   OH237227   5.829   3.591   0.802
12429TIP3    H137228   5.744   3.634   0.787
12429TIP3    H237229   5.855   3.619   0.890
12430TIP3   OH237230   3.175   0.199   1.078
12430TIP3    H137231   3.182   0.231   0.989
12430TIP3    H237232   3.125   0.267   1.124
12431TIP3   OH237233   2.170   2.087   2.589
12431TIP3    H137234   2.108   2.126   2.527
12431TIP3    H237235   2.115   2.032   2.646
12432TIP3   OH237236   2.317   5.991   4.040
12432TIP3    H137237   2.367   5.988   4.122
12432TIP3    H237238   2.383   5.990   3.971
12433TIP3   OH237239   4.040   1.344   5.522
12433TIP3    H137240   3.947   1.320   5.526
12433TIP3    H237241   4.084   1.277   5.574
12434TIP3   OH237242   7.779   6.952   0.324
12434TIP3    H137243   7.699   6.941   0.376
12434TIP3    H237244   7.850   6.934   0.386
12435TIP3   OH237245   2.516   7.204   3.866
12435TIP3    H137246   2.543   7.122   3.908
12435TIP3    H237247   2.426   7.188   3.839
12436TIP3   OH237248   4.641   3.995   0.566
12436TIP3    H137249   4.579   4.031   0.503
12436TIP3    H237250   4.595   4.000   0.650
12437TIP3   OH237251   1.220   6.221   6.351
12437TIP3    H137252   1.296   6.239   6.295
12437TIP3    H237253   1.218   6.294   6.413
12438TIP3   OH237254   8.022   3.344   1.254
12438TIP3    H137255   8.020   3.293   1.172
12438TIP3    H237256   7.957   3.301   1.310
12439TIP3   OH237257   2.375   3.880   5.238
12439TIP3    H137258   2.470   3.881   5.253
12439TIP3    H237259   2.340   3.823   5.306
12440TIP3   OH237260   5.691   5.251   6.385
12440TIP3    H137261   5.783   5.266   6.409
12440TIP3    H237262   5.684   5.282   6.295
12441TIP3   OH237263   3.787   2.499   4.634
12441TIP3    H137264   3.752   2.424   4.586
12441TIP3    H237265   3.846   2.461   4.699
12442TIP3   OH237266   7.758   6.192   3.689
12442TIP3    H137267   7.839   6.180   3.738
12442TIP3    H237268   7.776   6.265   3.631
12443TIP3   OH237269   4.323   4.083   5.485
12443TIP3    H137270   4.320   4.142   5.560
12443TIP3    H237271   4.279   4.131   5.415
12444TIP3   OH237272   6.750   6.737   6.266
12444TIP3    H137273   6.794   6.734   6.351
12444TIP3    H237274   6.657   6.744   6.287
12445TIP3   OH237275   6.598   1.612   2.587
12445TIP3    H137276   6.584   1.531   2.538
12445TIP3    H237277   6.540   1.676   2.546
12446TIP3   OH237278   1.391   4.665   3.088
12446TIP3    H137279   1.324   4.642   3.024
12446TIP3    H237280   1.459   4.598   3.077
12447TIP3   OH237281   7.063   7.145   6.181
12447TIP3    H137282   7.060   7.201   6.259
12447TIP3    H237283   7.129   7.185   6.125
12448TIP3   OH237284   6.129   4.447   5.001
12448TIP3    H137285   6.041   4.435   5.037
12448TIP3    H237286   6.138   4.542   4.991
12449TIP3   OH237287   1.940   3.623   3.855
12449TIP3    H137288   1.995   3.546   3.837
12449TIP3    H237289   1.852   3.588   3.867
12450TIP3   OH237290   5.770   7.063   5.415
12450TIP3    H137291   5.852   7.108   5.397
12450TIP3    H237292   5.734   7.043   5.328
12451TIP3   OH237293   3.294   2.805   6.050
12451TIP3    H137294   3.303   2.720   6.092
12451TIP3    H237295   3.334   2.793   5.963
12452TIP3   OH237296   7.081   5.762   6.238
12452TIP3    H137297   7.144   5.832   6.224
12452TIP3    H237298   7.006   5.787   6.184
12453TIP3   OH237299   0.047   0.907   3.192
12453TIP3    H137300  -0.045   0.928   3.209
12453TIP3    H237301   0.045   0.818   3.156
12454TIP3   OH237302   0.659   4.783   1.565
12454TIP3    H137303   0.677   4.692   1.590
12454TIP3    H237304   0.621   4.822   1.644
12455TIP3   OH237305   7.056   6.003   2.529
12455TIP3    H137306   6.991   6.071   2.545
12455TIP3    H237307   7.139   6.041   2.558
12456TIP3   OH237308   6.980   0.295   5.670
12456TIP3    H137309   7.023   0.308   5.586
12456TIP3    H237310   7.024   0.218   5.708
12457TIP3   OH237311   6.000   3.934   0.684
12457TIP3    H137312   5.992   4.022   0.646
12457TIP3    H237313   5.911   3.899   0.682
12458TIP3   OH237314   8.173   6.009   5.358
12458TIP3    H137315   8.177   5.914   5.370
12458TIP3    H237316   8.095   6.024   5.305
12459TIP3   OH237317   1.685   4.762   0.068
12459TIP3    H137318   1.755   4.806   0.021
12459TIP3    H237319   1.633   4.834   0.106
12460TIP3   OH237320   7.455   7.003   3.716
12460TIP3    H137321   7.400   7.014   3.639
12460TIP3    H237322   7.405   6.947   3.774
12461TIP3   OH237323   0.138   1.608   4.945
12461TIP3    H137324   0.158   1.701   4.942
12461TIP3    H237325   0.127   1.582   4.854
12462TIP3   OH237326   4.227   7.439   6.392
12462TIP3    H137327   4.175   7.370   6.434
12462TIP3    H237328   4.166   7.483   6.333
12463TIP3   OH237329   7.775   5.029   6.042
12463TIP3    H137330   7.725   4.962   5.995
12463TIP3    H237331   7.728   5.042   6.124
12464TIP3   OH237332   5.854   6.691   6.434
12464TIP3    H137333   5.827   6.606   6.468
12464TIP3    H237334   5.872   6.744   6.511
12465TIP3   OH237335   1.003   0.068   4.268
12465TIP3    H137336   0.916   0.050   4.231
12465TIP3    H237337   0.993   0.151   4.313
12466TIP3   OH237338   3.415   5.136   2.446
12466TIP3    H137339   3.407   5.115   2.353
12466TIP3    H237340   3.502   5.175   2.454
12467TIP3   OH237341   4.234   4.230   0.193
12467TIP3    H137342   4.162   4.195   0.247
12467TIP3    H237343   4.242   4.168   0.121
12468TIP3   OH237344   1.507   0.994   4.736
12468TIP3    H137345   1.424   0.954   4.709
12468TIP3    H237346   1.566   0.978   4.663
12469TIP3   OH237347   1.219   5.510   1.913
12469TIP3    H137348   1.183   5.482   1.829
12469TIP3    H237349   1.224   5.430   1.965
12470TIP3   OH237350   0.536   0.685   0.581
12470TIP3    H137351   0.572   0.597   0.592
12470TIP3    H237352   0.453   0.672   0.535
12471TIP3   OH237353   5.121   6.327   3.083
12471TIP3    H137354   5.038   6.319   3.131
12471TIP3    H237355   5.098   6.307   2.992
12472TIP3   OH237356   6.661   5.184   0.350
12472TIP3    H137357   6.584   5.229   0.314
12472TIP3    H237358   6.730   5.250   0.347
12473TIP3   OH237359   2.643   2.473   4.595
12473TIP3    H137360   2.554   2.491   4.623
12473TIP3    H237361   2.648   2.508   4.506
12474TIP3   OH237362   2.396   6.490   3.749
12474TIP3    H137363   2.310   6.480   3.788
12474TIP3    H237364   2.407   6.585   3.737
12475TIP3   OH237365   0.531   3.522   3.938
12475TIP3    H137366   0.480   3.498   4.016
12475TIP3    H237367   0.574   3.604   3.962
12476TIP3   OH237368   6.003   4.420   4.131
12476TIP3    H137369   5.943   4.474   4.184
12476TIP3    H237370   5.951   4.344   4.107
12477TIP3   OH237371   3.330   1.444   5.347
12477TIP3    H137372   3.261   1.498   5.308
12477TIP3    H237373   3.371   1.501   5.413
12478TIP3   OH237374   3.827   0.735   4.347
12478TIP3    H137375   3.915   0.700   4.356
12478TIP3    H237376   3.779   0.668   4.297
12479TIP3   OH237377   3.434   0.269   1.264
12479TIP3    H137378   3.501   0.237   1.324
12479TIP3    H237379   3.460   0.358   1.243
12480TIP3   OH237380   4.367   3.863   5.096
12480TIP3    H137381   4.377   3.953   5.064
12480TIP3    H237382   4.441   3.816   5.058
12481TIP3   OH237383   3.752   0.771   3.554
12481TIP3    H137384   3.846   0.772   3.568
12481TIP3    H237385   3.734   0.850   3.503
12482TIP3   OH237386   3.599   0.777   3.778
12482TIP3    H137387   3.660   0.814   3.842
12482TIP3    H237388   3.634   0.803   3.693
12483TIP3   OH237389   2.124   1.744   1.356
12483TIP3    H137390   2.035   1.759   1.386
12483TIP3    H237391   2.121   1.760   1.261
12484TIP3   OH237392   1.995   6.145   5.370
12484TIP3    H137393   1.901   6.151   5.388
12484TIP3    H237394   2.028   6.234   5.386
12485TIP3   OH237395   2.083   3.041   2.854
12485TIP3    H137396   2.061   2.996   2.773
12485TIP3    H237397   2.012   3.104   2.867
12486TIP3   OH237398   0.673   2.797   0.643
12486TIP3    H137399   0.751   2.743   0.661
12486TIP3    H237400   0.615   2.781   0.717
12487TIP3   OH237401   4.144   3.991   4.899
12487TIP3    H137402   4.107   3.905   4.880
12487TIP3    H237403   4.234   3.987   4.865
12488TIP3   OH237404   3.176   0.117   6.701
12488TIP3    H137405   3.181   0.023   6.684
12488TIP3    H237406   3.174   0.124   6.797
12489TIP3   OH237407   3.943   4.965   6.755
12489TIP3    H137408   3.940   5.058   6.734
12489TIP3    H237409   3.907   4.958   6.843
12490TIP3   OH237410   0.401   5.970   5.653
12490TIP3    H137411   0.327   5.978   5.713
12490TIP3    H237412   0.365   5.997   5.568
12491TIP3   OH237413   8.295   0.407   2.758
12491TIP3    H137414   8.209   0.366   2.763
12491TIP3    H237415   8.354   0.336   2.730
12492TIP3   OH237416   2.440   3.152   2.656
12492TIP3    H137417   2.373   3.207   2.699
12492TIP3    H237418   2.518   3.163   2.711
12493TIP3   OH237419   6.788   1.565   0.796
12493TIP3    H137420   6.785   1.551   0.702
12493TIP3    H237421   6.798   1.660   0.806
12494TIP3   OH237422   3.948   4.110   1.165
12494TIP3    H137423   3.902   4.079   1.087
12494TIP3    H237424   3.994   4.189   1.136
12495TIP3   OH237425   6.147   2.660   0.682
12495TIP3    H137426   6.094   2.583   0.663
12495TIP3    H237427   6.215   2.659   0.615
12496TIP3   OH237428   7.510   6.373   2.635
12496TIP3    H137429   7.524   6.397   2.543
12496TIP3    H237430   7.475   6.453   2.675
12497TIP3   OH237431   7.584   6.890   4.359
12497TIP3    H137432   7.601   6.798   4.377
12497TIP3    H237433   7.607   6.901   4.267
12498TIP3   OH237434   5.739   5.708   2.415
12498TIP3    H137435   5.799   5.709   2.489
12498TIP3    H237436   5.760   5.788   2.366
12499TIP3   OH237437   7.965   7.419   4.961
12499TIP3    H137438   7.956   7.495   4.904
12499TIP3    H237439   8.059   7.409   4.974
12500TIP3   OH237440   4.510   4.189   2.889
12500TIP3    H137441   4.431   4.161   2.842
12500TIP3    H237442   4.582   4.166   2.831
12501TIP3   OH237443   3.273   0.577   0.125
12501TIP3    H137444   3.235   0.504   0.173
12501TIP3    H237445   3.229   0.654   0.159
12502TIP3   OH237446   5.547   5.167   2.723
12502TIP3    H137447   5.589   5.081   2.727
12502TIP3    H237448   5.515   5.182   2.812
12503TIP3   OH237449   7.873   0.047   5.498
12503TIP3    H137450   7.897  -0.045   5.490
12503TIP3    H237451   7.789   0.054   5.453
12504TIP3   OH237452   6.116   4.234   0.319
12504TIP3    H137453   6.082   4.164   0.263
12504TIP3    H237454   6.048   4.301   0.317
12505TIP3   OH237455   6.718   7.458   1.306
12505TIP3    H137456   6.704   7.472   1.213
12505TIP3    H237457   6.771   7.378   1.311
12506TIP3   OH237458   2.598   3.910   5.966
12506TIP3    H137459   2.624   4.002   5.961
12506TIP3    H237460   2.530   3.907   6.033
12507TIP3   OH237461   3.243   4.276   2.144
12507TIP3    H137462   3.239   4.193   2.098
12507TIP3    H237463   3.223   4.342   2.078
12508TIP3   OH237464   3.191   1.112   3.437
12508TIP3    H137465   3.235   1.195   3.422
12508TIP3    H237466   3.175   1.078   3.349
12509TIP3   OH237467   0.638   5.378   0.679
12509TIP3    H137468   0.595   5.418   0.604
12509TIP3    H237469   0.602   5.424   0.755
12510TIP3   OH237470   3.437   2.136   4.353
12510TIP3    H137471   3.343   2.148   4.345
12510TIP3    H237472   3.455   2.053   4.309
12511TIP3   OH237473   2.301   7.843   6.146
12511TIP3    H137474   2.345   7.834   6.230
12511TIP3    H237475   2.233   7.908   6.161
12512TIP3   OH237476   4.306   2.974   1.431
12512TIP3    H137477   4.304   2.888   1.390
12512TIP3    H237478   4.354   3.030   1.370
12513TIP3   OH237479   7.329   4.649   6.426
12513TIP3    H137480   7.350   4.698   6.346
12513TIP3    H237481   7.259   4.590   6.400
12514TIP3   OH237482   1.975   5.501   0.378
12514TIP3    H137483   1.989   5.440   0.305
12514TIP3    H237484   2.047   5.564   0.371
12515TIP3   OH237485   6.330   2.876   0.258
12515TIP3    H137486   6.361   2.840   0.341
12515TIP3    H237487   6.395   2.847   0.194
12516TIP3   OH237488   3.957   1.982   6.275
12516TIP3    H137489   3.918   1.898   6.299
12516TIP3    H237490   4.001   2.012   6.355
12517TIP3   OH237491   0.670   3.856   6.587
12517TIP3    H137492   0.667   3.871   6.492
12517TIP3    H237493   0.583   3.820   6.608
12518TIP3   OH237494   7.355   0.046   6.642
12518TIP3    H137495   7.327   0.013   6.728
12518TIP3    H237496   7.432   0.099   6.661
12519TIP3   OH237497   1.433   2.689   6.485
12519TIP3    H137498   1.504   2.744   6.452
12519TIP3    H237499   1.466   2.652   6.566
12520TIP3   OH237500   1.363   0.297   5.079
12520TIP3    H137501   1.277   0.264   5.103
12520TIP3    H237502   1.359   0.391   5.100
12521TIP3   OH237503   8.336   6.974   4.055
12521TIP3    H137504   8.293   7.059   4.046
12521TIP3    H237505   8.334   6.936   3.967
12522TIP3   OH237506   6.441   2.472   4.856
12522TIP3    H137507   6.352   2.483   4.821
12522TIP3    H237508   6.460   2.379   4.843
12523TIP3   OH237509   3.217   2.529   1.827
12523TIP3    H137510   3.158   2.458   1.804
12523TIP3    H237511   3.213   2.589   1.752
12524TIP3   OH237512   4.169   0.808   4.403
12524TIP3    H137513   4.145   0.727   4.357
12524TIP3    H237514   4.144   0.792   4.494
12525TIP3   OH237515   5.118   3.140   4.462
12525TIP3    H137516   5.192   3.169   4.515
12525TIP3    H237517   5.041   3.168   4.512
12526TIP3   OH237518   2.651   3.523   6.075
12526TIP3    H137519   2.737   3.509   6.114
12526TIP3    H237520   2.599   3.562   6.146
12527TIP3   OH237521   3.573   3.494   1.931
12527TIP3    H137522   3.557   3.406   1.965
12527TIP3    H237523   3.648   3.484   1.873
12528TIP3   OH237524   3.566   4.955   3.686
12528TIP3    H137525   3.645   4.948   3.740
12528TIP3    H237526   3.574   4.885   3.621
12529TIP3   OH237527   4.419   2.052   0.750
12529TIP3    H137528   4.364   2.073   0.674
12529TIP3    H237529   4.482   1.989   0.717
12530TIP3   OH237530   4.659   7.122   2.476
12530TIP3    H137531   4.635   7.201   2.524
12530TIP3    H237532   4.754   7.123   2.472
12531TIP3   OH237533   2.293   0.151   6.861
12531TIP3    H137534   2.203   0.172   6.886
12531TIP3    H237535   2.321   0.225   6.807
12532TIP3   OH237536   7.018   7.842   4.079
12532TIP3    H137537   7.067   7.906   4.028
12532TIP3    H237538   7.071   7.762   4.073
12533TIP3   OH237539   3.784   5.380   5.251
12533TIP3    H137540   3.740   5.375   5.167
12533TIP3    H237541   3.814   5.290   5.268
12534TIP3   OH237542   5.202   1.231   4.231
12534TIP3    H137543   5.182   1.162   4.168
12534TIP3    H237544   5.251   1.296   4.181
12535TIP3   OH237545   1.402   1.434   4.062
12535TIP3    H137546   1.405   1.338   4.067
12535TIP3    H237547   1.488   1.459   4.029
12536TIP3   OH237548   2.950   6.877   6.687
12536TIP3    H137549   2.881   6.817   6.659
12536TIP3    H237550   2.903   6.959   6.706
12537TIP3   OH237551   7.406   3.577   0.864
12537TIP3    H137552   7.479   3.600   0.805
12537TIP3    H237553   7.445   3.579   0.951
12538TIP3   OH237554   7.413   1.156   5.094
12538TIP3    H137555   7.493   1.194   5.130
12538TIP3    H237556   7.343   1.212   5.128
12539TIP3   OH237557   0.283   5.678   6.752
12539TIP3    H137558   0.301   5.769   6.777
12539TIP3    H237559   0.188   5.675   6.740
12540TIP3   OH237560   4.480   3.235   4.780
12540TIP3    H137561   4.451   3.252   4.869
12540TIP3    H237562   4.554   3.294   4.767
12541TIP3   OH237563   1.904   2.808   3.779
12541TIP3    H137564   1.927   2.735   3.836
12541TIP3    H237565   1.832   2.851   3.824
12542TIP3   OH237566   8.128   5.593   1.950
12542TIP3    H137567   8.209   5.554   1.981
12542TIP3    H237568   8.154   5.680   1.920
12543TIP3   OH237569   5.844   4.783   6.120
12543TIP3    H137570   5.853   4.689   6.138
12543TIP3    H237571   5.926   4.806   6.076
12544TIP3   OH237572   0.604   0.683   1.769
12544TIP3    H137573   0.530   0.715   1.717
12544TIP3    H237574   0.666   0.756   1.771
12545TIP3   OH237575   5.098   6.092   1.000
12545TIP3    H137576   5.050   6.011   0.985
12545TIP3    H237577   5.030   6.157   1.022
12546TIP3   OH237578   2.211   2.524   4.264
12546TIP3    H137579   2.248   2.608   4.293
12546TIP3    H237580   2.171   2.488   4.343
12547TIP3   OH237581   0.688   6.517   1.508
12547TIP3    H137582   0.603   6.554   1.528
12547TIP3    H237583   0.727   6.578   1.445
12548TIP3   OH237584   1.966   3.420   2.329
12548TIP3    H137585   2.004   3.504   2.355
12548TIP3    H237586   1.987   3.361   2.401
12549TIP3   OH237587   1.991   6.071   3.813
12549TIP3    H137588   1.956   6.112   3.892
12549TIP3    H237589   2.075   6.035   3.839
12550TIP3   OH237590   7.558   1.513   0.984
12550TIP3    H137591   7.566   1.454   1.059
12550TIP3    H237592   7.628   1.577   0.997
12551TIP3   OH237593   4.847   2.983   4.220
12551TIP3    H137594   4.908   2.935   4.275
12551TIP3    H237595   4.901   3.049   4.176
12552TIP3   OH237596   3.113   5.343   4.541
12552TIP3    H137597   3.052   5.270   4.555
12552TIP3    H237598   3.093   5.404   4.612
12553TIP3   OH237599   4.231   0.958   6.535
12553TIP3    H137600   4.139   0.983   6.530
12553TIP3    H237601   4.257   0.943   6.444
12554TIP3   OH237602   1.631   3.593   6.438
12554TIP3    H137603   1.568   3.527   6.469
12554TIP3    H237604   1.632   3.582   6.343
12555TIP3   OH237605   7.382   3.576   0.167
12555TIP3    H137606   7.372   3.497   0.114
12555TIP3    H237607   7.353   3.550   0.255
12556TIP3   OH237608   7.542   7.493   3.091
12556TIP3    H137609   7.489   7.542   3.028
12556TIP3    H237610   7.613   7.456   3.038
12557TIP3   OH237611   8.065   5.721   6.089
12557TIP3    H137612   8.038   5.634   6.059
12557TIP3    H237613   8.073   5.773   6.008
12558TIP3   OH237614   7.967   7.274   0.530
12558TIP3    H137615   7.997   7.363   0.550
12558TIP3    H237616   8.018   7.248   0.453
12559TIP3   OH237617   3.908   7.247   5.702
12559TIP3    H137618   3.825   7.225   5.745
12559TIP3    H237619   3.931   7.168   5.653
12560TIP3   OH237620   8.060   1.859   0.614
12560TIP3    H137621   8.051   1.839   0.521
12560TIP3    H237622   8.153   1.879   0.625
12561TIP3   OH237623   6.069   2.464   0.511
12561TIP3    H137624   5.988   2.416   0.524
12561TIP3    H237625   6.092   2.448   0.419
12562TIP3   OH237626   3.007   7.360   5.977
12562TIP3    H137627   3.090   7.353   6.024
12562TIP3    H237628   3.018   7.436   5.920
12563TIP3   OH237629   1.690   4.755   6.107
12563TIP3    H137630   1.739   4.690   6.158
12563TIP3    H237631   1.606   4.763   6.152
12564TIP3   OH237632   1.172   0.575   0.622
12564TIP3    H137633   1.190   0.635   0.550
12564TIP3    H237634   1.250   0.581   0.678
12565TIP3   OH237635   3.899   4.062   0.898
12565TIP3    H137636   3.855   4.032   0.818
12565TIP3    H237637   3.986   4.023   0.895
12566TIP3   OH237638   3.374   3.775   1.539
12566TIP3    H137639   3.393   3.869   1.535
12566TIP3    H237640   3.352   3.760   1.631
12567TIP3   OH237641   4.102   7.717   0.823
12567TIP3    H137642   4.014   7.682   0.812
12567TIP3    H237643   4.094   7.785   0.890
12568TIP3   OH237644   0.912   2.709   5.915
12568TIP3    H137645   0.863   2.629   5.897
12568TIP3    H237646   0.925   2.709   6.009
12569TIP3   OH237647   4.773   2.348   5.881
12569TIP3    H137648   4.701   2.407   5.905
12569TIP3    H237649   4.850   2.405   5.875
12570TIP3   OH237650   8.126   1.175   4.613
12570TIP3    H137651   8.083   1.122   4.681
12570TIP3    H237652   8.217   1.148   4.615
12571TIP3   OH237653   7.517   7.386   2.523
12571TIP3    H137654   7.426   7.408   2.540
12571TIP3    H237655   7.561   7.397   2.608
12572TIP3   OH237656   0.469   0.478   3.557
12572TIP3    H137657   0.383   0.469   3.599
12572TIP3    H237658   0.497   0.566   3.580
12573TIP3   OH237659   3.059   5.393   2.198
12573TIP3    H137660   3.083   5.340   2.273
12573TIP3    H237661   3.104   5.353   2.124
12574TIP3   OH237662   1.829   5.266   1.386
12574TIP3    H137663   1.870   5.215   1.317
12574TIP3    H237664   1.765   5.321   1.341
12575TIP3   OH237665   4.947   1.215   5.265
12575TIP3    H137666   5.023   1.202   5.208
12575TIP3    H237667   4.927   1.308   5.255
12576TIP3   OH237668   7.567   5.641   5.795
12576TIP3    H137669   7.546   5.605   5.708
12576TIP3    H237670   7.490   5.692   5.819
12577TIP3   OH237671   1.249   4.296   4.219
12577TIP3    H137672   1.284   4.216   4.259
12577TIP3    H237673   1.326   4.343   4.188
12578TIP3   OH237674   1.428   4.548   4.060
12578TIP3    H137675   1.465   4.468   4.098
12578TIP3    H237676   1.501   4.609   4.058
12579TIP3   OH237677   2.718   5.157   1.173
12579TIP3    H137678   2.702   5.127   1.263
12579TIP3    H237679   2.632   5.154   1.131
12580TIP3   OH237680   7.562   0.181   6.793
12580TIP3    H137681   7.636   0.130   6.826
12580TIP3    H237682   7.523   0.221   6.870
12581TIP3   OH237683   4.996   7.425   5.485
12581TIP3    H137684   5.046   7.481   5.544
12581TIP3    H237685   5.057   7.356   5.460
12582TIP3   OH237686   2.857   1.455   0.684
12582TIP3    H137687   2.943   1.477   0.649
12582TIP3    H237688   2.865   1.363   0.710
12583TIP3   OH237689   0.456   1.781   0.634
12583TIP3    H137690   0.527   1.743   0.685
12583TIP3    H237691   0.498   1.846   0.579
12584TIP3   OH237692   3.889   7.006   0.373
12584TIP3    H137693   3.952   6.935   0.383
12584TIP3    H237694   3.839   6.982   0.294
12585TIP3   OH237695   2.600   6.411   4.762
12585TIP3    H137696   2.689   6.396   4.730
12585TIP3    H237697   2.548   6.426   4.683
12586TIP3   OH237698   2.443   5.566   4.726
12586TIP3    H137699   2.471   5.510   4.799
12586TIP3    H237700   2.388   5.509   4.672
12587TIP3   OH237701   6.022   6.571   3.205
12587TIP3    H137702   5.991   6.659   3.184
12587TIP3    H237703   5.962   6.541   3.273
12588TIP3   OH237704   1.971   4.904   5.789
12588TIP3    H137705   2.039   4.881   5.852
12588TIP3    H237706   1.902   4.945   5.842
12589TIP3   OH237707   5.376   3.001   1.316
12589TIP3    H137708   5.292   2.966   1.347
12589TIP3    H237709   5.368   3.096   1.329
12590TIP3   OH237710   5.755   1.826   5.866
12590TIP3    H137711   5.747   1.859   5.956
12590TIP3    H237712   5.665   1.824   5.834
12591TIP3   OH237713   3.407   0.944   3.213
12591TIP3    H137714   3.423   0.898   3.130
12591TIP3    H237715   3.333   1.001   3.195
12592TIP3   OH237716   5.867   5.908   6.288
12592TIP3    H137717   5.820   5.925   6.207
12592TIP3    H237718   5.959   5.900   6.261
12593TIP3   OH237719   3.287   0.107   6.447
12593TIP3    H137720   3.207   0.079   6.403
12593TIP3    H237721   3.257   0.147   6.528
12594TIP3   OH237722   6.980   3.100   6.593
12594TIP3    H137723   6.937   3.170   6.544
12594TIP3    H237724   7.073   3.114   6.578
12595TIP3   OH237725   5.513   6.426   2.907
12595TIP3    H137726   5.545   6.351   2.956
12595TIP3    H237727   5.525   6.500   2.967
12596TIP3   OH237728   6.637   5.685   3.716
12596TIP3    H137729   6.586   5.762   3.742
12596TIP3    H237730   6.650   5.637   3.797
12597TIP3   OH237731   2.676   2.565   6.608
12597TIP3    H137732   2.652   2.495   6.547
12597TIP3    H237733   2.651   2.531   6.694
12598TIP3   OH237734   4.057   4.183   3.086
12598TIP3    H137735   4.028   4.274   3.079
12598TIP3    H237736   3.979   4.134   3.110
12599TIP3   OH237737   6.537   2.919   4.020
12599TIP3    H137738   6.488   2.934   3.940
12599TIP3    H237739   6.629   2.924   3.994
12600TIP3   OH237740   0.577   7.347   5.892
12600TIP3    H137741   0.516   7.298   5.837
12600TIP3    H237742   0.663   7.329   5.854
12601TIP3   OH237743   8.007   6.729   6.150
12601TIP3    H137744   8.074   6.750   6.085
12601TIP3    H237745   8.034   6.775   6.229
12602TIP3   OH237746  -0.013   4.458   4.333
12602TIP3    H137747   0.068   4.486   4.375
12602TIP3    H237748   0.009   4.450   4.240
12603TIP3   OH237749   4.858   2.609   4.066
12603TIP3    H137750   4.872   2.622   4.160
12603TIP3    H237751   4.856   2.514   4.055
12604TIP3   OH237752   3.100   4.862   2.743
12604TIP3    H137753   3.035   4.824   2.802
12604TIP3    H237754   3.071   4.953   2.731
12605TIP3   OH237755   4.276   1.850   0.151
12605TIP3    H137756   4.283   1.933   0.105
12605TIP3    H237757   4.283   1.784   0.082
12606TIP3   OH237758   0.803   4.843   4.879
12606TIP3    H137759   0.757   4.851   4.963
12606TIP3    H237760   0.875   4.906   4.885
12607TIP3   OH237761   3.491   0.979   4.624
12607TIP3    H137762   3.433   1.048   4.590
12607TIP3    H237763   3.550   0.960   4.551
12608TIP3   OH237764   8.309   6.739   0.420
12608TIP3    H137765   8.220   6.726   0.387
12608TIP3    H237766   8.322   6.666   0.481
12609TIP3   OH237767   7.804   3.944   1.152
12609TIP3    H137768   7.725   3.893   1.169
12609TIP3    H237769   7.826   3.984   1.236
12610TIP3   OH237770   1.735   4.203   6.566
12610TIP3    H137771   1.673   4.157   6.622
12610TIP3    H237772   1.682   4.235   6.492
12611TIP3   OH237773   2.680   5.803   5.693
12611TIP3    H137774   2.634   5.754   5.625
12611TIP3    H237775   2.651   5.894   5.681
12612TIP3   OH237776   6.886   4.667   3.612
12612TIP3    H137777   6.815   4.622   3.566
12612TIP3    H237778   6.888   4.627   3.699
12613TIP3   OH237779   0.227   4.501   4.473
12613TIP3    H137780   0.315   4.536   4.462
12613TIP3    H237781   0.236   4.435   4.543
12614TIP3   OH237782   6.723   7.572   4.844
12614TIP3    H137783   6.753   7.618   4.765
12614TIP3    H237784   6.752   7.629   4.916
12615TIP3   OH237785   6.948   0.260   4.523
12615TIP3    H137786   6.895   0.180   4.515
12615TIP3    H237787   6.887   0.326   4.556
12616TIP3   OH237788   0.495   7.005   5.451
12616TIP3    H137789   0.571   6.947   5.454
12616TIP3    H237790   0.532   7.093   5.447
12617TIP3   OH237791   7.629   1.949   5.852
12617TIP3    H137792   7.644   1.854   5.845
12617TIP3    H237793   7.560   1.966   5.787
12618TIP3   OH237794   8.319   3.537   5.251
12618TIP3    H137795   8.267   3.457   5.250
12618TIP3    H237796   8.293   3.585   5.173
12619TIP3   OH237797   3.478   3.131   0.411
12619TIP3    H137798   3.572   3.127   0.394
12619TIP3    H237799   3.457   3.045   0.447
12620TIP3   OH237800   2.241   6.120   0.720
12620TIP3    H137801   2.168   6.073   0.680
12620TIP3    H237802   2.257   6.073   0.802
12621TIP3   OH237803   6.726   1.161   3.234
12621TIP3    H137804   6.675   1.090   3.273
12621TIP3    H237805   6.666   1.200   3.170
12622TIP3   OH237806   5.255   6.556   0.622
12622TIP3    H137807   5.229   6.641   0.586
12622TIP3    H237808   5.219   6.492   0.560
12623TIP3   OH237809   0.991   5.566   6.332
12623TIP3    H137810   1.010   5.634   6.267
12623TIP3    H237811   0.905   5.589   6.367
12624TIP3   OH237812   7.247   4.494   5.293
12624TIP3    H137813   7.234   4.407   5.331
12624TIP3    H237814   7.205   4.489   5.207
12625TIP3   OH237815   4.780   0.543   1.552
12625TIP3    H137816   4.868   0.509   1.537
12625TIP3    H237817   4.722   0.468   1.540
12626TIP3   OH237818   7.418   0.795   0.422
12626TIP3    H137819   7.366   0.775   0.499
12626TIP3    H237820   7.365   0.765   0.348
12627TIP3   OH237821   7.081   4.895   0.742
12627TIP3    H137822   7.020   4.851   0.801
12627TIP3    H237823   7.168   4.867   0.772
12628TIP3   OH237824   0.943   5.243   5.911
12628TIP3    H137825   0.874   5.268   5.973
12628TIP3    H237826   1.020   5.290   5.940
12629TIP3   OH237827   4.497   4.737   1.305
12629TIP3    H137828   4.421   4.771   1.258
12629TIP3    H237829   4.539   4.677   1.243
12630TIP3   OH237830   1.169   1.474   5.860
12630TIP3    H137831   1.160   1.389   5.817
12630TIP3    H237832   1.262   1.495   5.852
12631TIP3   OH237833   8.284   3.217   2.056
12631TIP3    H137834   8.231   3.163   1.997
12631TIP3    H237835   8.368   3.227   2.010
12632TIP3   OH237836   1.607   1.699   3.266
12632TIP3    H137837   1.566   1.684   3.181
12632TIP3    H237838   1.543   1.666   3.330
12633TIP3   OH237839   2.031   3.442   6.559
12633TIP3    H137840   1.956   3.387   6.537
12633TIP3    H237841   2.070   3.399   6.636
12634TIP3   OH237842   1.418   0.893   5.916
12634TIP3    H137843   1.470   0.945   5.978
12634TIP3    H237844   1.367   0.834   5.972
12635TIP3   OH237845   2.385   3.476   5.692
12635TIP3    H137846   2.401   3.382   5.694
12635TIP3    H237847   2.306   3.489   5.744
12636TIP3   OH237848   7.078   5.522   0.575
12636TIP3    H137849   7.065   5.530   0.480
12636TIP3    H237850   7.154   5.464   0.583
12637TIP3   OH237851   4.415   4.544   0.351
12637TIP3    H137852   4.375   4.527   0.266
12637TIP3    H237853   4.506   4.568   0.330
12638TIP3   OH237854   6.239   4.069   3.738
12638TIP3    H137855   6.197   4.008   3.677
12638TIP3    H237856   6.330   4.073   3.709
12639TIP3   OH237857   6.175   2.103   2.973
12639TIP3    H137858   6.249   2.087   3.031
12639TIP3    H237859   6.108   2.040   3.001
12640TIP3   OH237860   1.720   5.111   5.132
12640TIP3    H137861   1.762   5.157   5.059
12640TIP3    H237862   1.769   5.029   5.140
12641TIP3   OH237863   4.658   6.222   5.818
12641TIP3    H137864   4.738   6.266   5.846
12641TIP3    H237865   4.687   6.161   5.750
12642TIP3   OH237866   8.149   6.922   3.224
12642TIP3    H137867   8.216   6.864   3.259
12642TIP3    H237868   8.196   6.984   3.169
12643TIP3   OH237869   3.989   1.421   0.226
12643TIP3    H137870   3.982   1.375   0.142
12643TIP3    H237871   3.939   1.367   0.287
12644TIP3   OH237872   1.028   7.450   1.993
12644TIP3    H137873   1.035   7.483   2.082
12644TIP3    H237874   1.099   7.494   1.945
12645TIP3   OH237875   7.886   1.585   0.197
12645TIP3    H137876   7.906   1.518   0.263
12645TIP3    H237877   7.892   1.540   0.113
12646TIP3   OH237878   3.728   5.280   3.493
12646TIP3    H137879   3.709   5.294   3.586
12646TIP3    H237880   3.816   5.241   3.492
12647TIP3   OH237881   5.333   3.822   6.167
12647TIP3    H137882   5.422   3.851   6.146
12647TIP3    H237883   5.315   3.753   6.104
12648TIP3   OH237884   6.152   5.160   2.877
12648TIP3    H137885   6.122   5.072   2.854
12648TIP3    H237886   6.246   5.159   2.857
12649TIP3   OH237887   7.675   1.216   2.394
12649TIP3    H137888   7.759   1.235   2.436
12649TIP3    H237889   7.665   1.284   2.327
12650TIP3   OH237890   7.696   6.129   1.297
12650TIP3    H137891   7.759   6.198   1.275
12650TIP3    H237892   7.748   6.062   1.341
12651TIP3   OH237893   5.846   6.870   0.341
12651TIP3    H137894   5.912   6.838   0.402
12651TIP3    H237895   5.896   6.900   0.265
12652TIP3   OH237896   8.332   1.176   6.402
12652TIP3    H137897   8.341   1.161   6.496
12652TIP3    H237898   8.339   1.089   6.362
12653TIP3   OH237899   0.634   6.671   5.205
12653TIP3    H137900   0.729   6.670   5.215
12653TIP3    H237901   0.602   6.615   5.276
12654TIP3   OH237902   6.005   7.486   1.385
12654TIP3    H137903   5.988   7.443   1.469
12654TIP3    H237904   5.939   7.450   1.326
12655TIP3   OH237905   3.530   7.487   1.879
12655TIP3    H137906   3.588   7.528   1.943
12655TIP3    H237907   3.457   7.454   1.931
12656TIP3   OH237908   6.159   5.502   4.183
12656TIP3    H137909   6.106   5.437   4.230
12656TIP3    H237910   6.125   5.586   4.214
12657TIP3   OH237911   6.159   1.833   0.544
12657TIP3    H137912   6.178   1.906   0.485
12657TIP3    H237913   6.123   1.765   0.487
12658TIP3   OH237914   1.733   1.877   3.009
12658TIP3    H137915   1.718   1.831   2.926
12658TIP3    H237916   1.811   1.836   3.045
12659TIP3   OH237917   4.846   2.700   0.787
12659TIP3    H137918   4.791   2.748   0.849
12659TIP3    H237919   4.794   2.698   0.706
12660TIP3   OH237920   3.232   0.222   4.339
12660TIP3    H137921   3.292   0.182   4.402
12660TIP3    H237922   3.196   0.298   4.384
12661TIP3   OH237923   1.625   2.877   6.670
12661TIP3    H137924   1.620   2.781   6.664
12661TIP3    H237925   1.536   2.907   6.651
12662TIP3   OH237926   2.998   2.292   2.738
12662TIP3    H137927   3.083   2.250   2.745
12662TIP3    H237928   3.009   2.359   2.671
12663TIP3   OH237929   1.959   6.384   1.688
12663TIP3    H137930   2.019   6.311   1.702
12663TIP3    H237931   1.874   6.351   1.717
12664TIP3   OH237932   5.981   5.157   2.458
12664TIP3    H137933   5.979   5.253   2.447
12664TIP3    H237934   5.969   5.144   2.552
12665TIP3   OH237935   7.052   7.243   6.820
12665TIP3    H137936   6.957   7.253   6.823
12665TIP3    H237937   7.076   7.214   6.908
12666TIP3   OH237938   3.280   5.162   3.159
12666TIP3    H137939   3.281   5.185   3.066
12666TIP3    H237940   3.323   5.077   3.162
12667TIP3   OH237941   2.753   6.394   3.296
12667TIP3    H137942   2.722   6.483   3.275
12667TIP3    H237943   2.826   6.379   3.236
12668TIP3   OH237944   0.325   0.830   5.339
12668TIP3    H137945   0.320   0.898   5.406
12668TIP3    H237946   0.418   0.809   5.332
12669TIP3   OH237947   7.433   5.333   3.061
12669TIP3    H137948   7.345   5.303   3.083
12669TIP3    H237949   7.423   5.426   3.045
12670TIP3   OH237950   2.511   6.589   1.887
12670TIP3    H137951   2.429   6.596   1.935
12670TIP3    H237952   2.510   6.501   1.850
12671TIP3   OH237953   0.439   2.383   4.246
12671TIP3    H137954   0.448   2.421   4.159
12671TIP3    H237955   0.480   2.296   4.239
12672TIP3   OH237956   0.050   3.146   6.232
12672TIP3    H137957  -0.006   3.091   6.287
12672TIP3    H237958   0.108   3.084   6.187
12673TIP3   OH237959   0.520   7.788   3.508
12673TIP3    H137960   0.486   7.701   3.489
12673TIP3    H237961   0.539   7.825   3.421
12674TIP3   OH237962   1.214   3.316   2.520
12674TIP3    H137963   1.178   3.389   2.470
12674TIP3    H237964   1.304   3.343   2.541
12675TIP3   OH237965   4.580   1.008   6.548
12675TIP3    H137966   4.567   1.083   6.490
12675TIP3    H237967   4.529   1.028   6.626
12676TIP3   OH237968   8.115   5.753   5.291
12676TIP3    H137969   8.024   5.730   5.272
12676TIP3    H237970   8.156   5.669   5.314
12677TIP3   OH237971   3.433   5.269   4.923
12677TIP3    H137972   3.511   5.218   4.904
12677TIP3    H237973   3.413   5.316   4.842
12678TIP3   OH237974   5.436   3.565   3.829
12678TIP3    H137975   5.387   3.635   3.873
12678TIP3    H237976   5.457   3.503   3.898
12679TIP3   OH237977   4.963   3.184   6.811
12679TIP3    H137978   5.017   3.198   6.733
12679TIP3    H237979   4.873   3.191   6.780
12680TIP3   OH237980   1.115   2.735   4.887
12680TIP3    H137981   1.057   2.725   4.963
12680TIP3    H237982   1.157   2.649   4.877
12681TIP3   OH237983   0.703   1.552   1.691
12681TIP3    H137984   0.647   1.522   1.763
12681TIP3    H237985   0.720   1.644   1.711
12682TIP3   OH237986   2.413   0.278   2.652
12682TIP3    H137987   2.412   0.325   2.736
12682TIP3    H237988   2.326   0.238   2.647
12683TIP3   OH237989   3.342   3.476   3.309
12683TIP3    H137990   3.252   3.469   3.276
12683TIP3    H237991   3.397   3.464   3.231
12684TIP3   OH237992   4.946   5.092   3.923
12684TIP3    H137993   5.031   5.052   3.904
12684TIP3    H237994   4.883   5.020   3.915
12685TIP3   OH237995   7.982   7.810   5.582
12685TIP3    H137996   7.933   7.758   5.518
12685TIP3    H237997   8.046   7.748   5.618
12686TIP3   OH237998   4.326   6.473   3.242
12686TIP3    H137999   4.268   6.546   3.264
12686TIP3    H238000   4.354   6.439   3.327
12687TIP3   OH238001   5.686   2.618   4.301
12687TIP3    H138002   5.730   2.702   4.315
12687TIP3    H238003   5.733   2.557   4.357
12688TIP3   OH238004   3.861   5.592   2.807
12688TIP3    H138005   3.941   5.563   2.764
12688TIP3    H238006   3.887   5.666   2.861
12689TIP3   OH238007   5.709   6.433   3.621
12689TIP3    H138008   5.749   6.465   3.540
12689TIP3    H238009   5.618   6.417   3.598
12690TIP3   OH238010   7.635   1.398   2.201
12690TIP3    H138011   7.712   1.388   2.144
12690TIP3    H238012   7.570   1.442   2.146
12691TIP3   OH238013   0.515   3.513   1.311
12691TIP3    H138014   0.496   3.597   1.268
12691TIP3    H238015   0.495   3.528   1.403
12692TIP3   OH238016   3.760   6.757   3.586
12692TIP3    H138017   3.676   6.795   3.611
12692TIP3    H238018   3.737   6.673   3.546
12693TIP3   OH238019   1.161   0.097   4.000
12693TIP3    H138020   1.129   0.012   3.970
12693TIP3    H238021   1.140   0.099   4.094
12694TIP3   OH238022   0.136   3.325   4.296
12694TIP3    H138023   0.052   3.329   4.342
12694TIP3    H238024   0.132   3.396   4.232
12695TIP3   OH238025   7.671   4.063   5.780
12695TIP3    H138026   7.702   4.148   5.810
12695TIP3    H238027   7.696   4.059   5.688
12696TIP3   OH238028   5.015   4.520   5.475
12696TIP3    H138029   5.052   4.606   5.498
12696TIP3    H238030   4.920   4.533   5.486
12697TIP3   OH238031   2.011   1.375   3.961
12697TIP3    H138032   2.059   1.380   3.879
12697TIP3    H238033   2.070   1.330   4.021
12698TIP3   OH238034   0.286   7.059   5.939
12698TIP3    H138035   0.333   7.131   5.897
12698TIP3    H238036   0.353   7.012   5.989
12699TIP3   OH238037   4.800   5.720   5.396
12699TIP3    H138038   4.729   5.751   5.453
12699TIP3    H238039   4.788   5.769   5.314
12700TIP3   OH238040   3.858   4.491   1.599
12700TIP3    H138041   3.920   4.430   1.639
12700TIP3    H238042   3.789   4.434   1.563
12701TIP3   OH238043   6.444   2.824   6.811
12701TIP3    H138044   6.370   2.784   6.856
12701TIP3    H238045   6.434   2.797   6.720
12702TIP3   OH238046   2.469   4.176   3.767
12702TIP3    H138047   2.477   4.267   3.740
12702TIP3    H238048   2.479   4.126   3.686
12703TIP3   OH238049   1.685   4.221   1.140
12703TIP3    H138050   1.713   4.289   1.080
12703TIP3    H238051   1.692   4.260   1.227
12704TIP3   OH238052   7.727   7.908   2.296
12704TIP3    H138053   7.721   7.951   2.382
12704TIP3    H238054   7.796   7.843   2.307
12705TIP3   OH238055   4.627   2.204   0.882
12705TIP3    H138056   4.561   2.167   0.823
12705TIP3    H238057   4.695   2.238   0.823
12706TIP3   OH238058   4.062   2.955   3.937
12706TIP3    H138059   4.122   2.962   4.011
12706TIP3    H238060   4.062   3.042   3.897
12707TIP3   OH238061   6.857   0.662   4.411
12707TIP3    H138062   6.823   0.739   4.365
12707TIP3    H238063   6.939   0.641   4.367
12708TIP3   OH238064   5.878   7.429   5.593
12708TIP3    H138065   5.973   7.442   5.601
12708TIP3    H238066   5.848   7.417   5.682
12709TIP3   OH238067   4.081   0.839   2.014
12709TIP3    H138068   4.148   0.833   2.082
12709TIP3    H238069   4.086   0.755   1.968
12710TIP3   OH238070   1.713   2.598   0.391
12710TIP3    H138071   1.637   2.567   0.343
12710TIP3    H238072   1.726   2.688   0.359
12711TIP3   OH238073   3.212   6.353   1.632
12711TIP3    H138074   3.154   6.423   1.660
12711TIP3    H238075   3.158   6.299   1.575
12712TIP3   OH238076   1.752   7.796   5.098
12712TIP3    H138077   1.731   7.703   5.096
12712TIP3    H238078   1.785   7.811   5.187
12713TIP3   OH238079   5.587   2.464   2.965
12713TIP3    H138080   5.603   2.534   3.028
12713TIP3    H238081   5.566   2.510   2.883
12714TIP3   OH238082   7.918   2.283   3.478
12714TIP3    H138083   7.959   2.199   3.455
12714TIP3    H238084   7.839   2.258   3.525
12715TIP3   OH238085   2.984   1.707   0.449
12715TIP3    H138086   2.961   1.753   0.368
12715TIP3    H238087   2.970   1.614   0.428
12716TIP3   OH238088   2.905   2.069   0.932
12716TIP3    H138089   2.989   2.029   0.911
12716TIP3    H238090   2.840   2.015   0.886
12717TIP3   OH238091   4.809   4.877   1.813
12717TIP3    H138092   4.875   4.821   1.855
12717TIP3    H238093   4.772   4.821   1.744
12718TIP3   OH238094   6.461   7.272   2.378
12718TIP3    H138095   6.487   7.358   2.410
12718TIP3    H238096   6.467   7.278   2.283
12719TIP3   OH238097   2.409   5.480   0.745
12719TIP3    H138098   2.447   5.402   0.704
12719TIP3    H238099   2.324   5.450   0.778
12720TIP3   OH238100   1.647   0.219   6.411
12720TIP3    H138101   1.668   0.142   6.359
12720TIP3    H238102   1.580   0.189   6.472
12721TIP3   OH238103   8.242   5.679   3.425
12721TIP3    H138104   8.332   5.664   3.394
12721TIP3    H238105   8.212   5.593   3.455
12722TIP3   OH238106   1.782   3.951   6.846
12722TIP3    H138107   1.773   3.905   6.763
12722TIP3    H238108   1.837   3.893   6.899
12723TIP3   OH238109   5.258   7.188   0.452
12723TIP3    H138110   5.206   7.214   0.376
12723TIP3    H238111   5.344   7.166   0.416
12724TIP3   OH238112   0.254   7.082   3.095
12724TIP3    H138113   0.298   6.998   3.107
12724TIP3    H238114   0.206   7.073   3.013
12725TIP3   OH238115   6.310   7.175   4.792
12725TIP3    H138116   6.302   7.096   4.739
12725TIP3    H238117   6.320   7.246   4.727
12726TIP3   OH238118   0.688   1.650   6.518
12726TIP3    H138119   0.596   1.627   6.506
12726TIP3    H238120   0.707   1.712   6.447
12727TIP3   OH238121   3.237   2.141   3.625
12727TIP3    H138122   3.169   2.165   3.687
12727TIP3    H238123   3.299   2.215   3.627
12728TIP3   OH238124   5.135   2.537   1.325
12728TIP3    H138125   5.201   2.469   1.310
12728TIP3    H238126   5.052   2.489   1.324
12729TIP3   OH238127   5.468   7.687   6.142
12729TIP3    H138128   5.496   7.640   6.221
12729TIP3    H238129   5.431   7.769   6.175
12730TIP3   OH238130   2.516   5.536   6.117
12730TIP3    H138131   2.446   5.471   6.108
12730TIP3    H238132   2.554   5.542   6.029
12731TIP3   OH238133   3.753   7.725   5.535
12731TIP3    H138134   3.755   7.633   5.508
12731TIP3    H238135   3.723   7.773   5.457
12732TIP3   OH238136   0.115   0.237   1.088
12732TIP3    H138137   0.038   0.183   1.069
12732TIP3    H238138   0.146   0.266   1.002
12733TIP3   OH238139   8.112   6.398   1.416
12733TIP3    H138140   8.121   6.362   1.504
12733TIP3    H238141   8.184   6.461   1.409
12734TIP3   OH238142   3.429   4.340   4.810
12734TIP3    H138143   3.494   4.289   4.762
12734TIP3    H238144   3.386   4.277   4.868
12735TIP3   OH238145   4.440   4.395   3.842
12735TIP3    H138146   4.413   4.321   3.896
12735TIP3    H238147   4.536   4.387   3.837
12736TIP3   OH238148   6.335   1.186   0.275
12736TIP3    H138149   6.372   1.233   0.199
12736TIP3    H238150   6.286   1.114   0.236
12737TIP3   OH238151   0.412   5.617   3.227
12737TIP3    H138152   0.451   5.692   3.182
12737TIP3    H238153   0.479   5.588   3.288
12738TIP3   OH238154   7.283   7.913   0.656
12738TIP3    H138155   7.232   7.989   0.628
12738TIP3    H238156   7.227   7.838   0.638
12739TIP3   OH238157   4.964   0.879   5.860
12739TIP3    H138158   5.044   0.829   5.844
12739TIP3    H238159   4.994   0.963   5.894
12740TIP3   OH238160   1.598   4.525   6.319
12740TIP3    H138161   1.581   4.445   6.368
12740TIP3    H238162   1.680   4.508   6.272
12741TIP3   OH238163   6.784   2.828   1.395
12741TIP3    H138164   6.782   2.735   1.419
12741TIP3    H238165   6.877   2.849   1.390
12742TIP3   OH238166   5.024   0.573   1.006
12742TIP3    H138167   4.945   0.623   1.024
12742TIP3    H238168   5.053   0.603   0.920
12743TIP3   OH238169   4.720   2.889   0.403
12743TIP3    H138170   4.694   2.965   0.350
12743TIP3    H238171   4.810   2.871   0.377
12744TIP3   OH238172   1.170   1.124   2.898
12744TIP3    H138173   1.193   1.216   2.901
12744TIP3    H238174   1.076   1.122   2.917
12745TIP3   OH238175   3.391   6.269   2.648
12745TIP3    H138176   3.368   6.199   2.587
12745TIP3    H238177   3.337   6.252   2.725
12746TIP3   OH238178   4.982   4.230   2.018
12746TIP3    H138179   5.065   4.267   2.049
12746TIP3    H238180   4.927   4.307   1.999
12747TIP3   OH238181   0.173   6.484   1.056
12747TIP3    H138182   0.230   6.516   1.126
12747TIP3    H238183   0.099   6.444   1.102
12748TIP3   OH238184   3.601   2.650   5.893
12748TIP3    H138185   3.533   2.617   5.951
12748TIP3    H238186   3.656   2.706   5.948
12749TIP3   OH238187   5.710   5.938   2.758
12749TIP3    H138188   5.663   5.878   2.700
12749TIP3    H238189   5.688   6.025   2.725
12750TIP3   OH238190   7.023   4.620   2.840
12750TIP3    H138191   7.034   4.605   2.747
12750TIP3    H238192   6.929   4.609   2.855
12751TIP3   OH238193   0.579   3.829   0.618
12751TIP3    H138194   0.569   3.844   0.524
12751TIP3    H238195   0.554   3.912   0.658
12752TIP3   OH238196   3.937   0.988   4.582
12752TIP3    H138197   3.978   0.913   4.625
12752TIP3    H238198   4.009   1.032   4.538
12753TIP3   OH238199   6.387   2.110   4.730
12753TIP3    H138200   6.457   2.098   4.794
12753TIP3    H238201   6.394   2.034   4.672
12754TIP3   OH238202   7.972   6.061   5.151
12754TIP3    H138203   8.011   6.017   5.075
12754TIP3    H238204   7.886   6.019   5.161
12755TIP3   OH238205   0.164   7.782   4.259
12755TIP3    H138206   0.247   7.812   4.224
12755TIP3    H238207   0.177   7.780   4.354
12756TIP3   OH238208   1.448   2.970   4.604
12756TIP3    H138209   1.496   3.047   4.576
12756TIP3    H238210   1.356   2.993   4.591
12757TIP3   OH238211   3.163   5.905   0.171
12757TIP3    H138212   3.251   5.872   0.150
12757TIP3    H238213   3.156   5.987   0.123
12758TIP3   OH238214   1.005   4.949   0.187
12758TIP3    H138215   0.956   4.984   0.113
12758TIP3    H238216   0.938   4.933   0.254
12759TIP3   OH238217   0.931   4.461   3.625
12759TIP3    H138218   0.966   4.379   3.589
12759TIP3    H238219   0.836   4.450   3.623
12760TIP3   OH238220   3.348   5.706   6.411
12760TIP3    H138221   3.287   5.776   6.389
12760TIP3    H238222   3.313   5.629   6.366
12761TIP3   OH238223   7.234   3.943   1.418
12761TIP3    H138224   7.207   3.982   1.501
12761TIP3    H238225   7.308   3.887   1.441
12762TIP3   OH238226   6.925   3.735   0.655
12762TIP3    H138227   6.889   3.786   0.582
12762TIP3    H238228   7.013   3.710   0.626
12763TIP3   OH238229   6.356   5.545   5.646
12763TIP3    H138230   6.350   5.464   5.595
12763TIP3    H238231   6.373   5.613   5.582
12764TIP3   OH238232   0.288   3.154   3.131
12764TIP3    H138233   0.384   3.155   3.128
12764TIP3    H238234   0.262   3.214   3.061
12765TIP3   OH238235   1.553   3.896   2.913
12765TIP3    H138236   1.632   3.845   2.929
12765TIP3    H238237   1.581   3.967   2.856
12766TIP3   OH238238   2.477   1.951   4.860
12766TIP3    H138239   2.564   1.913   4.874
12766TIP3    H238240   2.426   1.881   4.819
12767TIP3   OH238241   3.780   7.201   4.138
12767TIP3    H138242   3.706   7.258   4.119
12767TIP3    H238243   3.742   7.123   4.178
12768TIP3   OH238244   1.230   5.268   2.665
12768TIP3    H138245   1.299   5.289   2.728
12768TIP3    H238246   1.223   5.347   2.611
12769TIP3   OH238247   1.485   6.333   3.136
12769TIP3    H138248   1.423   6.261   3.143
12769TIP3    H238249   1.569   6.294   3.161
12770TIP3   OH238250   7.611   3.746   1.189
12770TIP3    H138251   7.674   3.677   1.211
12770TIP3    H238252   7.531   3.698   1.164
12771TIP3   OH238253   6.741   7.014   0.106
12771TIP3    H138254   6.656   6.971   0.117
12771TIP3    H238255   6.719   7.102   0.074
12772TIP3   OH238256   1.512   4.430   3.016
12772TIP3    H138257   1.533   4.420   2.923
12772TIP3    H238258   1.559   4.358   3.058
12773TIP3   OH238259   2.536   5.119   1.808
12773TIP3    H138260   2.536   5.030   1.843
12773TIP3    H238261   2.547   5.108   1.714
12774TIP3   OH238262   8.219   5.894   6.620
12774TIP3    H138263   8.243   5.981   6.586
12774TIP3    H238264   8.132   5.906   6.657
12775TIP3   OH238265   2.858   6.326   3.544
12775TIP3    H138266   2.807   6.338   3.624
12775TIP3    H238267   2.800   6.353   3.474
12776TIP3   OH238268   5.386   5.883   1.367
12776TIP3    H138269   5.338   5.962   1.341
12776TIP3    H238270   5.424   5.851   1.285
12777TIP3   OH238271   1.600   0.263   0.753
12777TIP3    H138272   1.635   0.226   0.835
12777TIP3    H238273   1.641   0.349   0.746
12778TIP3   OH238274   6.972   5.541   4.111
12778TIP3    H138275   6.938   5.454   4.131
12778TIP3    H238276   7.067   5.532   4.114
12779TIP3   OH238277   2.096   1.337   0.485
12779TIP3    H138278   2.055   1.423   0.484
12779TIP3    H238279   2.099   1.313   0.578
12780TIP3   OH238280   6.799   7.362   4.654
12780TIP3    H138281   6.797   7.279   4.701
12780TIP3    H238282   6.743   7.420   4.705
12781TIP3   OH238283   4.001   0.402   6.245
12781TIP3    H138284   4.041   0.328   6.291
12781TIP3    H238285   3.944   0.363   6.179
12782TIP3   OH238286   4.031   4.538   6.351
12782TIP3    H138287   4.019   4.607   6.417
12782TIP3    H238288   4.091   4.577   6.287
12783TIP3   OH238289   7.207   7.594   0.308
12783TIP3    H138290   7.181   7.613   0.218
12783TIP3    H238291   7.303   7.601   0.307
12784TIP3   OH238292   6.761   0.523   6.542
12784TIP3    H138293   6.814   0.542   6.619
12784TIP3    H238294   6.692   0.588   6.543
12785TIP3   OH238295   1.774   1.567   3.645
12785TIP3    H138296   1.682   1.549   3.664
12785TIP3    H238297   1.782   1.662   3.655
12786TIP3   OH238298   2.170   2.719   0.997
12786TIP3    H138299   2.092   2.754   0.955
12786TIP3    H238300   2.157   2.624   0.996
12787TIP3   OH238301   5.866   1.178   1.270
12787TIP3    H138302   5.836   1.127   1.196
12787TIP3    H238303   5.831   1.265   1.256
12788TIP3   OH238304   6.988   2.753   2.004
12788TIP3    H138305   7.005   2.667   2.042
12788TIP3    H238306   7.074   2.793   1.993
12789TIP3   OH238307   7.985   1.914   1.895
12789TIP3    H138308   7.938   1.962   1.828
12789TIP3    H238309   8.078   1.931   1.878
12790TIP3   OH238310   1.608   3.808   6.242
12790TIP3    H138311   1.529   3.773   6.284
12790TIP3    H238312   1.590   3.801   6.148
12791TIP3   OH238313   2.196   7.404   5.290
12791TIP3    H138314   2.220   7.478   5.234
12791TIP3    H238315   2.231   7.327   5.246
12792TIP3   OH238316   3.473   2.307   6.138
12792TIP3    H138317   3.406   2.245   6.111
12792TIP3    H238318   3.547   2.253   6.166
12793TIP3   OH238319   1.295   3.939   0.549
12793TIP3    H138320   1.306   3.895   0.633
12793TIP3    H238321   1.329   3.877   0.484
12794TIP3   OH238322   3.392   5.903   6.023
12794TIP3    H138323   3.365   5.857   5.943
12794TIP3    H238324   3.415   5.834   6.084
12795TIP3   OH238325   5.604   1.713   0.245
12795TIP3    H138326   5.698   1.728   0.228
12795TIP3    H238327   5.577   1.652   0.177
12796TIP3   OH238328   8.318   7.730   5.091
12796TIP3    H138329   8.234   7.774   5.080
12796TIP3    H238330   8.346   7.753   5.180
12797TIP3   OH238331   6.308   4.839   1.400
12797TIP3    H138332   6.220   4.819   1.370
12797TIP3    H238333   6.363   4.825   1.323
12798TIP3   OH238334   0.266   6.554   0.509
12798TIP3    H138335   0.362   6.560   0.511
12798TIP3    H238336   0.243   6.520   0.595
12799TIP3   OH238337   3.357   4.733   4.069
12799TIP3    H138338   3.265   4.739   4.043
12799TIP3    H238339   3.381   4.821   4.096
12800TIP3   OH238340   2.150   3.697   2.035
12800TIP3    H138341   2.109   3.704   1.949
12800TIP3    H238342   2.133   3.782   2.077
12801TIP3   OH238343   0.389   1.526   5.836
12801TIP3    H138344   0.389   1.431   5.849
12801TIP3    H238345   0.405   1.538   5.743
12802TIP3   OH238346   5.822   3.043   1.580
12802TIP3    H138347   5.804   3.047   1.486
12802TIP3    H238348   5.745   3.081   1.621
12803TIP3   OH238349   1.205   2.886   4.380
12803TIP3    H138350   1.214   2.893   4.285
12803TIP3    H238351   1.228   2.973   4.412
12804TIP3   OH238352   4.837   5.620   0.648
12804TIP3    H138353   4.828   5.671   0.567
12804TIP3    H238354   4.929   5.596   0.651
12805TIP3   OH238355   1.877   4.938   2.826
12805TIP3    H138356   1.834   5.020   2.851
12805TIP3    H238357   1.817   4.870   2.855
12806TIP3   OH238358   4.039   3.926   1.545
12806TIP3    H138359   4.068   3.895   1.460
12806TIP3    H238360   4.066   3.858   1.606
12807TIP3   OH238361   4.957   5.572   1.038
12807TIP3    H138362   5.022   5.638   1.018
12807TIP3    H238363   4.981   5.497   0.984
12808TIP3   OH238364   5.116   1.384   1.639
12808TIP3    H138365   5.054   1.357   1.706
12808TIP3    H238366   5.144   1.303   1.597
12809TIP3   OH238367   6.622   0.550   3.315
12809TIP3    H138368   6.696   0.606   3.293
12809TIP3    H238369   6.579   0.594   3.388
12810TIP3   OH238370   5.838   5.251   3.315
12810TIP3    H138371   5.900   5.220   3.249
12810TIP3    H238372   5.889   5.312   3.369
12811TIP3   OH238373   4.000   7.513   1.987
12811TIP3    H138374   3.958   7.454   1.925
12811TIP3    H238375   4.072   7.462   2.024
12812TIP3   OH238376   7.016   2.158   3.449
12812TIP3    H138377   7.094   2.152   3.395
12812TIP3    H238378   7.039   2.111   3.529
12813TIP3   OH238379   0.263   0.225   2.469
12813TIP3    H138380   0.277   0.140   2.426
12813TIP3    H238381   0.190   0.209   2.529
12814TIP3   OH238382   2.516   1.779   4.249
12814TIP3    H138383   2.538   1.698   4.294
12814TIP3    H238384   2.580   1.784   4.178
12815TIP3   OH238385   8.170   4.849   3.634
12815TIP3    H138386   8.133   4.761   3.642
12815TIP3    H238387   8.120   4.902   3.696
12816TIP3   OH238388   8.364   7.462   0.477
12816TIP3    H138389   8.434   7.525   0.492
12816TIP3    H238390   8.368   7.444   0.383
12817TIP3   OH238391   3.534   1.465   4.431
12817TIP3    H138392   3.592   1.397   4.396
12817TIP3    H238393   3.566   1.479   4.520
12818TIP3   OH238394   7.056   5.984   2.837
12818TIP3    H138395   7.029   5.908   2.785
12818TIP3    H238396   7.025   6.059   2.787
12819TIP3   OH238397   2.129   2.883   3.103
12819TIP3    H138398   2.102   2.922   3.020
12819TIP3    H238399   2.100   2.792   3.097
12820TIP3   OH238400   6.807   3.343   3.547
12820TIP3    H138401   6.764   3.369   3.629
12820TIP3    H238402   6.859   3.420   3.522
12821TIP3   OH238403   5.102   4.517   3.956
12821TIP3    H138404   5.081   4.494   3.865
12821TIP3    H238405   5.111   4.433   4.000
12822TIP3   OH238406   4.752   1.309   4.889
12822TIP3    H138407   4.787   1.355   4.813
12822TIP3    H238408   4.681   1.366   4.920
12823TIP3   OH238409   0.106   4.719   4.200
12823TIP3    H138410   0.135   4.788   4.259
12823TIP3    H238411   0.011   4.715   4.213
12824TIP3   OH238412   6.965   2.321   4.989
12824TIP3    H138413   6.945   2.235   5.027
12824TIP3    H238414   6.957   2.308   4.895
12825TIP3   OH238415   1.436   7.568   2.144
12825TIP3    H138416   1.428   7.489   2.091
12825TIP3    H238417   1.381   7.633   2.099
12826TIP3   OH238418   6.528   7.179   6.860
12826TIP3    H138419   6.514   7.152   6.770
12826TIP3    H238420   6.484   7.112   6.912
12827TIP3   OH238421   2.327   6.883   6.342
12827TIP3    H138422   2.337   6.788   6.334
12827TIP3    H238423   2.331   6.900   6.436
12828TIP3   OH238424   3.985   3.179   3.579
12828TIP3    H138425   4.038   3.135   3.513
12828TIP3    H238426   3.900   3.193   3.537
12829TIP3   OH238427   8.279   6.928   4.416
12829TIP3    H138428   8.363   6.939   4.460
12829TIP3    H238429   8.263   6.834   4.418
12830TIP3   OH238430   3.935   4.346   4.297
12830TIP3    H138431   3.957   4.395   4.218
12830TIP3    H238432   3.898   4.411   4.357
12831TIP3   OH238433   8.415   2.063   4.460
12831TIP3    H138434   8.428   1.981   4.412
12831TIP3    H238435   8.320   2.072   4.468
12832TIP3   OH238436   5.661   7.465   1.661
12832TIP3    H138437   5.595   7.513   1.710
12832TIP3    H238438   5.611   7.413   1.599
12833TIP3   OH238439   7.681   2.645   1.237
12833TIP3    H138440   7.660   2.719   1.294
12833TIP3    H238441   7.606   2.586   1.247
12834TIP3   OH238442   5.224   1.069   0.573
12834TIP3    H138443   5.252   1.147   0.621
12834TIP3    H238444   5.299   1.047   0.517
12835TIP3   OH238445   3.159   5.101   6.193
12835TIP3    H138446   3.144   5.109   6.287
12835TIP3    H238447   3.072   5.102   6.154
12836TIP3   OH238448   1.695   6.778   6.479
12836TIP3    H138449   1.624   6.810   6.535
12836TIP3    H238450   1.774   6.789   6.531
12837TIP3   OH238451   4.973   3.172   1.924
12837TIP3    H138452   5.065   3.171   1.898
12837TIP3    H238453   4.975   3.198   2.016
12838TIP3   OH238454   7.509   0.860   1.312
12838TIP3    H138455   7.443   0.905   1.259
12838TIP3    H238456   7.459   0.819   1.382
12839TIP3   OH238457   0.695   0.862   5.371
12839TIP3    H138458   0.725   0.774   5.348
12839TIP3    H238459   0.775   0.910   5.389
12840TIP3   OH238460   5.237   2.277   6.805
12840TIP3    H138461   5.282   2.249   6.885
12840TIP3    H238462   5.303   2.328   6.757
12841TIP3   OH238463   4.266   5.074   0.111
12841TIP3    H138464   4.286   4.983   0.135
12841TIP3    H238465   4.347   5.106   0.071
12842TIP3   OH238466   3.347   7.549   4.843
12842TIP3    H138467   3.279   7.580   4.903
12842TIP3    H238468   3.313   7.467   4.808
12843TIP3   OH238469   1.378   5.127   4.429
12843TIP3    H138470   1.299   5.074   4.420
12843TIP3    H238471   1.368   5.196   4.364
12844TIP3   OH238472   7.524   7.266   1.427
12844TIP3    H138473   7.503   7.320   1.350
12844TIP3    H238474   7.502   7.321   1.502
12845TIP3   OH238475   7.432   2.626   6.472
12845TIP3    H138476   7.436   2.590   6.384
12845TIP3    H238477   7.509   2.682   6.479
12846TIP3   OH238478   3.845   5.301   6.080
12846TIP3    H138479   3.815   5.370   6.139
12846TIP3    H238480   3.768   5.247   6.065
12847TIP3   OH238481   8.396   1.810   4.374
12847TIP3    H138482   8.307   1.789   4.402
12847TIP3    H238483   8.426   1.731   4.327
12848TIP3   OH238484   3.938   7.511   4.668
12848TIP3    H138485   3.857   7.514   4.617
12848TIP3    H238486   3.946   7.419   4.694
12849TIP3   OH238487   3.227   6.949   1.669
12849TIP3    H138488   3.168   7.002   1.616
12849TIP3    H238489   3.311   6.995   1.664
12850TIP3   OH238490   6.804   6.580   3.801
12850TIP3    H138491   6.744   6.557   3.730
12850TIP3    H238492   6.763   6.655   3.845
12851TIP3   OH238493   2.991   5.740   6.502
12851TIP3    H138494   3.040   5.747   6.584
12851TIP3    H238495   3.036   5.800   6.443
12852TIP3   OH238496   0.940   6.533   4.495
12852TIP3    H138497   0.896   6.572   4.420
12852TIP3    H238498   0.891   6.453   4.514
12853TIP3   OH238499   2.921   5.980   6.705
12853TIP3    H138500   2.840   5.974   6.754
12853TIP3    H238501   2.894   6.002   6.616
12854TIP3   OH238502   5.171   6.262   5.460
12854TIP3    H138503   5.153   6.341   5.407
12854TIP3    H238504   5.135   6.283   5.546
12855TIP3   OH238505   7.795   1.944   2.890
12855TIP3    H138506   7.887   1.944   2.917
12855TIP3    H238507   7.769   1.852   2.895
12856TIP3   OH238508   3.628   1.024   6.813
12856TIP3    H138509   3.538   1.017   6.780
12856TIP3    H238510   3.642   0.942   6.860
12857TIP3   OH238511   2.566   3.089   0.718
12857TIP3    H138512   2.653   3.079   0.679
12857TIP3    H238513   2.510   3.118   0.645
12858TIP3   OH238514   1.381   4.697   5.011
12858TIP3    H138515   1.447   4.748   5.059
12858TIP3    H238516   1.297   4.726   5.046
12859TIP3   OH238517   8.006   7.645   1.748
12859TIP3    H138518   8.032   7.602   1.829
12859TIP3    H238519   7.918   7.614   1.730
12860TIP3   OH238520   8.254   1.650   3.588
12860TIP3    H138521   8.273   1.573   3.534
12860TIP3    H238522   8.158   1.652   3.594
12861TIP3   OH238523   4.580   6.774   6.770
12861TIP3    H138524   4.580   6.857   6.819
12861TIP3    H238525   4.672   6.756   6.754
12862TIP3   OH238526   8.212   2.418   5.296
12862TIP3    H138527   8.260   2.347   5.338
12862TIP3    H238528   8.221   2.492   5.356
12863TIP3   OH238529   1.610   0.829   1.895
12863TIP3    H138530   1.570   0.915   1.883
12863TIP3    H238531   1.567   0.794   1.973
12864TIP3   OH238532   0.148   3.808   0.675
12864TIP3    H138533   0.198   3.739   0.632
12864TIP3    H238534   0.187   3.815   0.762
12865TIP3   OH238535   2.055   7.830   4.176
12865TIP3    H138536   2.028   7.909   4.222
12865TIP3    H238537   1.975   7.799   4.133
12866TIP3   OH238538   2.149   5.299   1.696
12866TIP3    H138539   2.074   5.341   1.654
12866TIP3    H238540   2.110   5.243   1.763
12867TIP3   OH238541   1.025   7.896   2.708
12867TIP3    H138542   1.033   7.804   2.733
12867TIP3    H238543   1.107   7.936   2.738
12868TIP3   OH238544   3.849   5.686   0.245
12868TIP3    H138545   3.862   5.637   0.326
12868TIP3    H238546   3.816   5.772   0.274
12869TIP3   OH238547   1.960   5.823   6.525
12869TIP3    H138548   2.031   5.872   6.566
12869TIP3    H238549   1.880   5.864   6.558
12870TIP3   OH238550   5.304   5.155   5.488
12870TIP3    H138551   5.221   5.116   5.516
12870TIP3    H238552   5.335   5.098   5.418
12871TIP3   OH238553   2.362   3.246   0.068
12871TIP3    H138554   2.380   3.247   0.162
12871TIP3    H238555   2.381   3.156   0.040
12872TIP3   OH238556   4.558   1.177   4.478
12872TIP3    H138557   4.525   1.228   4.551
12872TIP3    H238558   4.486   1.118   4.454
12873TIP3   OH238559   7.502   2.897   5.601
12873TIP3    H138560   7.502   2.834   5.529
12873TIP3    H238561   7.410   2.921   5.612
12874TIP3   OH238562   0.297   0.601   0.809
12874TIP3    H138563   0.361   0.584   0.878
12874TIP3    H238564   0.283   0.696   0.812
12875TIP3   OH238565   3.924   7.774   4.087
12875TIP3    H138566   3.906   7.741   4.175
12875TIP3    H238567   3.996   7.836   4.099
12876TIP3   OH238568   4.265   2.677   6.020
12876TIP3    H138569   4.286   2.587   6.046
12876TIP3    H238570   4.170   2.680   6.017
12877TIP3   OH238571   0.245   6.397   5.424
12877TIP3    H138572   0.319   6.374   5.367
12877TIP3    H238573   0.283   6.396   5.512
12878TIP3   OH238574   6.444   2.967   1.308
12878TIP3    H138575   6.539   2.949   1.311
12878TIP3    H238576   6.411   2.932   1.391
12879TIP3   OH238577   5.004   3.214   4.141
12879TIP3    H138578   5.078   3.155   4.158
12879TIP3    H238579   4.989   3.206   4.047
12880TIP3   OH238580   8.181   5.463   3.059
12880TIP3    H138581   8.276   5.475   3.063
12880TIP3    H238582   8.158   5.484   2.969
12881TIP3   OH238583   6.523   5.485   6.498
12881TIP3    H138584   6.555   5.395   6.493
12881TIP3    H238585   6.428   5.476   6.495
12882TIP3   OH238586   6.901   0.320   2.240
12882TIP3    H138587   6.966   0.321   2.169
12882TIP3    H238588   6.954   0.323   2.320
12883TIP3   OH238589   0.657   7.538   4.151
12883TIP3    H138590   0.640   7.569   4.062
12883TIP3    H238591   0.660   7.443   4.143
12884TIP3   OH238592   2.960   1.944   4.912
12884TIP3    H138593   3.037   1.963   4.965
12884TIP3    H238594   2.953   1.849   4.911
12885TIP3   OH238595   0.527   7.578   0.702
12885TIP3    H138596   0.465   7.519   0.745
12885TIP3    H238597   0.581   7.521   0.647
12886TIP3   OH238598   7.985   7.397   3.347
12886TIP3    H138599   8.015   7.382   3.257
12886TIP3    H238600   7.892   7.376   3.345
12887TIP3   OH238601   5.682   2.739   6.682
12887TIP3    H138602   5.625   2.703   6.750
12887TIP3    H238603   5.747   2.791   6.730
12888TIP3   OH238604   0.979   2.307   4.799
12888TIP3    H138605   0.904   2.262   4.761
12888TIP3    H238606   1.009   2.366   4.730
12889TIP3   OH238607   8.054   4.200   4.575
12889TIP3    H138608   8.133   4.147   4.574
12889TIP3    H238609   7.989   4.147   4.529
12890TIP3   OH238610   4.191   6.031   6.669
12890TIP3    H138611   4.255   6.016   6.599
12890TIP3    H238612   4.244   6.059   6.744
12891TIP3   OH238613   4.265   0.597   3.582
12891TIP3    H138614   4.238   0.671   3.529
12891TIP3    H238615   4.360   0.607   3.592
12892TIP3   OH238616   7.140   1.592   6.470
12892TIP3    H138617   7.156   1.652   6.398
12892TIP3    H238618   7.167   1.640   6.548
12893TIP3   OH238619   4.822   1.555   4.436
12893TIP3    H138620   4.872   1.543   4.354
12893TIP3    H238621   4.731   1.550   4.409
12894TIP3   OH238622   1.855   0.749   6.223
12894TIP3    H138623   1.830   0.764   6.314
12894TIP3    H238624   1.812   0.666   6.200
12895TIP3   OH238625   7.739   5.843   3.495
12895TIP3    H138626   7.665   5.793   3.463
12895TIP3    H238627   7.800   5.847   3.421
12896TIP3   OH238628   8.323   3.735   5.469
12896TIP3    H138629   8.236   3.745   5.508
12896TIP3    H238630   8.314   3.661   5.410
12897TIP3   OH238631   5.193   5.148   6.046
12897TIP3    H138632   5.255   5.141   6.119
12897TIP3    H238633   5.107   5.132   6.087
12898TIP3   OH238634   3.032   4.153   3.761
12898TIP3    H138635   2.944   4.123   3.785
12898TIP3    H238636   3.086   4.134   3.838
12899TIP3   OH238637  -0.019   0.689   0.796
12899TIP3    H138638  -0.002   0.731   0.880
12899TIP3    H238639   0.027   0.744   0.732
12900TIP3   OH238640   0.293   6.385   0.759
12900TIP3    H138641   0.207   6.389   0.800
12900TIP3    H238642   0.354   6.394   0.831
12901TIP3   OH238643   0.786   6.489   2.871
12901TIP3    H138644   0.694   6.498   2.846
12901TIP3    H238645   0.826   6.441   2.798
12902TIP3   OH238646   1.378   5.186   5.445
12902TIP3    H138647   1.399   5.164   5.355
12902TIP3    H238648   1.285   5.212   5.443
12903TIP3   OH238649   5.905   7.187   3.119
12903TIP3    H138650   5.829   7.160   3.066
12903TIP3    H238651   5.912   7.120   3.187
12904TIP3   OH238652   2.545   7.779   1.428
12904TIP3    H138653   2.572   7.727   1.352
12904TIP3    H238654   2.489   7.848   1.391
12905TIP3   OH238655   6.690   3.226   0.670
12905TIP3    H138656   6.654   3.294   0.727
12905TIP3    H238657   6.616   3.168   0.653
12906TIP3   OH238658   7.768   7.542   3.548
12906TIP3    H138659   7.799   7.470   3.603
12906TIP3    H238660   7.751   7.501   3.463
12907TIP3   OH238661   0.801   0.550   4.171
12907TIP3    H138662   0.865   0.619   4.189
12907TIP3    H238663   0.847   0.491   4.111
12908TIP3   OH238664   7.464   5.490   5.296
12908TIP3    H138665   7.531   5.511   5.231
12908TIP3    H238666   7.382   5.520   5.256
12909TIP3   OH238667   3.826   5.640   3.598
12909TIP3    H138668   3.845   5.595   3.680
12909TIP3    H238669   3.778   5.719   3.625
12910TIP3   OH238670   4.727   0.768   5.284
12910TIP3    H138671   4.650   0.718   5.312
12910TIP3    H238672   4.695   0.857   5.273
12911TIP3   OH238673   5.513   4.130   0.272
12911TIP3    H138674   5.514   4.100   0.363
12911TIP3    H238675   5.477   4.056   0.223
12912TIP3   OH238676   7.886   1.187   5.791
12912TIP3    H138677   7.877   1.231   5.706
12912TIP3    H238678   7.842   1.103   5.779
12913TIP3   OH238679   0.769   5.731   6.001
12913TIP3    H138680   0.857   5.712   6.033
12913TIP3    H238681   0.783   5.774   5.916
12914TIP3   OH238682   3.042   4.009   1.347
12914TIP3    H138683   3.015   4.030   1.437
12914TIP3    H238684   3.136   4.030   1.345
12915TIP3   OH238685   8.116   4.435   4.419
12915TIP3    H138686   8.208   4.413   4.400
12915TIP3    H238687   8.085   4.361   4.471
12916TIP3   OH238688   6.826   6.657   1.576
12916TIP3    H138689   6.854   6.573   1.539
12916TIP3    H238690   6.835   6.644   1.671
12917TIP3   OH238691   6.022   2.176   5.922
12917TIP3    H138692   5.932   2.143   5.924
12917TIP3    H238693   6.040   2.190   5.829
12918TIP3   OH238694   3.962   7.009   0.014
12918TIP3    H138695   3.879   7.033  -0.027
12918TIP3    H238696   3.947   6.921   0.049
12919TIP3   OH238697   8.016   7.030   1.335
12919TIP3    H138698   8.111   7.040   1.335
12919TIP3    H238699   7.989   7.050   1.245
12920TIP3   OH238700   0.493   7.112   4.308
12920TIP3    H138701   0.428   7.138   4.373
12920TIP3    H238702   0.559   7.182   4.311
12921TIP3   OH238703   3.262   0.379   0.314
12921TIP3    H138704   3.251   0.403   0.406
12921TIP3    H238705   3.280   0.285   0.315
12922TIP3   OH238706   8.004   4.214   5.032
12922TIP3    H138707   8.039   4.285   4.978
12922TIP3    H238708   8.066   4.205   5.104
12923TIP3   OH238709   1.965   5.901   5.181
12923TIP3    H138710   2.010   5.961   5.241
12923TIP3    H238711   1.904   5.957   5.133
12924TIP3   OH238712   3.813   2.729   4.982
12924TIP3    H138713   3.892   2.758   5.028
12924TIP3    H238714   3.802   2.638   5.008
12925TIP3   OH238715   2.721   1.314   2.061
12925TIP3    H138716   2.690   1.241   2.116
12925TIP3    H238717   2.706   1.392   2.116
12926TIP3   OH238718   2.480   3.180   3.953
12926TIP3    H138719   2.456   3.202   3.863
12926TIP3    H238720   2.576   3.170   3.950
12927TIP3   OH238721   3.375   3.197   0.122
12927TIP3    H138722   3.329   3.274   0.156
12927TIP3    H238723   3.417   3.158   0.198
12928TIP3   OH238724   3.791   5.718   1.802
12928TIP3    H138725   3.714   5.676   1.765
12928TIP3    H238726   3.826   5.654   1.864
12929TIP3   OH238727   3.957   6.933   3.485
12929TIP3    H138728   4.040   6.892   3.508
12929TIP3    H238729   3.890   6.868   3.508
12930TIP3   OH238730   5.637   6.228   5.493
12930TIP3    H138731   5.550   6.189   5.487
12930TIP3    H238732   5.621   6.318   5.524
12931TIP3   OH238733   7.280   4.598   2.150
12931TIP3    H138734   7.190   4.573   2.129
12931TIP3    H238735   7.276   4.693   2.161
12932TIP3   OH238736   8.142   4.038   0.883
12932TIP3    H138737   8.089   4.048   0.962
12932TIP3    H238738   8.205   3.968   0.905
12933TIP3   OH238739   2.740   4.432   1.151
12933TIP3    H138740   2.710   4.341   1.157
12933TIP3    H238741   2.766   4.454   1.241
12934TIP3   OH238742   0.296   3.343   4.863
12934TIP3    H138743   0.300   3.437   4.877
12934TIP3    H238744   0.284   3.333   4.768
12935TIP3   OH238745   2.576   4.612   2.305
12935TIP3    H138746   2.522   4.603   2.226
12935TIP3    H238747   2.628   4.532   2.308
12936TIP3   OH238748   3.243   4.687   3.366
12936TIP3    H138749   3.181   4.630   3.410
12936TIP3    H238750   3.207   4.775   3.378
12937TIP3   OH238751   6.633   6.386   5.484
12937TIP3    H138752   6.666   6.442   5.554
12937TIP3    H238753   6.711   6.358   5.437
12938TIP3   OH238754   6.810   7.130   4.780
12938TIP3    H138755   6.779   7.065   4.718
12938TIP3    H238756   6.862   7.081   4.843
12939TIP3   OH238757   5.934   7.688   5.723
12939TIP3    H138758   5.869   7.618   5.733
12939TIP3    H238759   6.017   7.642   5.708
12940TIP3   OH238760   2.212   6.999   4.180
12940TIP3    H138761   2.297   6.998   4.224
12940TIP3    H238762   2.181   6.909   4.186
12941TIP3   OH238763   0.375   0.448   1.237
12941TIP3    H138764   0.420   0.483   1.314
12941TIP3    H238765   0.372   0.354   1.251
12942TIP3   OH238766   3.424   7.485   0.595
12942TIP3    H138767   3.469   7.518   0.517
12942TIP3    H238768   3.480   7.415   0.627
12943TIP3   OH238769   3.379   7.590   0.031
12943TIP3    H138770   3.345   7.508   0.067
12943TIP3    H238771   3.337   7.658   0.083
12944TIP3   OH238772   7.041   4.841   1.866
12944TIP3    H138773   7.095   4.858   1.943
12944TIP3    H238774   6.958   4.809   1.902
12945TIP3   OH238775   6.221   3.864   4.272
12945TIP3    H138776   6.218   3.868   4.177
12945TIP3    H238777   6.314   3.867   4.293
12946TIP3   OH238778   3.584   6.698   0.090
12946TIP3    H138779   3.643   6.639   0.137
12946TIP3    H238780   3.594   6.783   0.135
12947TIP3   OH238781   7.905   3.508   1.051
12947TIP3    H138782   7.922   3.602   1.063
12947TIP3    H238783   7.861   3.481   1.131
12948TIP3   OH238784   7.581   1.281   0.018
12948TIP3    H138785   7.605   1.199   0.061
12948TIP3    H238786   7.553   1.338   0.089
12949TIP3   OH238787   1.021   1.438   4.639
12949TIP3    H138788   1.059   1.388   4.712
12949TIP3    H238789   1.086   1.432   4.570
12950TIP3   OH238790   1.693   6.578   3.594
12950TIP3    H138791   1.700   6.485   3.573
12950TIP3    H238792   1.642   6.615   3.522
12951TIP3   OH238793   6.460   5.214   0.970
12951TIP3    H138794   6.538   5.209   1.027
12951TIP3    H238795   6.409   5.286   1.008
12952TIP3   OH238796   3.375   6.859   1.007
12952TIP3    H138797   3.367   6.884   0.915
12952TIP3    H238798   3.459   6.815   1.013
12953TIP3   OH238799   6.975   6.916   1.267
12953TIP3    H138800   6.944   6.829   1.239
12953TIP3    H238801   6.912   6.944   1.332
12954TIP3   OH238802   2.181   2.215   1.082
12954TIP3    H138803   2.160   2.165   1.003
12954TIP3    H238804   2.142   2.164   1.153
12955TIP3   OH238805   2.640   1.712   2.828
12955TIP3    H138806   2.661   1.620   2.843
12955TIP3    H238807   2.571   1.732   2.892
12956TIP3   OH238808   2.816   0.301   1.893
12956TIP3    H138809   2.858   0.242   1.830
12956TIP3    H238810   2.868   0.292   1.973
12957TIP3   OH238811   1.208   7.036   0.062
12957TIP3    H138812   1.137   7.005   0.119
12957TIP3    H238813   1.166   7.101   0.006
12958TIP3   OH238814   4.884   2.511   4.748
12958TIP3    H138815   4.837   2.585   4.711
12958TIP3    H238816   4.976   2.531   4.736
12959TIP3   OH238817   7.013   0.510   4.237
12959TIP3    H138818   7.074   0.441   4.264
12959TIP3    H238819   6.929   0.466   4.230
12960TIP3   OH238820   2.348   6.358   2.184
12960TIP3    H138821   2.412   6.316   2.127
12960TIP3    H238822   2.274   6.298   2.185
12961TIP3   OH238823   6.357   0.907   3.997
12961TIP3    H138824   6.284   0.940   3.944
12961TIP3    H238825   6.380   0.980   4.055
12962TIP3   OH238826   5.604   3.826   3.501
12962TIP3    H138827   5.606   3.858   3.411
12962TIP3    H238828   5.606   3.731   3.493
12963TIP3   OH238829   7.109   1.539   4.022
12963TIP3    H138830   7.084   1.462   3.972
12963TIP3    H238831   7.147   1.505   4.103
12964TIP3   OH238832   3.925   2.213   2.417
12964TIP3    H138833   3.959   2.125   2.436
12964TIP3    H238834   3.834   2.198   2.390
12965TIP3   OH238835   4.126   7.559   3.061
12965TIP3    H138836   4.191   7.491   3.041
12965TIP3    H238837   4.100   7.542   3.151
12966TIP3   OH238838   7.867   2.182   4.222
12966TIP3    H138839   7.830   2.270   4.218
12966TIP3    H238840   7.792   2.124   4.216
12967TIP3   OH238841   1.523   1.991   0.492
12967TIP3    H138842   1.462   1.929   0.532
12967TIP3    H238843   1.607   1.945   0.489
12968TIP3   OH238844   4.063   7.165   6.042
12968TIP3    H138845   4.075   7.113   5.963
12968TIP3    H238846   4.035   7.102   6.108
12969TIP3   OH238847   1.104   1.573   6.101
12969TIP3    H138848   1.159   1.539   6.030
12969TIP3    H238849   1.021   1.594   6.058
12970TIP3   OH238850   0.436   7.431   3.489
12970TIP3    H138851   0.525   7.430   3.523
12970TIP3    H238852   0.416   7.339   3.470
12971TIP3   OH238853   0.644   3.725   5.240
12971TIP3    H138854   0.666   3.634   5.216
12971TIP3    H238855   0.716   3.777   5.204
12972TIP3   OH238856   4.244   7.061   3.833
12972TIP3    H138857   4.163   7.021   3.864
12972TIP3    H238858   4.312   7.022   3.887
12973TIP3   OH238859   8.212   0.122   4.859
12973TIP3    H138860   8.268   0.198   4.875
12973TIP3    H238861   8.180   0.134   4.770
12974TIP3   OH238862   6.364   5.513   5.305
12974TIP3    H138863   6.413   5.448   5.256
12974TIP3    H238864   6.317   5.463   5.372
12975TIP3   OH238865  -0.006   3.894   3.208
12975TIP3    H138866   0.058   3.943   3.156
12975TIP3    H238867  -0.052   3.960   3.258
12976TIP3   OH238868   2.705   2.668   5.448
12976TIP3    H138869   2.628   2.662   5.504
12976TIP3    H238870   2.745   2.581   5.453
12977TIP3   OH238871   4.176   0.044   2.786
12977TIP3    H138872   4.163  -0.003   2.704
12977TIP3    H238873   4.108   0.010   2.844
12978TIP3   OH238874   5.747   7.166   0.119
12978TIP3    H138875   5.755   7.071   0.105
12978TIP3    H238876   5.825   7.190   0.169
12979TIP3   OH238877   6.679   3.296   0.034
12979TIP3    H138878   6.654   3.388   0.029
12979TIP3    H238879   6.724   3.288   0.118
12980TIP3   OH238880   4.106   1.646   6.017
12980TIP3    H138881   4.160   1.591   5.961
12980TIP3    H238882   4.114   1.734   5.981
12981TIP3   OH238883   0.038  -0.017   4.838
12981TIP3    H138884   0.104   0.051   4.846
12981TIP3    H238885  -0.045   0.028   4.855
12982TIP3   OH238886   2.371   6.748   4.866
12982TIP3    H138887   2.420   6.727   4.786
12982TIP3    H238888   2.426   6.811   4.912
12983TIP3   OH238889   1.104   6.848   2.687
12983TIP3    H138890   1.188   6.868   2.645
12983TIP3    H238891   1.101   6.752   2.690
12984TIP3   OH238892   6.098   6.465   3.572
12984TIP3    H138893   6.065   6.552   3.549
12984TIP3    H238894   6.157   6.442   3.501
12985TIP3   OH238895   8.329   5.158   3.661
12985TIP3    H138896   8.372   5.137   3.743
12985TIP3    H238897   8.236   5.165   3.683
12986TIP3   OH238898   5.029   1.421   3.610
12986TIP3    H138899   5.058   1.378   3.691
12986TIP3    H238900   5.102   1.477   3.585
12987TIP3   OH238901   4.958   4.666   6.799
12987TIP3    H138902   5.005   4.640   6.720
12987TIP3    H238903   5.019   4.722   6.846
12988TIP3   OH238904   4.766   0.843   1.522
12988TIP3    H138905   4.707   0.904   1.566
12988TIP3    H238906   4.725   0.757   1.534
12989TIP3   OH238907   6.921   0.113   5.337
12989TIP3    H138908   6.882   0.078   5.417
12989TIP3    H238909   6.977   0.185   5.367
12990TIP3   OH238910   4.781   5.184   4.916
12990TIP3    H138911   4.746   5.245   4.982
12990TIP3    H238912   4.819   5.113   4.967
12991TIP3   OH238913   3.805   2.142   4.784
12991TIP3    H138914   3.828   2.049   4.784
12991TIP3    H238915   3.719   2.145   4.824
12992TIP3   OH238916   1.396   2.548   3.625
12992TIP3    H138917   1.365   2.458   3.616
12992TIP3    H238918   1.490   2.542   3.613
12993TIP3   OH238919   6.024   3.090   4.366
12993TIP3    H138920   6.081   3.114   4.440
12993TIP3    H238921   5.951   3.043   4.407
12994TIP3   OH238922   4.301   6.951   3.191
12994TIP3    H138923   4.367   6.907   3.137
12994TIP3    H238924   4.351   6.986   3.265
12995TIP3   OH238925   3.896   3.035   3.043
12995TIP3    H138926   3.818   2.982   3.058
12995TIP3    H238927   3.922   3.016   2.953
12996TIP3   OH238928   7.801   3.454   4.094
12996TIP3    H138929   7.719   3.428   4.136
12996TIP3    H238930   7.834   3.373   4.054
12997TIP3   OH238931   0.833   0.461   3.444
12997TIP3    H138932   0.803   0.425   3.361
12997TIP3    H238933   0.919   0.420   3.458
12998TIP3   OH238934   3.986   2.070   6.022
12998TIP3    H138935   3.923   2.140   6.005
12998TIP3    H238936   3.975   2.051   6.115
12999TIP3   OH238937   4.880   5.959   6.334
12999TIP3    H138938   4.850   5.869   6.320
12999TIP3    H238939   4.974   5.955   6.320
13000TIP3   OH238940   5.145   4.470   4.341
13000TIP3    H138941   5.129   4.414   4.264
13000TIP3    H238942   5.236   4.498   4.331
13001TIP3   OH238943   0.812   7.846   4.575
13001TIP3    H138944   0.822   7.809   4.488
13001TIP3    H238945   0.854   7.932   4.569
13002TIP3   OH238946   2.579   5.160   3.175
13002TIP3    H138947   2.592   5.218   3.250
13002TIP3    H238948   2.605   5.211   3.099
13003TIP3   OH238949   4.654   5.092   6.194
13003TIP3    H138950   4.639   5.146   6.116
13003TIP3    H238951   4.575   5.038   6.201
13004TIP3   OH238952   6.628   2.209   5.864
13004TIP3    H138953   6.705   2.253   5.899
13004TIP3    H238954   6.554   2.264   5.890
13005TIP3   OH238955   6.459   4.899   4.537
13005TIP3    H138956   6.467   4.807   4.563
13005TIP3    H238957   6.529   4.944   4.584
13006TIP3   OH238958   7.090   0.933   2.009
13006TIP3    H138959   7.044   1.017   2.002
13006TIP3    H238960   7.050   0.889   2.083
13007TIP3   OH238961   6.545   4.297   2.683
13007TIP3    H138962   6.551   4.275   2.776
13007TIP3    H238963   6.512   4.217   2.641
13008TIP3   OH238964   3.245   6.872   0.199
13008TIP3    H138965   3.163   6.895   0.243
13008TIP3    H238966   3.281   6.956   0.171
13009TIP3   OH238967   2.992   6.497   0.104
13009TIP3    H138968   2.965   6.530   0.019
13009TIP3    H238969   2.996   6.402   0.093
13010TIP3   OH238970   0.893   1.551   1.183
13010TIP3    H138971   0.940   1.591   1.256
13010TIP3    H238972   0.960   1.536   1.117
13011TIP3   OH238973   6.422   0.944   0.409
13011TIP3    H138974   6.426   1.029   0.452
13011TIP3    H238975   6.329   0.923   0.406
13012TIP3   OH238976   1.856   0.852   1.607
13012TIP3    H138977   1.944   0.814   1.613
13012TIP3    H238978   1.803   0.798   1.666
13013TIP3   OH238979   0.332   0.615   2.547
13013TIP3    H138980   0.280   0.670   2.604
13013TIP3    H238981   0.388   0.676   2.499
13014TIP3   OH238982   6.093   2.059   6.279
13014TIP3    H138983   6.163   2.019   6.330
13014TIP3    H238984   6.138   2.119   6.219
13015TIP3   OH238985   0.278   3.211   2.550
13015TIP3    H138986   0.354   3.198   2.608
13015TIP3    H238987   0.228   3.281   2.592
13016TIP3   OH238988   1.240   2.715   1.306
13016TIP3    H138989   1.158   2.666   1.315
13016TIP3    H238990   1.300   2.654   1.263
13017TIP3   OH238991   4.696   7.068   1.116
13017TIP3    H138992   4.781   7.073   1.072
13017TIP3    H238993   4.671   7.159   1.132
13018TIP3   OH238994   6.091   3.158   1.903
13018TIP3    H138995   6.134   3.232   1.861
13018TIP3    H238996   6.059   3.192   1.986
13019TIP3   OH238997   4.965   6.398   0.186
13019TIP3    H138998   4.903   6.331   0.160
13019TIP3    H238999   5.031   6.351   0.238
13020TIP3   OH239000   4.342   4.793   2.986
13020TIP3    H139001   4.364   4.749   3.068
13020TIP3    H239002   4.414   4.771   2.927
13021TIP3   OH239003   1.428   3.344   2.770
13021TIP3    H139004   1.458   3.362   2.859
13021TIP3    H239005   1.509   3.334   2.719
13022TIP3   OH239006   3.879   1.852   1.354
13022TIP3    H139007   3.949   1.889   1.299
13022TIP3    H239008   3.908   1.763   1.372
13023TIP3   OH239009   5.042   0.390   1.507
13023TIP3    H139010   5.083   0.424   1.428
13023TIP3    H239011   5.115   0.373   1.566
13024TIP3   OH239012   1.149   0.897   5.660
13024TIP3    H139013   1.174   0.815   5.701
13024TIP3    H239014   1.226   0.923   5.609
13025TIP3   OH239015   6.917   0.754   5.458
13025TIP3    H139016   6.929   0.680   5.517
13025TIP3    H239017   7.003   0.794   5.450
13026TIP3   OH239018   0.429   3.594   6.033
13026TIP3    H139019   0.518   3.598   5.998
13026TIP3    H239020   0.440   3.569   6.125
13027TIP3   OH239021   0.693   7.056   2.662
13027TIP3    H139022   0.767   7.108   2.691
13027TIP3    H239023   0.731   6.972   2.636
13028TIP3   OH239024   5.771   5.903   4.955
13028TIP3    H139025   5.851   5.884   5.004
13028TIP3    H239026   5.768   5.835   4.888
13029TIP3   OH239027   4.772   4.226   5.952
13029TIP3    H139028   4.741   4.213   6.042
13029TIP3    H239029   4.823   4.147   5.933
13030TIP3   OH239030   0.857   7.080   5.515
13030TIP3    H139031   0.948   7.050   5.512
13030TIP3    H239032   0.834   7.096   5.424
13031TIP3   OH239033   5.477   2.454   5.718
13031TIP3    H139034   5.436   2.534   5.685
13031TIP3    H239035   5.554   2.484   5.765
13032TIP3   OH239036   8.048   2.039   3.414
13032TIP3    H139037   8.063   1.944   3.413
13032TIP3    H239038   8.077   2.066   3.501
13033TIP3   OH239039   4.289   1.214   0.518
13033TIP3    H139040   4.336   1.169   0.588
13033TIP3    H239041   4.235   1.146   0.478
13034TIP3   OH239042   5.725   7.780   0.646
13034TIP3    H139043   5.809   7.823   0.630
13034TIP3    H239044   5.662   7.851   0.649
13035TIP3   OH239045   3.059   6.534   1.736
13035TIP3    H139046   2.971   6.546   1.771
13035TIP3    H239047   3.112   6.600   1.781
13036TIP3   OH239048   1.926   2.863   6.694
13036TIP3    H139049   1.834   2.888   6.687
13036TIP3    H239050   1.957   2.906   6.773
13037TIP3   OH239051   7.403   0.949   0.844
13037TIP3    H139052   7.382   0.866   0.799
13037TIP3    H239053   7.422   0.923   0.934
13038TIP3   OH239054   7.935   1.520   6.080
13038TIP3    H139055   8.028   1.534   6.063
13038TIP3    H239056   7.926   1.426   6.094
13039TIP3   OH239057   7.049   1.251   1.587
13039TIP3    H139058   6.984   1.182   1.572
13039TIP3    H239059   7.132   1.204   1.597
13040TIP3   OH239060   1.091   0.342   3.804
13040TIP3    H139061   1.096   0.254   3.767
13040TIP3    H239062   1.030   0.388   3.747
13041TIP3   OH239063   7.851   3.454   4.987
13041TIP3    H139064   7.859   3.510   5.065
13041TIP3    H239065   7.933   3.470   4.939
13042TIP3   OH239066   7.767   4.680   4.981
13042TIP3    H139067   7.819   4.688   5.061
13042TIP3    H239068   7.825   4.636   4.919
13043TIP3   OH239069   7.929   5.432   5.195
13043TIP3    H139070   7.962   5.443   5.284
13043TIP3    H239071   7.995   5.475   5.140
13044TIP3   OH239072   7.892   2.200   5.029
13044TIP3    H139073   7.920   2.273   5.085
13044TIP3    H239074   7.808   2.229   4.993
13045TIP3   OH239075   5.028   3.726   2.566
13045TIP3    H139076   5.076   3.800   2.529
13045TIP3    H239077   4.998   3.676   2.490
13046TIP3   OH239078   4.175   6.715   5.619
13046TIP3    H139079   4.146   6.758   5.699
13046TIP3    H239080   4.246   6.769   5.587
13047TIP3   OH239081   1.759   7.214   3.084
13047TIP3    H139082   1.683   7.165   3.115
13047TIP3    H239083   1.727   7.266   3.011
13048TIP3   OH239084   3.815   1.564   5.387
13048TIP3    H139085   3.792   1.513   5.310
13048TIP3    H239086   3.775   1.517   5.460
13049TIP3   OH239087   5.383   3.178   6.726
13049TIP3    H139088   5.413   3.157   6.814
13049TIP3    H239089   5.303   3.128   6.715
13050TIP3   OH239090   7.573   3.138   4.349
13050TIP3    H139091   7.502   3.081   4.380
13050TIP3    H239092   7.636   3.138   4.421
13051TIP3   OH239093   5.103   0.081   2.624
13051TIP3    H139094   5.163   0.066   2.550
13051TIP3    H239095   5.027   0.124   2.584
13052TIP3   OH239096   6.976   3.862   5.998
13052TIP3    H139097   6.892   3.902   6.022
13052TIP3    H239098   6.966   3.839   5.905
13053TIP3   OH239099   1.995   1.924   5.523
13053TIP3    H139100   2.027   1.942   5.434
13053TIP3    H239101   2.052   1.854   5.554
13054TIP3   OH239102   0.738   0.780   6.455
13054TIP3    H139103   0.799   0.850   6.434
13054TIP3    H239104   0.669   0.787   6.390
13055TIP3   OH239105   6.366   5.978   6.478
13055TIP3    H139106   6.392   5.997   6.388
13055TIP3    H239107   6.294   6.039   6.496
13056TIP3   OH239108   3.980   5.433   1.700
13056TIP3    H139109   3.993   5.515   1.748
13056TIP3    H239110   4.010   5.452   1.611
13057TIP3   OH239111   2.497   1.458   2.604
13057TIP3    H139112   2.454   1.390   2.657
13057TIP3    H239113   2.429   1.523   2.589
13058TIP3   OH239114   3.108   2.088   4.716
13058TIP3    H139115   3.042   2.066   4.781
13058TIP3    H239116   3.187   2.043   4.746
13059TIP3   OH239117   1.959   5.066   2.216
13059TIP3    H139118   1.887   5.065   2.279
13059TIP3    H239119   2.018   5.135   2.248
13060TIP3   OH239120   7.959   1.898   4.269
13060TIP3    H139121   7.934   1.930   4.356
13060TIP3    H239122   8.024   1.962   4.238
13061TIP3   OH239123   1.349   6.103   5.517
13061TIP3    H139124   1.376   6.186   5.478
13061TIP3    H239125   1.343   6.121   5.611
13062TIP3   OH239126   1.181   3.701   3.381
13062TIP3    H139127   1.205   3.610   3.361
13062TIP3    H239128   1.086   3.701   3.376
13063TIP3   OH239129   4.737   4.036   2.699
13063TIP3    H139130   4.779   4.068   2.619
13063TIP3    H239131   4.678   3.967   2.669
13064TIP3   OH239132   5.973   2.161   4.681
13064TIP3    H139133   6.025   2.144   4.602
13064TIP3    H239134   6.028   2.129   4.752
13065TIP3   OH239135   3.302   7.132   4.172
13065TIP3    H139136   3.347   7.150   4.254
13065TIP3    H239137   3.214   7.166   4.185
13066TIP3   OH239138   0.935   7.611   4.747
13066TIP3    H139139   0.925   7.581   4.837
13066TIP3    H239140   1.026   7.641   4.742
13067TIP3   OH239141   5.915   3.207   1.140
13067TIP3    H139142   5.876   3.280   1.092
13067TIP3    H239143   6.008   3.229   1.145
13068TIP3   OH239144   7.227   7.038   4.368
13068TIP3    H139145   7.149   7.010   4.416
13068TIP3    H239146   7.248   6.964   4.311
13069TIP3   OH239147   5.687   6.126   4.735
13069TIP3    H139148   5.714   6.198   4.679
13069TIP3    H239149   5.769   6.085   4.763
13070TIP3   OH239150   4.742   3.483   6.203
13070TIP3    H139151   4.668   3.440   6.245
13070TIP3    H239152   4.714   3.573   6.191
13071TIP3   OH239153   7.907   4.760   2.538
13071TIP3    H139154   7.896   4.680   2.589
13071TIP3    H239155   7.828   4.811   2.556
13072TIP3   OH239156   0.595   3.411   4.545
13072TIP3    H139157   0.573   3.434   4.636
13072TIP3    H239158   0.639   3.326   4.552
13073TIP3   OH239159   0.894   3.700   5.431
13073TIP3    H139160   0.918   3.609   5.449
13073TIP3    H239161   0.919   3.713   5.339
13074TIP3   OH239162   3.566   2.189   4.888
13074TIP3    H139163   3.488   2.227   4.848
13074TIP3    H239164   3.543   2.177   4.980
13075TIP3   OH239165   2.535   7.815   5.484
13075TIP3    H139166   2.573   7.851   5.564
13075TIP3    H239167   2.602   7.830   5.417
13076TIP3   OH239168   0.659   3.640   5.527
13076TIP3    H139169   0.615   3.665   5.445
13076TIP3    H239170   0.752   3.661   5.511
13077TIP3   OH239171   0.965   3.539   4.715
13077TIP3    H139172   0.886   3.551   4.768
13077TIP3    H239173   0.994   3.627   4.694
13078TIP3   OH239174   3.335   4.723   6.679
13078TIP3    H139175   3.395   4.665   6.725
13078TIP3    H239176   3.248   4.687   6.697
13079TIP3   OH239177   4.049   4.165   2.012
13079TIP3    H139178   4.137   4.199   2.031
13079TIP3    H239179   3.994   4.243   2.005
13080TIP3   OH239180   8.406   1.499   1.491
13080TIP3    H139181   8.316   1.499   1.458
13080TIP3    H239182   8.417   1.586   1.530
13081TIP3   OH239183   6.364   0.046   5.636
13081TIP3    H139184   6.448   0.087   5.660
13081TIP3    H239185   6.377   0.014   5.547
13082TIP3   OH239186   3.756   2.482   5.072
13082TIP3    H139187   3.794   2.465   5.158
13082TIP3    H239188   3.703   2.404   5.053
13083TIP3   OH239189   6.279   1.589   0.117
13083TIP3    H139190   6.322   1.553   0.039
13083TIP3    H239191   6.226   1.662   0.082
13084TIP3   OH239192   4.340   1.751   4.977
13084TIP3    H139193   4.434   1.738   4.960
13084TIP3    H239194   4.332   1.751   5.072
13085TIP3   OH239195   6.578   7.412   1.041
13085TIP3    H139196   6.489   7.425   1.009
13085TIP3    H239197   6.573   7.330   1.091
13086TIP3   OH239198   6.272   6.164   4.557
13086TIP3    H139199   6.210   6.183   4.627
13086TIP3    H239200   6.262   6.070   4.541
13087TIP3   OH239201   2.585   5.910   1.791
13087TIP3    H139202   2.663   5.955   1.759
13087TIP3    H239203   2.570   5.839   1.728
13088TIP3   OH239204   6.582   4.376   1.265
13088TIP3    H139205   6.627   4.438   1.322
13088TIP3    H239206   6.572   4.422   1.182
13089TIP3   OH239207   5.799   7.430   2.006
13089TIP3    H139208   5.855   7.494   1.963
13089TIP3    H239209   5.822   7.346   1.964
13090TIP3   OH239210   6.035   4.437   5.963
13090TIP3    H139211   6.059   4.527   5.983
13090TIP3    H239212   6.062   4.424   5.872
13091TIP3   OH239213   7.195   6.003   3.120
13091TIP3    H139214   7.137   5.999   3.044
13091TIP3    H239215   7.281   5.983   3.086
13092TIP3   OH239216   7.299   2.809   5.070
13092TIP3    H139217   7.381   2.808   5.020
13092TIP3    H239218   7.248   2.736   5.035
13093TIP3   OH239219   5.608   6.678   5.819
13093TIP3    H139220   5.610   6.722   5.734
13093TIP3    H239221   5.526   6.705   5.858
13094TIP3   OH239222   2.029   1.389   0.739
13094TIP3    H139223   2.028   1.374   0.834
13094TIP3    H239224   1.942   1.364   0.709
13095TIP3   OH239225   7.416   0.275   6.114
13095TIP3    H139226   7.477   0.319   6.054
13095TIP3    H239227   7.329   0.295   6.078
13096TIP3   OH239228   0.043   5.061   5.888
13096TIP3    H139229   0.058   5.023   5.974
13096TIP3    H239230   0.041   5.155   5.903
13097TIP3   OH239231   5.333   7.802   4.962
13097TIP3    H139232   5.277   7.845   5.026
13097TIP3    H239233   5.371   7.874   4.911
13098TIP3   OH239234   0.333   5.387   6.163
13098TIP3    H139235   0.259   5.372   6.222
13098TIP3    H239236   0.294   5.421   6.083
13099TIP3   OH239237   6.534   5.498   3.524
13099TIP3    H139238   6.453   5.479   3.476
13099TIP3    H239239   6.562   5.414   3.560
13100TIP3   OH239240   4.644   4.269   6.796
13100TIP3    H139241   4.732   4.262   6.834
13100TIP3    H239242   4.633   4.189   6.745
13101TIP3   OH239243   0.670   0.410   0.651
13101TIP3    H139244   0.764   0.428   0.657
13101TIP3    H239245   0.641   0.406   0.742
13102TIP3   OH239246   3.637   4.844   5.655
13102TIP3    H139247   3.643   4.751   5.633
13102TIP3    H239248   3.622   4.887   5.570
13103TIP3   OH239249   6.933   0.443   3.234
13103TIP3    H139250   6.850   0.396   3.246
13103TIP3    H239251   6.972   0.404   3.156
13104TIP3   OH239252   3.165   0.862   5.543
13104TIP3    H139253   3.125   0.775   5.538
13104TIP3    H239254   3.111   0.916   5.486
13105TIP3   OH239255   2.110   4.650   4.616
13105TIP3    H139256   2.050   4.698   4.560
13105TIP3    H239257   2.089   4.679   4.705
13106TIP3   OH239258   7.279   3.623   2.742
13106TIP3    H139259   7.223   3.665   2.677
13106TIP3    H239260   7.223   3.558   2.784
13107TIP3   OH239261   1.572   3.545   3.175
13107TIP3    H139262   1.625   3.623   3.191
13107TIP3    H239263   1.550   3.512   3.262
13108TIP3   OH239264   1.456   6.052   1.982
13108TIP3    H139265   1.523   5.997   1.941
13108TIP3    H239266   1.375   6.031   1.935
13109TIP3   OH239267   7.568   2.736   0.178
13109TIP3    H139268   7.636   2.676   0.149
13109TIP3    H239269   7.486   2.696   0.146
13110TIP3   OH239270   4.420   5.419   0.823
13110TIP3    H139271   4.338   5.396   0.780
13110TIP3    H239272   4.488   5.388   0.763
13111TIP3   OH239273   5.110   6.834   2.496
13111TIP3    H139274   5.118   6.910   2.438
13111TIP3    H239275   5.043   6.859   2.559
13112TIP3   OH239276   8.042   0.649   6.364
13112TIP3    H139277   8.129   0.627   6.333
13112TIP3    H239278   7.984   0.583   6.325
13113TIP3   OH239279   0.888   0.469   4.670
13113TIP3    H139280   0.904   0.520   4.590
13113TIP3    H239281   0.972   0.470   4.716
13114TIP3   OH239282   0.032   0.321   6.204
13114TIP3    H139283   0.112   0.367   6.229
13114TIP3    H239284   0.008   0.271   6.282
13115TIP3   OH239285   1.858   1.298   3.675
13115TIP3    H139286   1.953   1.306   3.666
13115TIP3    H239287   1.825   1.386   3.656
13116TIP3   OH239288   7.342   2.626   0.101
13116TIP3    H139289   7.299   2.650   0.019
13116TIP3    H239290   7.334   2.531   0.105
13117TIP3   OH239291   1.155   4.503   1.527
13117TIP3    H139292   1.171   4.541   1.614
13117TIP3    H239293   1.242   4.487   1.491
13118TIP3   OH239294   6.188   2.961   6.552
13118TIP3    H139295   6.174   2.887   6.612
13118TIP3    H239296   6.189   3.038   6.608
13119TIP3   OH239297   6.139   7.010   2.970
13119TIP3    H139298   6.232   7.031   2.962
13119TIP3    H239299   6.102   7.079   3.024
13120TIP3   OH239300   3.262   0.120   1.511
13120TIP3    H139301   3.183   0.161   1.475
13120TIP3    H239302   3.308   0.192   1.554
13121TIP3   OH239303   4.299   4.330   0.844
13121TIP3    H139304   4.287   4.353   0.751
13121TIP3    H239305   4.321   4.412   0.886
13122TIP3   OH239306   0.481   5.831   0.048
13122TIP3    H139307   0.459   5.887  -0.027
13122TIP3    H239308   0.449   5.744   0.022
13123TIP3   OH239309   6.512   5.960   2.695
13123TIP3    H139310   6.588   6.014   2.677
13123TIP3    H239311   6.498   5.910   2.615
13124TIP3   OH239312   5.501   3.085   0.070
13124TIP3    H139313   5.584   3.037   0.074
13124TIP3    H239314   5.526   3.177   0.077
13125TIP3   OH239315   2.945   5.282   3.042
13125TIP3    H139316   3.002   5.206   3.056
13125TIP3    H239317   2.960   5.337   3.119
13126TIP3   OH239318   2.640   3.677   5.320
13126TIP3    H139319   2.717   3.645   5.367
13126TIP3    H239320   2.658   3.770   5.304
13127TIP3   OH239321   0.689   3.984   5.656
13127TIP3    H139322   0.749   3.963   5.583
13127TIP3    H239323   0.745   3.985   5.733
13128TIP3   OH239324   5.047   0.751   2.028
13128TIP3    H139325   5.117   0.800   2.070
13128TIP3    H239326   4.974   0.813   2.022
13129TIP3   OH239327   4.963   7.425   0.510
13129TIP3    H139328   4.993   7.444   0.422
13129TIP3    H239329   4.870   7.444   0.509
13130TIP3   OH239330   0.513   0.485   4.454
13130TIP3    H139331   0.418   0.487   4.453
13130TIP3    H239332   0.539   0.577   4.447
13131TIP3   OH239333   4.093   1.507   5.299
13131TIP3    H139334   4.009   1.550   5.314
13131TIP3    H239335   4.100   1.441   5.368
13132TIP3   OH239336   5.049   3.991   3.284
13132TIP3    H139337   4.973   3.975   3.340
13132TIP3    H239338   5.120   3.943   3.326
13133TIP3   OH239339   2.012   1.791   2.133
13133TIP3    H139340   2.045   1.852   2.067
13133TIP3    H239341   2.074   1.799   2.206
13134TIP3   OH239342   8.101   6.880   0.704
13134TIP3    H139343   8.059   6.795   0.688
13134TIP3    H239344   8.193   6.859   0.721
13135TIP3   OH239345   5.948   2.014   5.491
13135TIP3    H139346   5.991   1.934   5.461
13135TIP3    H239347   5.861   1.985   5.518
13136TIP3   OH239348   4.195   7.297   2.038
13136TIP3    H139349   4.183   7.260   1.950
13136TIP3    H239350   4.173   7.225   2.097
13137TIP3   OH239351   3.169   1.493   0.344
13137TIP3    H139352   3.208   1.439   0.413
13137TIP3    H239353   3.074   1.487   0.360
13138TIP3   OH239354   1.502   4.839   1.469
13138TIP3    H139355   1.508   4.894   1.391
13138TIP3    H239356   1.432   4.879   1.521
13139TIP3   OH239357   7.983   0.922   3.043
13139TIP3    H139358   7.912   0.903   2.980
13139TIP3    H239359   8.060   0.880   3.005
13140TIP3   OH239360   7.014   1.212   1.988
13140TIP3    H139361   6.995   1.266   1.911
13140TIP3    H239362   6.928   1.179   2.015
13141TIP3   OH239363   7.934   0.860   5.099
13141TIP3    H139364   7.932   0.825   5.188
13141TIP3    H239365   8.022   0.898   5.089
13142TIP3   OH239366   3.085   3.126   6.361
13142TIP3    H139367   3.050   3.170   6.438
13142TIP3    H239368   3.060   3.034   6.372
13143TIP3   OH239369   1.064   0.455   5.385
13143TIP3    H139370   1.005   0.454   5.461
13143TIP3    H239371   1.118   0.533   5.398
13144TIP3   OH239372   2.840   6.052   5.298
13144TIP3    H139373   2.811   5.982   5.239
13144TIP3    H239374   2.875   6.006   5.374
13145TIP3   OH239375   6.568   7.842   0.540
13145TIP3    H139376   6.624   7.884   0.607
13145TIP3    H239377   6.602   7.753   0.533
13146TIP3   OH239378   6.984   7.153   5.884
13146TIP3    H139379   7.000   7.058   5.880
13146TIP3    H239380   6.899   7.160   5.927
13147TIP3   OH239381   7.439   7.667   3.269
13147TIP3    H139382   7.392   7.689   3.188
13147TIP3    H239383   7.479   7.582   3.250
13148TIP3   OH239384   3.634   3.973   5.707
13148TIP3    H139385   3.706   3.920   5.674
13148TIP3    H239386   3.675   4.036   5.765
13149TIP3   OH239387   3.894   4.342   2.539
13149TIP3    H139388   3.875   4.260   2.585
13149TIP3    H239389   3.889   4.320   2.446
13150TIP3   OH239390   0.560   5.789   4.243
13150TIP3    H139391   0.622   5.771   4.314
13150TIP3    H239392   0.492   5.723   4.254
13151TIP3   OH239393   2.258   4.944   0.176
13151TIP3    H139394   2.346   4.928   0.210
13151TIP3    H239395   2.241   5.036   0.196
13152TIP3   OH239396   1.402   7.331   1.981
13152TIP3    H139397   1.408   7.332   1.885
13152TIP3    H239398   1.453   7.254   2.007
13153TIP3   OH239399   1.133   6.229   5.980
13153TIP3    H139400   1.081   6.285   6.038
13153TIP3    H239401   1.185   6.175   6.040
13154TIP3   OH239402   1.540   4.249   6.395
13154TIP3    H139403   1.465   4.261   6.337
13154TIP3    H239404   1.502   4.235   6.481
13155TIP3   OH239405   0.409   7.440   5.489
13155TIP3    H139406   0.352   7.413   5.561
13155TIP3    H239407   0.430   7.531   5.508
13156TIP3   OH239408   6.630   0.506   4.188
13156TIP3    H139409   6.653   0.435   4.249
13156TIP3    H239410   6.535   0.500   4.180
13157TIP3   OH239411   2.086   7.631   3.347
13157TIP3    H139412   2.103   7.650   3.254
13157TIP3    H239413   2.038   7.549   3.346
13158TIP3   OH239414   7.948   2.288   3.814
13158TIP3    H139415   7.951   2.352   3.743
13158TIP3    H239416   7.975   2.337   3.892
13159TIP3   OH239417   4.370   1.874   5.855
13159TIP3    H139418   4.429   1.817   5.806
13159TIP3    H239419   4.283   1.839   5.839
13160TIP3   OH239420   7.382   6.338   0.355
13160TIP3    H139421   7.372   6.246   0.330
13160TIP3    H239422   7.294   6.374   0.350
13161TIP3   OH239423   4.199   6.510   5.278
13161TIP3    H139424   4.111   6.546   5.286
13161TIP3    H239425   4.226   6.492   5.368
13162TIP3   OH239426   0.161   1.654   0.049
13162TIP3    H139427   0.230   1.693  -0.004
13162TIP3    H239428   0.207   1.608   0.119
13163TIP3   OH239429   2.018   0.951   5.900
13163TIP3    H139430   1.968   0.976   5.978
13163TIP3    H239431   1.951   0.929   5.836
13164TIP3   OH239432   1.406   3.239   5.001
13164TIP3    H139433   1.417   3.203   4.913
13164TIP3    H239434   1.462   3.184   5.056
13165TIP3   OH239435   7.911   7.007   0.564
13165TIP3    H139436   7.985   6.986   0.621
13165TIP3    H239437   7.911   7.103   0.558
13166TIP3   OH239438   7.558   4.447   3.953
13166TIP3    H139439   7.508   4.384   3.900
13166TIP3    H239440   7.647   4.413   3.952
13167TIP3   OH239441   3.199   0.382   1.374
13167TIP3    H139442   3.184   0.453   1.312
13167TIP3    H239443   3.272   0.332   1.337
13168TIP3   OH239444   0.722   3.788   2.957
13168TIP3    H139445   0.660   3.739   2.903
13168TIP3    H239446   0.703   3.760   3.046
13169TIP3   OH239447   3.296   6.709   1.258
13169TIP3    H139448   3.315   6.762   1.181
13169TIP3    H239449   3.201   6.718   1.271
13170TIP3   OH239450   5.777   1.751   0.656
13170TIP3    H139451   5.683   1.762   0.663
13170TIP3    H239452   5.814   1.834   0.687
13171TIP3   OH239453   1.157   6.483   3.327
13171TIP3    H139454   1.085   6.545   3.330
13171TIP3    H239455   1.236   6.537   3.336
13172TIP3   OH239456   5.925   5.741   5.607
13172TIP3    H139457   5.881   5.823   5.585
13172TIP3    H239458   5.873   5.674   5.564
13173TIP3   OH239459   2.393   1.817   0.139
13173TIP3    H139460   2.459   1.875   0.101
13173TIP3    H239461   2.384   1.745   0.076
13174TIP3   OH239462   8.024   2.505   0.344
13174TIP3    H139463   8.051   2.450   0.418
13174TIP3    H239464   7.999   2.588   0.385
13175TIP3   OH239465   8.087   7.009   4.753
13175TIP3    H139466   8.149   6.985   4.685
13175TIP3    H239467   8.051   7.093   4.723
13176TIP3   OH239468   2.514   7.451   3.149
13176TIP3    H139469   2.493   7.382   3.212
13176TIP3    H239470   2.593   7.420   3.104
13177TIP3   OH239471   6.004   5.412   6.438
13177TIP3    H139472   6.063   5.407   6.362
13177TIP3    H239473   5.962   5.498   6.429
13178TIP3   OH239474   1.785   7.072   5.875
13178TIP3    H139475   1.766   6.983   5.905
13178TIP3    H239476   1.876   7.087   5.901
13179TIP3   OH239477   4.480   2.868   5.776
13179TIP3    H139478   4.388   2.893   5.774
13179TIP3    H239479   4.512   2.885   5.688
13180TIP3   OH239480   0.678   5.690   0.473
13180TIP3    H139481   0.663   5.767   0.419
13180TIP3    H239482   0.599   5.637   0.462
13181TIP3   OH239483   6.583   0.608   4.744
13181TIP3    H139484   6.487   0.610   4.744
13181TIP3    H239485   6.608   0.632   4.833
13182TIP3   OH239486   5.203   6.857   0.523
13182TIP3    H139487   5.126   6.828   0.573
13182TIP3    H239488   5.167   6.894   0.442
13183TIP3   OH239489   1.712   1.032   3.116
13183TIP3    H139490   1.782   1.003   3.175
13183TIP3    H239491   1.757   1.088   3.052
13184TIP3   OH239492   5.568   5.738   2.620
13184TIP3    H139493   5.531   5.654   2.648
13184TIP3    H239494   5.594   5.724   2.529
13185TIP3   OH239495   5.330   7.649   1.085
13185TIP3    H139496   5.349   7.555   1.090
13185TIP3    H239497   5.239   7.654   1.056
13186TIP3   OH239498   7.817   0.293   4.785
13186TIP3    H139499   7.900   0.310   4.829
13186TIP3    H239500   7.784   0.380   4.760
13187TIP3   OH239501   2.369   5.831   0.207
13187TIP3    H139502   2.388   5.917   0.245
13187TIP3    H239503   2.348   5.850   0.115
13188TIP3   OH239504   2.186   7.815   1.924
13188TIP3    H139505   2.228   7.776   1.847
13188TIP3    H239506   2.213   7.907   1.921
13189TIP3   OH239507   3.352   6.543   4.226
13189TIP3    H139508   3.302   6.462   4.222
13189TIP3    H239509   3.288   6.610   4.250
13190TIP3   OH239510   0.295   0.049   5.611
13190TIP3    H139511   0.285  -0.041   5.643
13190TIP3    H239512   0.260   0.047   5.522
13191TIP3   OH239513   7.696   1.514   4.708
13191TIP3    H139514   7.623   1.504   4.770
13191TIP3    H239515   7.771   1.476   4.754
13192TIP3   OH239516   2.030   0.323   4.833
13192TIP3    H139517   2.051   0.331   4.740
13192TIP3    H239518   2.115   0.306   4.876
13193TIP3   OH239519   2.522   3.231   1.887
13193TIP3    H139520   2.444   3.272   1.924
13193TIP3    H239521   2.489   3.179   1.813
13194TIP3   OH239522   4.832   2.755   5.161
13194TIP3    H139523   4.889   2.722   5.091
13194TIP3    H239524   4.750   2.779   5.116
13195TIP3   OH239525   5.991   5.816   5.137
13195TIP3    H139526   5.943   5.872   5.198
13195TIP3    H239527   6.006   5.735   5.185
13196TIP3   OH239528   5.585   7.530   0.662
13196TIP3    H139529   5.559   7.520   0.753
13196TIP3    H239530   5.613   7.622   0.655
13197TIP3   OH239531   8.186   0.670   3.578
13197TIP3    H139532   8.269   0.704   3.612
13197TIP3    H239533   8.150   0.618   3.650
13198TIP3   OH239534   2.845   7.147   5.703
13198TIP3    H139535   2.838   7.094   5.623
13198TIP3    H239536   2.809   7.232   5.678
13199TIP3   OH239537   5.608   5.929   4.322
13199TIP3    H139538   5.575   6.018   4.310
13199TIP3    H239539   5.531   5.876   4.340
13200TIP3   OH239540   3.336   6.365   5.286
13200TIP3    H139541   3.411   6.322   5.243
13200TIP3    H239542   3.262   6.308   5.266
13201TIP3   OH239543   8.156   2.391   6.464
13201TIP3    H139544   8.122   2.470   6.507
13201TIP3    H239545   8.078   2.349   6.428
13202TIP3   OH239546   6.161   1.727   3.932
13202TIP3    H139547   6.207   1.774   4.002
13202TIP3    H239548   6.144   1.793   3.866
13203TIP3   OH239549   1.680   1.126   3.566
13203TIP3    H139550   1.723   1.050   3.528
13203TIP3    H239551   1.751   1.185   3.590
13204TIP3   OH239552   2.451   4.755   5.482
13204TIP3    H139553   2.382   4.813   5.514
13204TIP3    H239554   2.531   4.789   5.522
13205TIP3   OH239555   5.107   6.364   6.092
13205TIP3    H139556   5.073   6.388   6.178
13205TIP3    H239557   5.092   6.269   6.086
13206TIP3   OH239558   3.228   7.402   2.015
13206TIP3    H139559   3.255   7.359   2.096
13206TIP3    H239560   3.133   7.398   2.017
13207TIP3   OH239561   1.479   7.125   5.053
13207TIP3    H139562   1.511   7.039   5.025
13207TIP3    H239563   1.438   7.161   4.974
13208TIP3   OH239564   0.710   3.341   4.194
13208TIP3    H139565   0.749   3.257   4.169
13208TIP3    H239566   0.617   3.322   4.203
13209TIP3   OH239567   7.029   0.992   3.130
13209TIP3    H139568   7.108   0.939   3.117
13209TIP3    H239569   6.965   0.954   3.070
13210TIP3   OH239570   7.349   5.443   4.966
13210TIP3    H139571   7.337   5.349   4.982
13210TIP3    H239572   7.304   5.485   5.039
13211TIP3   OH239573   6.896   7.851   3.452
13211TIP3    H139574   6.862   7.762   3.466
13211TIP3    H239575   6.927   7.850   3.361
13212TIP3   OH239576   3.974   4.212   1.500
13212TIP3    H139577   3.997   4.276   1.433
13212TIP3    H239578   3.919   4.149   1.454
13213TIP3   OH239579   0.820   4.418   3.099
13213TIP3    H139580   0.764   4.421   3.021
13213TIP3    H239581   0.902   4.380   3.068
13214TIP3   OH239582   1.227   7.154   3.990
13214TIP3    H139583   1.204   7.243   4.018
13214TIP3    H239584   1.317   7.142   4.020
13215TIP3   OH239585   2.846   6.932   0.075
13215TIP3    H139586   2.766   6.978   0.099
13215TIP3    H239587   2.819   6.868   0.009
13216TIP3   OH239588   1.232   3.582   0.046
13216TIP3    H139589   1.301   3.606  -0.015
13216TIP3    H239590   1.279   3.562   0.128
13217TIP3   OH239591   0.371   2.554   4.823
13217TIP3    H139592   0.335   2.473   4.788
13217TIP3    H239593   0.450   2.527   4.870
13218TIP3   OH239594   1.436   6.830   5.796
13218TIP3    H139595   1.353   6.878   5.805
13218TIP3    H239596   1.503   6.898   5.802
13219TIP3   OH239597   6.990   3.458   0.093
13219TIP3    H139598   6.933   3.442   0.169
13219TIP3    H239599   7.023   3.371   0.070
13220TIP3   OH239600   5.746   5.339   5.695
13220TIP3    H139601   5.841   5.325   5.691
13220TIP3    H239602   5.735   5.433   5.680
13221TIP3   OH239603   6.436   7.098   3.828
13221TIP3    H139604   6.394   7.176   3.864
13221TIP3    H239605   6.462   7.123   3.739
13222TIP3   OH239606   6.974   6.415   3.374
13222TIP3    H139607   7.060   6.395   3.337
13222TIP3    H239608   6.915   6.352   3.332
13223TIP3   OH239609   8.168   7.402   5.437
13223TIP3    H139610   8.143   7.316   5.405
13223TIP3    H239611   8.139   7.404   5.528
13224TIP3   OH239612   0.559   7.084   6.042
13224TIP3    H139613   0.559   7.169   5.998
13224TIP3    H239614   0.551   7.021   5.971
13225TIP3   OH239615   3.644   3.449   6.564
13225TIP3    H139616   3.578   3.380   6.567
13225TIP3    H239617   3.727   3.404   6.570
13226TIP3   OH239618   0.463   3.969   3.008
13226TIP3    H139619   0.529   3.908   2.976
13226TIP3    H239620   0.456   4.036   2.940
13227TIP3   OH239621   4.053   2.247   1.212
13227TIP3    H139622   4.123   2.211   1.265
13227TIP3    H239623   3.987   2.276   1.275
13228TIP3   OH239624   2.784   7.159   3.173
13228TIP3    H139625   2.694   7.146   3.143
13228TIP3    H239626   2.825   7.074   3.162
13229TIP3   OH239627   8.309   5.106   3.958
13229TIP3    H139628   8.398   5.097   3.991
13229TIP3    H239629   8.255   5.057   4.020
13230TIP3   OH239630   1.163   3.960   4.968
13230TIP3    H139631   1.106   3.925   4.900
13230TIP3    H239632   1.218   3.886   4.994
13231TIP3   OH239633   6.820   0.930   2.948
13231TIP3    H139634   6.840   0.982   2.870
13231TIP3    H239635   6.741   0.972   2.984
13232TIP3   OH239636   6.598   4.171   1.458
13232TIP3    H139637   6.510   4.144   1.485
13232TIP3    H239638   6.584   4.219   1.377
13233TIP3   OH239639   3.322   2.638   2.524
13233TIP3    H139640   3.304   2.720   2.479
13233TIP3    H239641   3.244   2.623   2.579
13234TIP3   OH239642   5.649   5.369   5.324
13234TIP3    H139643   5.599   5.334   5.397
13234TIP3    H239644   5.717   5.303   5.307
13235TIP3   OH239645   1.971   7.198   5.507
13235TIP3    H139646   2.048   7.254   5.498
13235TIP3    H239647   1.961   7.186   5.601
13236TIP3   OH239648   7.873   6.482   5.323
13236TIP3    H139649   7.807   6.418   5.351
13236TIP3    H239650   7.949   6.429   5.300
13237TIP3   OH239651   2.516   3.668   0.909
13237TIP3    H139652   2.589   3.611   0.935
13237TIP3    H239653   2.558   3.741   0.863
13238TIP3   OH239654   0.582   0.920   4.735
13238TIP3    H139655   0.512   0.934   4.672
13238TIP3    H239656   0.659   0.961   4.695
13239TIP3   OH239657   8.393   0.870   3.526
13239TIP3    H139658   8.334   0.921   3.581
13239TIP3    H239659   8.432   0.934   3.466
13240TIP3   OH239660   4.246   2.312   4.754
13240TIP3    H139661   4.243   2.218   4.772
13240TIP3    H239662   4.291   2.318   4.669
13241TIP3   OH239663   7.070   2.584   4.578
13241TIP3    H139664   7.054   2.599   4.484
13241TIP3    H239665   7.009   2.643   4.622
13242TIP3   OH239666   2.226   0.627   1.873
13242TIP3    H139667   2.270   0.682   1.938
13242TIP3    H239668   2.147   0.596   1.918
13243TIP3   OH239669   3.914   5.459   0.441
13243TIP3    H139670   3.932   5.435   0.532
13243TIP3    H239671   3.983   5.416   0.390
13244TIP3   OH239672   4.771   6.552   1.087
13244TIP3    H139673   4.724   6.473   1.113
13244TIP3    H239674   4.714   6.624   1.112
13245TIP3   OH239675   0.591   5.540   3.435
13245TIP3    H139676   0.521   5.553   3.500
13245TIP3    H239677   0.660   5.495   3.484
13246TIP3   OH239678   6.209   4.162   4.932
13246TIP3    H139679   6.228   4.101   5.004
13246TIP3    H239680   6.146   4.224   4.969
13247TIP3   OH239681   1.745   0.520   0.734
13247TIP3    H139682   1.741   0.607   0.775
13247TIP3    H239683   1.828   0.483   0.765
13248TIP3   OH239684   6.166   2.522   2.065
13248TIP3    H139685   6.240   2.493   2.012
13248TIP3    H239686   6.089   2.500   2.012
13249TIP3   OH239687   7.562   2.491   2.701
13249TIP3    H139688   7.633   2.430   2.723
13249TIP3    H239689   7.562   2.554   2.773
13250TIP3   OH239690   0.853   2.496   2.028
13250TIP3    H139691   0.920   2.562   2.010
13250TIP3    H239692   0.793   2.500   1.953
13251TIP3   OH239693   0.338   0.133   1.828
13251TIP3    H139694   0.338   0.167   1.738
13251TIP3    H239695   0.332   0.038   1.818
13252TIP3   OH239696   0.056   2.880   0.147
13252TIP3    H139697   0.114   2.857   0.075
13252TIP3    H239698  -0.019   2.821   0.138
13253TIP3   OH239699   6.756   7.349   4.374
13253TIP3    H139700   6.751   7.441   4.349
13253TIP3    H239701   6.780   7.351   4.467
13254TIP3   OH239702   4.015   6.041   1.646
13254TIP3    H139703   4.072   5.964   1.647
13254TIP3    H239704   4.043   6.093   1.722
13255TIP3   OH239705   2.375   1.569   4.028
13255TIP3    H139706   2.457   1.521   4.041
13255TIP3    H239707   2.395   1.658   4.056
13256TIP3   OH239708   0.317   1.230   5.872
13256TIP3    H139709   0.397   1.193   5.834
13256TIP3    H239710   0.256   1.156   5.876
13257TIP3   OH239711   0.669   0.613   3.896
13257TIP3    H139712   0.758   0.646   3.902
13257TIP3    H239713   0.615   0.683   3.935
13258TIP3   OH239714   3.971   7.821   5.222
13258TIP3    H139715   4.019   7.904   5.229
13258TIP3    H239716   4.022   7.760   5.275
13259TIP3   OH239717   0.273   4.900   2.287
13259TIP3    H139718   0.187   4.893   2.330
13259TIP3    H239719   0.302   4.989   2.307
13260TIP3   OH239720   2.438   6.164   2.401
13260TIP3    H139721   2.496   6.112   2.457
13260TIP3    H239722   2.378   6.207   2.462
13261TIP3   OH239723   5.022   1.532   2.148
13261TIP3    H139724   4.929   1.535   2.125
13261TIP3    H239725   5.062   1.601   2.094
13262TIP3   OH239726   5.625   7.000   3.352
13262TIP3    H139727   5.592   6.945   3.280
13262TIP3    H239728   5.685   6.942   3.399
13263TIP3   OH239729   5.125   4.225   2.602
13263TIP3    H139730   5.173   4.308   2.594
13263TIP3    H239731   5.122   4.209   2.697
13264TIP3   OH239732   7.826   6.679   0.189
13264TIP3    H139733   7.875   6.618   0.133
13264TIP3    H239734   7.737   6.643   0.191
13265TIP3   OH239735   5.167   0.038   1.335
13265TIP3    H139736   5.157   0.098   1.261
13265TIP3    H239737   5.128   0.085   1.409
13266TIP3   OH239738   5.053   5.940   4.538
13266TIP3    H139739   5.118   5.999   4.575
13266TIP3    H239740   4.989   5.998   4.496
13267TIP3   OH239741   4.684   4.907   5.629
13267TIP3    H139742   4.631   4.835   5.595
13267TIP3    H239743   4.653   4.984   5.582
13268TIP3   OH239744   0.832   5.006   0.390
13268TIP3    H139745   0.792   5.079   0.343
13268TIP3    H239746   0.811   5.022   0.482
13269TIP3   OH239747   5.665   1.032   4.501
13269TIP3    H139748   5.646   1.072   4.416
13269TIP3    H239749   5.592   1.061   4.557
13270TIP3   OH239750   8.073   1.309   2.269
13270TIP3    H139751   8.085   1.309   2.174
13270TIP3    H239752   8.016   1.234   2.287
13271TIP3   OH239753   6.708   4.013   2.522
13271TIP3    H139754   6.658   4.056   2.453
13271TIP3    H239755   6.717   3.923   2.492
13272TIP3   OH239756   5.085   6.047   0.090
13272TIP3    H139757   5.094   6.016   0.000
13272TIP3    H239758   5.047   5.973   0.137
13273TIP3   OH239759   3.108   0.555   6.835
13273TIP3    H139760   3.121   0.503   6.756
13273TIP3    H239761   3.100   0.490   6.905
13274TIP3   OH239762   5.544   5.426   4.866
13274TIP3    H139763   5.494   5.375   4.929
13274TIP3    H239764   5.480   5.449   4.798
13275TIP3   OH239765   0.755   1.062   5.663
13275TIP3    H139766   0.782   1.081   5.573
13275TIP3    H239767   0.756   0.966   5.669
13276TIP3   OH239768   5.385   6.158   5.106
13276TIP3    H139769   5.348   6.070   5.092
13276TIP3    H239770   5.433   6.177   5.025
13277TIP3   OH239771   6.251   3.277   5.305
13277TIP3    H139772   6.205   3.350   5.265
13277TIP3    H239773   6.241   3.291   5.400
13278TIP3   OH239774   6.842   1.092   2.730
13278TIP3    H139775   6.812   1.168   2.780
13278TIP3    H239776   6.796   1.099   2.646
13279TIP3   OH239777   0.652   2.117   4.326
13279TIP3    H139778   0.596   2.055   4.372
13279TIP3    H239779   0.737   2.110   4.370
13280TIP3   OH239780   3.941   5.219   1.494
13280TIP3    H139781   3.885   5.271   1.436
13280TIP3    H239782   3.929   5.259   1.581
13281TIP3   OH239783   2.243   5.835   2.660
13281TIP3    H139784   2.177   5.901   2.639
13281TIP3    H239785   2.205   5.753   2.631
13282TIP3   OH239786   0.542   3.731   2.277
13282TIP3    H139787   0.562   3.756   2.368
13282TIP3    H239788   0.620   3.685   2.247
13283TIP3   OH239789   8.241   0.530   6.224
13283TIP3    H139790   8.275   0.604   6.174
13283TIP3    H239791   8.283   0.453   6.185
13284TIP3   OH239792   7.219   6.979   5.698
13284TIP3    H139793   7.174   6.969   5.781
13284TIP3    H239794   7.281   7.050   5.713
13285TIP3   OH239795   2.201   3.938   2.379
13285TIP3    H139796   2.260   3.865   2.360
13285TIP3    H239797   2.201   3.944   2.475
13286TIP3   OH239798   4.644   3.967   6.449
13286TIP3    H139799   4.566   3.915   6.468
13286TIP3    H239800   4.609   4.050   6.416
13287TIP3   OH239801   1.243   3.435   3.366
13287TIP3    H139802   1.148   3.424   3.362
13287TIP3    H239803   1.268   3.395   3.449
13288TIP3   OH239804   0.127   3.018   4.260
13288TIP3    H139805   0.215   2.982   4.266
13288TIP3    H239806   0.132   3.104   4.303
13289TIP3   OH239807   2.816   4.231   2.506
13289TIP3    H139808   2.888   4.294   2.506
13289TIP3    H239809   2.857   4.147   2.528
13290TIP3   OH239810   1.623   0.339   1.387
13290TIP3    H139811   1.630   0.390   1.469
13290TIP3    H239812   1.575   0.261   1.412
13291TIP3   OH239813   1.912   0.942   1.938
13291TIP3    H139814   1.874   0.860   1.906
13291TIP3    H239815   1.838   1.003   1.940
13292TIP3   OH239816   5.824   4.233   4.043
13292TIP3    H139817   5.881   4.157   4.032
13292TIP3    H239818   5.738   4.203   4.014
13293TIP3   OH239819   4.223   5.081   5.798
13293TIP3    H139820   4.305   5.121   5.768
13293TIP3    H239821   4.155   5.130   5.754
13294TIP3   OH239822   5.839   2.306   6.485
13294TIP3    H139823   5.848   2.286   6.578
13294TIP3    H239824   5.769   2.372   6.482
13295TIP3   OH239825   1.386   0.098   6.240
13295TIP3    H139826   1.460   0.038   6.250
13295TIP3    H239827   1.328   0.055   6.178
13296TIP3   OH239828   2.230   4.564   5.762
13296TIP3    H139829   2.265   4.650   5.781
13296TIP3    H239830   2.297   4.503   5.794
13297TIP3   OH239831   4.587   7.704   6.541
13297TIP3    H139832   4.595   7.749   6.456
13297TIP3    H239833   4.585   7.775   6.605
13298TIP3   OH239834   5.457   2.937   3.806
13298TIP3    H139835   5.540   2.927   3.854
13298TIP3    H239836   5.481   2.923   3.714
13299TIP3   OH239837   5.850   3.025   5.971
13299TIP3    H139838   5.828   3.073   5.891
13299TIP3    H239839   5.944   3.007   5.962
13300TIP3   OH239840   1.846   5.147   1.108
13300TIP3    H139841   1.832   5.059   1.142
13300TIP3    H239842   1.762   5.172   1.071
13301TIP3   OH239843   0.879   3.642   1.520
13301TIP3    H139844   0.852   3.731   1.538
13301TIP3    H239845   0.878   3.635   1.425
13302TIP3   OH239846   7.977   0.967   3.897
13302TIP3    H139847   8.053   0.914   3.924
13302TIP3    H239848   7.977   1.041   3.958
13303TIP3   OH239849   3.671   7.575   2.105
13303TIP3    H139850   3.728   7.523   2.161
13303TIP3    H239851   3.704   7.665   2.114
13304TIP3   OH239852   1.542   0.592   4.728
13304TIP3    H139853   1.631   0.622   4.747
13304TIP3    H239854   1.546   0.561   4.638
13305TIP3   OH239855   4.285   3.517   5.892
13305TIP3    H139856   4.313   3.426   5.876
13305TIP3    H239857   4.286   3.525   5.988
13306TIP3   OH239858   1.800   7.824   4.413
13306TIP3    H139859   1.719   7.860   4.449
13306TIP3    H239860   1.771   7.762   4.347
13307TIP3   OH239861   7.395   0.370   0.314
13307TIP3    H139862   7.469   0.378   0.254
13307TIP3    H239863   7.318   0.387   0.259
13308TIP3   OH239864   0.197   0.605   6.291
13308TIP3    H139865   0.254   0.659   6.346
13308TIP3    H239866   0.109   0.625   6.320
13309TIP3   OH239867   6.767   2.919   2.571
13309TIP3    H139868   6.787   3.005   2.608
13309TIP3    H239869   6.813   2.917   2.488
13310TIP3   OH239870   0.105   4.127   3.619
13310TIP3    H139871   0.011   4.130   3.636
13310TIP3    H239872   0.118   4.046   3.569
13311TIP3   OH239873   3.380   4.831   1.413
13311TIP3    H139874   3.471   4.861   1.408
13311TIP3    H239875   3.351   4.828   1.322
13312TIP3   OH239876   0.554   4.085   4.119
13312TIP3    H139877   0.495   4.156   4.097
13312TIP3    H239878   0.538   4.068   4.212
13313TIP3   OH239879   6.616   0.345   1.473
13313TIP3    H139880   6.629   0.298   1.555
13313TIP3    H239881   6.561   0.288   1.420
13314TIP3   OH239882   4.144   7.899   4.784
13314TIP3    H139883   4.105   7.927   4.701
13314TIP3    H239884   4.072   7.859   4.832
13315TIP3   OH239885   4.194   5.261   5.087
13315TIP3    H139886   4.132   5.262   5.014
13315TIP3    H239887   4.262   5.325   5.062
13316TIP3   OH239888   1.926   0.457   5.817
13316TIP3    H139889   1.841   0.428   5.781
13316TIP3    H239890   1.921   0.552   5.817
13317TIP3   OH239891   7.411   1.812   4.669
13317TIP3    H139892   7.382   1.853   4.587
13317TIP3    H239893   7.490   1.860   4.693
13318TIP3   OH239894   1.238   5.077   6.285
13318TIP3    H139895   1.294   5.151   6.264
13318TIP3    H239896   1.186   5.106   6.360
13319TIP3   OH239897   4.144   0.500   5.784
13319TIP3    H139898   4.049   0.491   5.773
13319TIP3    H239899   4.166   0.435   5.851
13320TIP3   OH239900   4.149   4.280   4.052
13320TIP3    H139901   4.182   4.209   3.997
13320TIP3    H239902   4.063   4.250   4.081
13321TIP3   OH239903   8.192   7.413   3.521
13321TIP3    H139904   8.227   7.483   3.465
13321TIP3    H239905   8.099   7.410   3.498
13322TIP3   OH239906   2.152   3.077   1.678
13322TIP3    H139907   2.092   3.041   1.613
13322TIP3    H239908   2.095   3.114   1.746
13323TIP3   OH239909   5.369   7.606   2.397
13323TIP3    H139910   5.332   7.580   2.313
13323TIP3    H239911   5.390   7.699   2.385
13324TIP3   OH239912   5.201   1.029   2.603
13324TIP3    H139913   5.260   1.063   2.670
13324TIP3    H239914   5.140   1.102   2.586
13325TIP3   OH239915   4.711   0.617   0.628
13325TIP3    H139916   4.666   0.657   0.702
13325TIP3    H239917   4.757   0.690   0.586
13326TIP3   OH239918   4.427   6.625   3.574
13326TIP3    H139919   4.487   6.657   3.642
13326TIP3    H239920   4.464   6.658   3.492
13327TIP3   OH239921   0.740   3.593   0.459
13327TIP3    H139922   0.673   3.594   0.528
13327TIP3    H239923   0.735   3.681   0.421
13328TIP3   OH239924   4.194   4.058   0.865
13328TIP3    H139925   4.267   4.099   0.912
13328TIP3    H239926   4.204   4.089   0.775
13329TIP3   OH239927   1.317   5.621   5.771
13329TIP3    H139928   1.282   5.536   5.743
13329TIP3    H239929   1.251   5.684   5.743
13330TIP3   OH239930   3.120   4.604   4.150
13330TIP3    H139931   3.134   4.580   4.241
13330TIP3    H239932   3.030   4.634   4.146
13331TIP3   OH239933   5.748   3.833   2.961
13331TIP3    H139934   5.690   3.795   2.895
13331TIP3    H239935   5.756   3.763   3.027
13332TIP3   OH239936   7.675   4.329   0.254
13332TIP3    H139937   7.691   4.377   0.335
13332TIP3    H239938   7.762   4.297   0.229
13333TIP3   OH239939   4.706   0.664   3.182
13333TIP3    H139940   4.728   0.643   3.091
13333TIP3    H239941   4.671   0.753   3.178
13334TIP3   OH239942   5.583   7.277   1.460
13334TIP3    H139943   5.620   7.198   1.498
13334TIP3    H239944   5.540   7.247   1.380
13335TIP3   OH239945   8.097   5.983   0.416
13335TIP3    H139946   8.109   5.889   0.429
13335TIP3    H239947   8.183   6.021   0.436
13336TIP3   OH239948   3.223   2.249   0.512
13336TIP3    H139949   3.234   2.171   0.458
13336TIP3    H239950   3.206   2.216   0.600
13337TIP3   OH239951   5.927   2.967   1.824
13337TIP3    H139952   6.008   3.011   1.850
13337TIP3    H239953   5.886   3.027   1.761
13338TIP3   OH239954   6.197   0.495   6.692
13338TIP3    H139955   6.145   0.574   6.678
13338TIP3    H239956   6.138   0.435   6.736
13339TIP3   OH239957   5.710   3.031   5.522
13339TIP3    H139958   5.779   2.986   5.572
13339TIP3    H239959   5.641   2.966   5.513
13340TIP3   OH239960   0.410   5.889   0.519
13340TIP3    H139961   0.456   5.926   0.593
13340TIP3    H239962   0.449   5.930   0.442
13341TIP3   OH239963   6.709   1.636   3.239
13341TIP3    H139964   6.765   1.589   3.177
13341TIP3    H239965   6.771   1.684   3.294
13342TIP3   OH239966   5.732   3.321   4.658
13342TIP3    H139967   5.749   3.359   4.571
13342TIP3    H239968   5.667   3.379   4.696
13343TIP3   OH239969   5.853   6.022   1.161
13343TIP3    H139970   5.812   6.060   1.238
13343TIP3    H239971   5.941   5.998   1.190
13344TIP3   OH239972   3.933   2.533   3.546
13344TIP3    H139973   3.945   2.628   3.555
13344TIP3    H239974   4.002   2.494   3.600
13345TIP3   OH239975   1.104   4.856   6.529
13345TIP3    H139976   1.079   4.934   6.479
13345TIP3    H239977   1.041   4.853   6.601
13346TIP3   OH239978   7.583   4.017   4.653
13346TIP3    H139979   7.623   4.094   4.611
13346TIP3    H239980   7.641   3.945   4.630
13347TIP3   OH239981   4.223   0.298   2.674
13347TIP3    H139982   4.212   0.219   2.728
13347TIP3    H239983   4.234   0.369   2.736
13348TIP3   OH239984   0.509   7.304   4.527
13348TIP3    H139985   0.590   7.350   4.552
13348TIP3    H239986   0.494   7.242   4.598
13349TIP3   OH239987   0.312   7.408   0.395
13349TIP3    H139988   0.264   7.447   0.468
13349TIP3    H239989   0.271   7.322   0.384
13350TIP3   OH239990   8.035   4.145   2.936
13350TIP3    H139991   8.033   4.059   2.894
13350TIP3    H239992   7.989   4.202   2.876
13351TIP3   OH239993   5.484   7.767   1.820
13351TIP3    H139994   5.522   7.689   1.862
13351TIP3    H239995   5.463   7.739   1.731
13352TIP3   OH239996   0.851   0.182   5.582
13352TIP3    H139997   0.800   0.170   5.662
13352TIP3    H239998   0.941   0.159   5.607
13353TIP3   OH239999   6.223   2.220   0.589
13353TIP3    H140000   6.275   2.172   0.653
13353TIP3    H240001   6.168   2.278   0.641
13354TIP3   OH240002   1.617   4.781   3.202
13354TIP3    H140003   1.638   4.722   3.275
13354TIP3    H240004   1.528   4.756   3.176
13355TIP3   OH240005   3.208   4.703   0.176
13355TIP3    H140006   3.182   4.674   0.089
13355TIP3    H240007   3.293   4.663   0.191
13356TIP3   OH240008   6.019   3.740   0.442
13356TIP3    H140009   6.021   3.659   0.492
13356TIP3    H240010   5.996   3.808   0.506
13357TIP3   OH240011   2.440   4.099   0.359
13357TIP3    H140012   2.433   4.020   0.306
13357TIP3    H240013   2.438   4.068   0.450
13358TIP3   OH240014   3.408   6.832   5.089
13358TIP3    H140015   3.418   6.846   5.184
13358TIP3    H240016   3.320   6.796   5.080
13359TIP3   OH240017   2.351   3.583   1.730
13359TIP3    H140018   2.300   3.520   1.783
13359TIP3    H240019   2.436   3.586   1.773
13360TIP3   OH240020   1.383   5.710   2.475
13360TIP3    H140021   1.343   5.711   2.388
13360TIP3    H240022   1.395   5.803   2.497
13361TIP3   OH240023   3.961   3.187   4.744
13361TIP3    H140024   4.048   3.148   4.748
13361TIP3    H240025   3.917   3.140   4.673
13362TIP3   OH240026   7.225   3.414   5.906
13362TIP3    H140027   7.308   3.403   5.861
13362TIP3    H240028   7.231   3.501   5.947
13363TIP3   OH240029   1.579   1.575   4.783
13363TIP3    H140030   1.634   1.580   4.861
13363TIP3    H240031   1.633   1.530   4.718
13364TIP3   OH240032   3.979   7.901   1.811
13364TIP3    H140033   3.938   7.815   1.819
13364TIP3    H240034   4.038   7.907   1.886
13365TIP3   OH240035   8.042   4.773   2.944
13365TIP3    H140036   7.950   4.747   2.957
13365TIP3    H240037   8.052   4.852   2.997
13366TIP3   OH240038   6.200   6.644   0.987
13366TIP3    H140039   6.134   6.609   1.048
13366TIP3    H240040   6.251   6.568   0.960
13367TIP3   OH240041   1.884   3.574   3.451
13367TIP3    H140042   1.976   3.551   3.467
13367TIP3    H240043   1.844   3.569   3.538
13368TIP3   OH240044   1.206   3.826   5.643
13368TIP3    H140045   1.159   3.808   5.725
13368TIP3    H240046   1.216   3.921   5.641
13369TIP3   OH240047   6.741   3.923   1.470
13369TIP3    H140048   6.772   3.927   1.379
13369TIP3    H240049   6.692   4.004   1.482
13370TIP3   OH240050   5.999   1.103   3.299
13370TIP3    H140051   5.991   1.180   3.243
13370TIP3    H240052   6.076   1.057   3.265
13371TIP3   OH240053   7.633   2.183   6.006
13371TIP3    H140054   7.633   2.110   5.944
13371TIP3    H240055   7.682   2.252   5.961
13372TIP3   OH240056   1.559   3.155   0.990
13372TIP3    H140057   1.571   3.249   1.001
13372TIP3    H240058   1.464   3.145   0.977
13373TIP3   OH240059   7.456   5.602   3.564
13373TIP3    H140060   7.500   5.653   3.495
13373TIP3    H240061   7.380   5.656   3.588
13374TIP3   OH240062   7.560   5.682   0.411
13374TIP3    H140063   7.515   5.718   0.487
13374TIP3    H240064   7.542   5.744   0.340
13375TIP3   OH240065   5.625   1.438   2.560
13375TIP3    H140066   5.573   1.508   2.599
13375TIP3    H240067   5.706   1.481   2.534
13376TIP3   OH240068   3.362   3.638   1.775
13376TIP3    H140069   3.419   3.592   1.837
13376TIP3    H240070   3.296   3.573   1.750
13377TIP3   OH240071   2.295   2.208   5.266
13377TIP3    H140072   2.262   2.153   5.337
13377TIP3    H240073   2.263   2.167   5.186
13378TIP3   OH240074   8.314   7.435   1.967
13378TIP3    H140075   8.299   7.340   1.964
13378TIP3    H240076   8.310   7.463   1.875
13379TIP3   OH240077   6.088   7.838   3.052
13379TIP3    H140078   6.048   7.924   3.064
13379TIP3    H240079   6.106   7.832   2.959
13380TIP3   OH240080   1.100   0.074   5.612
13380TIP3    H140081   1.139   0.011   5.672
13380TIP3    H240082   1.109   0.033   5.526
13381TIP3   OH240083   1.096   3.606   1.740
13381TIP3    H140084   1.058   3.586   1.654
13381TIP3    H240085   1.028   3.657   1.785
13382TIP3   OH240086   7.077   1.846   3.454
13382TIP3    H140087   7.063   1.753   3.471
13382TIP3    H240088   7.167   1.852   3.422
13383TIP3   OH240089   5.402   2.461   6.682
13383TIP3    H140090   5.439   2.502   6.760
13383TIP3    H240091   5.459   2.491   6.611
13384TIP3   OH240092   2.048   6.503   6.436
13384TIP3    H140093   2.035   6.590   6.474
13384TIP3    H240094   2.060   6.519   6.343
13385TIP3   OH240095   7.131   2.154   1.437
13385TIP3    H140096   7.223   2.159   1.463
13385TIP3    H240097   7.085   2.126   1.516
13386TIP3   OH240098   6.605   3.284   0.337
13386TIP3    H140099   6.546   3.264   0.265
13386TIP3    H240100   6.547   3.305   0.411
13387TIP3   OH240101   2.771   6.493   6.006
13387TIP3    H140102   2.836   6.440   6.052
13387TIP3    H240103   2.772   6.459   5.916
13388TIP3   OH240104   7.909   4.530   2.090
13388TIP3    H140105   7.852   4.604   2.111
13388TIP3    H240106   7.858   4.479   2.026
13389TIP3   OH240107   6.464   0.536   0.495
13389TIP3    H140108   6.477   0.455   0.445
13389TIP3    H240109   6.373   0.531   0.526
13390TIP3   OH240110   2.031   2.921   6.293
13390TIP3    H140111   1.958   2.933   6.232
13390TIP3    H240112   1.992   2.877   6.369
13391TIP3   OH240113   1.857   2.682   5.359
13391TIP3    H140114   1.776   2.691   5.309
13391TIP3    H240115   1.839   2.728   5.441
13392TIP3   OH240116   4.040   3.380   6.852
13392TIP3    H140117   4.002   3.442   6.790
13392TIP3    H240118   4.123   3.354   6.811
13393TIP3   OH240119   0.346   6.073   4.413
13393TIP3    H140120   0.327   6.167   4.408
13393TIP3    H240121   0.352   6.045   4.321
13394TIP3   OH240122   6.967   1.910   1.707
13394TIP3    H140123   6.873   1.924   1.701
13394TIP3    H240124   6.998   1.975   1.771
13395TIP3   OH240125   2.402   4.503   5.370
13395TIP3    H140126   2.413   4.591   5.408
13395TIP3    H240127   2.317   4.474   5.402
13396TIP3   OH240128   7.043   6.673   2.719
13396TIP3    H140129   7.039   6.759   2.761
13396TIP3    H240130   7.068   6.692   2.628
13397TIP3   OH240131   0.343   4.156   1.981
13397TIP3    H140132   0.379   4.068   1.991
13397TIP3    H240133   0.402   4.211   2.033
13398TIP3   OH240134   0.757   5.427   0.197
13398TIP3    H140135   0.819   5.483   0.150
13398TIP3    H240136   0.790   5.425   0.287
13399TIP3   OH240137   5.793   4.245   1.703
13399TIP3    H140138   5.699   4.246   1.721
13399TIP3    H240139   5.804   4.178   1.636
13400TIP3   OH240140   1.422   0.366   2.014
13400TIP3    H140141   1.503   0.336   2.055
13400TIP3    H240142   1.403   0.450   2.056
13401TIP3   OH240143   6.682   0.344   5.251
13401TIP3    H140144   6.721   0.432   5.256
13401TIP3    H240145   6.745   0.293   5.200
13402TIP3   OH240146   0.958   0.160   6.568
13402TIP3    H140147   0.917   0.074   6.566
13402TIP3    H240148   0.920   0.206   6.493
13403TIP3   OH240149   4.196   4.936   6.033
13403TIP3    H140150   4.202   4.968   5.943
13403TIP3    H240151   4.155   5.008   6.081
13404TIP3   OH240152   3.950   3.094   2.075
13404TIP3    H140153   3.898   3.036   2.019
13404TIP3    H240154   3.894   3.171   2.089
13405TIP3   OH240155   5.448   2.268   2.842
13405TIP3    H140156   5.504   2.327   2.893
13405TIP3    H240157   5.438   2.311   2.758
13406TIP3   OH240158   5.677   5.707   0.960
13406TIP3    H140159   5.752   5.765   0.950
13406TIP3    H240160   5.686   5.669   1.047
13407TIP3   OH240161   5.189   5.587   0.296
13407TIP3    H140162   5.265   5.555   0.344
13407TIP3    H240163   5.130   5.512   0.291
13408TIP3   OH240164   0.350   7.709   5.620
13408TIP3    H140165   0.258   7.735   5.615
13408TIP3    H240166   0.393   7.784   5.661
13409TIP3   OH240167   2.098   6.844   0.910
13409TIP3    H140168   2.105   6.773   0.846
13409TIP3    H240169   2.186   6.881   0.914
13410TIP3   OH240170   1.013   5.073   5.676
13410TIP3    H140171   0.978   5.137   5.738
13410TIP3    H240172   0.958   4.996   5.687
13411TIP3   OH240173   3.001   1.151   6.078
13411TIP3    H140174   3.086   1.111   6.098
13411TIP3    H240175   2.956   1.086   6.025
13412TIP3   OH240176   8.339   2.372   1.056
13412TIP3    H140177   8.348   2.466   1.076
13412TIP3    H240178   8.418   2.351   1.006
13413TIP3   OH240179   2.218   3.997   6.833
13413TIP3    H140180   2.158   3.931   6.797
13413TIP3    H240181   2.294   3.946   6.863
13414TIP3   OH240182   0.513   6.542   2.829
13414TIP3    H140183   0.432   6.567   2.873
13414TIP3    H240184   0.520   6.600   2.753
13415TIP3   OH240185   8.131   1.469   3.383
13415TIP3    H140186   8.121   1.402   3.316
13415TIP3    H240187   8.043   1.478   3.421
13416TIP3   OH240188   2.397   6.837   1.264
13416TIP3    H140189   2.387   6.743   1.251
13416TIP3    H240190   2.465   6.845   1.331
13417TIP3   OH240191   5.066   4.291   0.692
13417TIP3    H140192   5.157   4.261   0.681
13417TIP3    H240193   5.014   4.230   0.639
13418TIP3   OH240194   5.294   6.663   3.438
13418TIP3    H140195   5.329   6.576   3.457
13418TIP3    H240196   5.204   6.648   3.411
13419TIP3   OH240197   3.723   5.378   1.426
13419TIP3    H140198   3.682   5.346   1.506
13419TIP3    H240199   3.683   5.326   1.356
13420TIP3   OH240200   3.907   2.012   0.783
13420TIP3    H140201   3.826   2.051   0.751
13420TIP3    H240202   3.894   2.003   0.878
13421TIP3   OH240203   5.542   2.684   1.998
13421TIP3    H140204   5.634   2.699   2.018
13421TIP3    H240205   5.495   2.751   2.049
13422TIP3   OH240206   2.087   7.555   5.818
13422TIP3    H140207   2.176   7.581   5.796
13422TIP3    H240208   2.081   7.566   5.913
13423TIP3   OH240209   3.710   2.234   6.248
13423TIP3    H140210   3.778   2.168   6.262
13423TIP3    H240211   3.666   2.242   6.333
13424TIP3   OH240212   3.466   3.100   4.712
13424TIP3    H140213   3.470   3.095   4.616
13424TIP3    H240214   3.392   3.157   4.731
13425TIP3   OH240215   4.693   1.337   1.649
13425TIP3    H140216   4.747   1.413   1.628
13425TIP3    H240217   4.694   1.284   1.569
13426TIP3   OH240218   6.800   3.350   4.813
13426TIP3    H140219   6.877   3.361   4.869
13426TIP3    H240220   6.750   3.281   4.857
13427TIP3   OH240221   4.575   3.172   4.508
13427TIP3    H140222   4.543   3.101   4.564
13427TIP3    H240223   4.601   3.241   4.569
13428TIP3   OH240224   0.619   6.187   0.843
13428TIP3    H140225   0.613   6.277   0.875
13428TIP3    H240226   0.642   6.136   0.921
13429TIP3   OH240227   8.180   3.262   0.735
13429TIP3    H140228   8.099   3.247   0.686
13429TIP3    H240229   8.242   3.200   0.697
13430TIP3   OH240230   0.614   1.675   5.577
13430TIP3    H140231   0.638   1.744   5.515
13430TIP3    H240232   0.518   1.674   5.575
13431TIP3   OH240233   4.227   1.820   1.432
13431TIP3    H140234   4.184   1.850   1.352
13431TIP3    H240235   4.216   1.892   1.494
13432TIP3   OH240236   2.639   7.913   2.710
13432TIP3    H140237   2.584   7.898   2.633
13432TIP3    H240238   2.602   7.856   2.777
13433TIP3   OH240239   6.970   4.363   3.708
13433TIP3    H140240   6.920   4.299   3.658
13433TIP3    H240241   7.048   4.380   3.655
13434TIP3   OH240242   0.499   3.262   0.664
13434TIP3    H140243   0.408   3.259   0.634
13434TIP3    H240244   0.515   3.355   0.682
13435TIP3   OH240245   2.952   0.551   0.181
13435TIP3    H140246   2.939   0.556   0.086
13435TIP3    H240247   2.952   0.642   0.209
13436TIP3   OH240248   5.255   3.518   1.033
13436TIP3    H140249   5.168   3.554   1.050
13436TIP3    H240250   5.270   3.456   1.104
13437TIP3   OH240251   4.093   3.974   2.264
13437TIP3    H140252   4.114   4.027   2.341
13437TIP3    H240253   4.065   4.038   2.198
13438TIP3   OH240254   7.608   4.582   2.642
13438TIP3    H140255   7.526   4.603   2.686
13438TIP3    H240256   7.631   4.661   2.594
13439TIP3   OH240257   5.932   5.398   1.074
13439TIP3    H140258   5.863   5.455   1.110
13439TIP3    H240259   5.886   5.341   1.013
13440TIP3   OH240260   0.686   3.126   3.569
13440TIP3    H140261   0.774   3.093   3.555
13440TIP3    H240262   0.629   3.053   3.548
13441TIP3   OH240263   2.685   0.214   2.711
13441TIP3    H140264   2.700   0.290   2.768
13441TIP3    H240265   2.591   0.219   2.691
13442TIP3   OH240266   3.442   5.094   4.558
13442TIP3    H140267   3.360   5.093   4.607
13442TIP3    H240268   3.468   5.002   4.553
13443TIP3   OH240269   0.581   0.141   4.144
13443TIP3    H140270   0.635   0.063   4.128
13443TIP3    H240271   0.616   0.178   4.225
13444TIP3   OH240272   8.172   6.139   3.305
13444TIP3    H140273   8.202   6.175   3.388
13444TIP3    H240274   8.077   6.134   3.314
13445TIP3   OH240275   2.143   0.828   1.254
13445TIP3    H140276   2.115   0.916   1.227
13445TIP3    H240277   2.166   0.784   1.172
13446TIP3   OH240278   0.795   0.761   5.072
13446TIP3    H140279   0.862   0.829   5.063
13446TIP3    H240280   0.814   0.718   5.155
13447TIP3   OH240281   4.927   5.098   4.412
13447TIP3    H140282   5.015   5.125   4.438
13447TIP3    H240283   4.882   5.077   4.494
13448TIP3   OH240284   4.254   0.735   5.340
13448TIP3    H140285   4.209   0.812   5.306
13448TIP3    H240286   4.197   0.702   5.410
13449TIP3   OH240287   0.233   2.554   1.635
13449TIP3    H140288   0.256   2.462   1.621
13449TIP3    H240289   0.317   2.596   1.654
13450TIP3   OH240290   3.031   2.721   4.782
13450TIP3    H140291   3.073   2.661   4.844
13450TIP3    H240292   2.952   2.751   4.828
13451TIP3   OH240293   0.975   6.908   3.713
13451TIP3    H140294   1.037   6.893   3.641
13451TIP3    H240295   0.907   6.843   3.700
13452TIP3   OH240296   4.537   3.051   4.279
13452TIP3    H140297   4.615   2.998   4.266
13452TIP3    H240298   4.567   3.126   4.332
13453TIP3   OH240299   1.686   1.365   0.852
13453TIP3    H140300   1.754   1.321   0.903
13453TIP3    H240301   1.629   1.406   0.917
13454TIP3   OH240302   7.538   6.557   1.073
13454TIP3    H140303   7.629   6.581   1.062
13454TIP3    H240304   7.504   6.619   1.138
13455TIP3   OH240305   0.634   7.023   3.606
13455TIP3    H140306   0.643   6.935   3.570
13455TIP3    H240307   0.588   7.073   3.538
13456TIP3   OH240308   4.133   5.994   5.465
13456TIP3    H140309   4.052   5.963   5.505
13456TIP3    H240310   4.158   6.071   5.517
13457TIP3   OH240311   1.405   7.446   2.649
13457TIP3    H140312   1.459   7.524   2.663
13457TIP3    H240313   1.428   7.418   2.560
13458TIP3   OH240314   0.234   5.311   1.741
13458TIP3    H140315   0.148   5.293   1.703
13458TIP3    H240316   0.230   5.270   1.828
13459TIP3   OH240317   7.938   3.288   0.109
13459TIP3    H140318   8.005   3.327   0.054
13459TIP3    H240319   7.929   3.348   0.183
13460TIP3   OH240320   7.699   6.851   2.246
13460TIP3    H140321   7.623   6.883   2.199
13460TIP3    H240322   7.663   6.807   2.323
13461TIP3   OH240323   8.184   4.926   6.338
13461TIP3    H140324   8.201   4.832   6.343
13461TIP3    H240325   8.114   4.934   6.273
13462TIP3   OH240326   3.230   7.696   0.270
13462TIP3    H140327   3.277   7.733   0.344
13462TIP3    H240328   3.199   7.611   0.302
13463TIP3   OH240329   0.170   1.772   0.508
13463TIP3    H140330   0.239   1.763   0.574
13463TIP3    H240331   0.203   1.724   0.432
13464TIP3   OH240332   0.128   7.551   5.080
13464TIP3    H140333   0.062   7.620   5.092
13464TIP3    H240334   0.184   7.583   5.010
13465TIP3   OH240335   1.657   5.115   0.041
13465TIP3    H140336   1.610   5.190   0.006
13465TIP3    H240337   1.588   5.050   0.057
13466TIP3   OH240338   6.906   0.035   2.164
13466TIP3    H140339   6.998   0.031   2.187
13466TIP3    H240340   6.869   0.100   2.225
13467TIP3   OH240341   2.730   2.114   5.250
13467TIP3    H140342   2.670   2.181   5.284
13467TIP3    H240343   2.673   2.043   5.221
13468TIP3   OH240344   1.600   2.635   5.275
13468TIP3    H140345   1.547   2.584   5.213
13468TIP3    H240346   1.536   2.686   5.325
13469TIP3   OH240347   0.980   6.026   6.303
13469TIP3    H140348   0.892   6.048   6.335
13469TIP3    H240349   1.039   6.077   6.358
13470TIP3   OH240350   7.673   6.323   4.671
13470TIP3    H140351   7.622   6.370   4.738
13470TIP3    H240352   7.612   6.311   4.598
13471TIP3   OH240353   1.318   1.829   0.588
13471TIP3    H140354   1.258   1.808   0.659
13471TIP3    H240355   1.307   1.758   0.525
13472TIP3   OH240356   6.951   6.631   1.208
13472TIP3    H140357   6.967   6.587   1.124
13472TIP3    H240358   7.036   6.628   1.253
13473TIP3   OH240359   3.581   0.346   2.994
13473TIP3    H140360   3.505   0.392   2.958
13473TIP3    H240361   3.657   0.391   2.957
13474TIP3   OH240362   5.099   0.705   2.600
13474TIP3    H140363   5.119   0.772   2.535
13474TIP3    H240364   5.069   0.754   2.677
13475TIP3   OH240365   1.028   2.534   1.424
13475TIP3    H140366   0.952   2.568   1.376
13475TIP3    H240367   1.000   2.448   1.455
13476TIP3   OH240368   6.992   4.035   2.207
13476TIP3    H140369   7.044   4.088   2.269
13476TIP3    H240370   6.902   4.057   2.228
13477TIP3   OH240371   3.843   0.261   6.058
13477TIP3    H140372   3.849   0.274   5.964
13477TIP3    H240373   3.897   0.184   6.075
13478TIP3   OH240374   5.819   2.993   0.676
13478TIP3    H140375   5.791   3.084   0.677
13478TIP3    H240376   5.903   2.994   0.632
13479TIP3   OH240377   7.874   5.700   2.834
13479TIP3    H140378   7.857   5.751   2.913
13479TIP3    H240379   7.846   5.611   2.856
13480TIP3   OH240380   8.131   0.576   1.585
13480TIP3    H140381   8.084   0.630   1.521
13480TIP3    H240382   8.214   0.555   1.543
13481TIP3   OH240383   5.744   1.280   3.602
13481TIP3    H140384   5.767   1.188   3.611
13481TIP3    H240385   5.662   1.290   3.651
13482TIP3   OH240386   2.615   4.489   3.887
13482TIP3    H140387   2.561   4.482   3.809
13482TIP3    H240388   2.552   4.487   3.960
13483TIP3   OH240389   6.500   1.715   0.838
13483TIP3    H140390   6.456   1.629   0.839
13483TIP3    H240391   6.593   1.694   0.832
13484TIP3   OH240392   0.037   1.125   3.443
13484TIP3    H140393  -0.040   1.162   3.485
13484TIP3    H240394   0.036   1.160   3.354
13485TIP3   OH240395   0.134   3.714   2.581
13485TIP3    H140396   0.089   3.799   2.588
13485TIP3    H240397   0.110   3.668   2.662
13486TIP3   OH240398   3.531   1.220   0.374
13486TIP3    H140399   3.522   1.280   0.300
13486TIP3    H240400   3.547   1.134   0.334
13487TIP3   OH240401   1.041   1.746   2.212
13487TIP3    H140402   1.086   1.737   2.128
13487TIP3    H240403   1.017   1.839   2.216
13488TIP3   OH240404   5.844   2.417   0.179
13488TIP3    H140405   5.813   2.483   0.117
13488TIP3    H240406   5.932   2.395   0.148
13489TIP3   OH240407   2.311   7.087   5.517
13489TIP3    H140408   2.404   7.069   5.508
13489TIP3    H240409   2.300   7.115   5.608
13490TIP3   OH240410   0.502   2.450   5.344
13490TIP3    H140411   0.459   2.391   5.405
13490TIP3    H240412   0.477   2.418   5.257
13491TIP3   OH240413   3.759   1.695   3.440
13491TIP3    H140414   3.730   1.679   3.350
13491TIP3    H240415   3.806   1.778   3.435
13492TIP3   OH240416   3.311   0.457   6.199
13492TIP3    H140417   3.328   0.478   6.291
13492TIP3    H240418   3.318   0.362   6.194
13493TIP3   OH240419   7.881   5.378   0.052
13493TIP3    H140420   7.933   5.323  -0.007
13493TIP3    H240421   7.842   5.316   0.113
13494TIP3   OH240422   6.254   4.909   2.730
13494TIP3    H140423   6.285   4.963   2.657
13494TIP3    H240424   6.254   4.820   2.695
13495TIP3   OH240425   4.762   2.611   2.465
13495TIP3    H140426   4.764   2.705   2.450
13495TIP3    H240427   4.682   2.581   2.422
13496TIP3   OH240428   0.304   3.106   0.838
13496TIP3    H140429   0.250   3.161   0.894
13496TIP3    H240430   0.371   3.071   0.897
13497TIP3   OH240431   0.640   5.844   5.730
13497TIP3    H140432   0.653   5.802   5.645
13497TIP3    H240433   0.546   5.863   5.733
13498TIP3   OH240434   7.092   1.364   0.927
13498TIP3    H140435   7.069   1.429   0.861
13498TIP3    H240436   7.144   1.299   0.881
13499TIP3   OH240437   6.007   0.999   2.537
13499TIP3    H140438   6.068   1.001   2.463
13499TIP3    H240439   6.044   1.061   2.600
13500TIP3   OH240440   2.380   4.621   4.761
13500TIP3    H140441   2.294   4.628   4.720
13500TIP3    H240442   2.441   4.649   4.693
13501TIP3   OH240443   0.005   2.436   4.608
13501TIP3    H140444   0.078   2.436   4.545
13501TIP3    H240445   0.047   2.422   4.693
13502TIP3   OH240446   5.510   3.377   5.525
13502TIP3    H140447   5.535   3.299   5.575
13502TIP3    H240448   5.470   3.436   5.590
13503TIP3   OH240449   2.651   5.356   0.456
13503TIP3    H140450   2.585   5.390   0.396
13503TIP3    H240451   2.677   5.272   0.419
13504TIP3   OH240452   6.515   6.050   2.287
13504TIP3    H140453   6.473   6.061   2.372
13504TIP3    H240454   6.454   5.996   2.237
13505TIP3   OH240455   7.081   4.901   2.871
13505TIP3    H140456   7.082   4.814   2.832
13505TIP3    H240457   7.015   4.896   2.940
13506TIP3   OH240458   6.140   2.087   3.313
13506TIP3    H140459   6.139   2.172   3.357
13506TIP3    H240460   6.224   2.084   3.267
13507TIP3   OH240461   6.181   4.048   1.172
13507TIP3    H140462   6.154   3.965   1.213
13507TIP3    H240463   6.219   4.099   1.244
13508TIP3   OH240464   6.536   5.382   4.163
13508TIP3    H140465   6.557   5.304   4.111
13508TIP3    H240466   6.482   5.349   4.235
13509TIP3   OH240467   5.144   2.836   3.197
13509TIP3    H140468   5.195   2.801   3.124
13509TIP3    H240469   5.131   2.761   3.254
13510TIP3   OH240470   2.474   5.393   3.738
13510TIP3    H140471   2.517   5.310   3.759
13510TIP3    H240472   2.422   5.374   3.660
13511TIP3   OH240473   1.812   4.261   0.148
13511TIP3    H140474   1.805   4.351   0.118
13511TIP3    H240475   1.833   4.269   0.241
13512TIP3   OH240476   5.661   5.621   5.828
13512TIP3    H140477   5.661   5.658   5.739
13512TIP3    H240478   5.753   5.606   5.848
13513TIP3   OH240479   6.237   5.841   5.393
13513TIP3    H140480   6.190   5.920   5.367
13513TIP3    H240481   6.177   5.769   5.373
13514TIP3   OH240482   2.365   2.913   3.987
13514TIP3    H140483   2.406   2.998   3.978
13514TIP3    H240484   2.281   2.922   3.941
13515TIP3   OH240485   5.068   0.118   0.069
13515TIP3    H140486   5.106   0.196   0.030
13515TIP3    H240487   5.134   0.050   0.057
13516TIP3   OH240488   0.676   4.959   3.015
13516TIP3    H140489   0.676   4.864   3.030
13516TIP3    H240490   0.644   4.995   3.098
13517TIP3   OH240491   7.953   5.487   5.460
13517TIP3    H140492   7.886   5.547   5.491
13517TIP3    H240493   7.972   5.431   5.535
13518TIP3   OH240494   0.705   1.567   0.213
13518TIP3    H140495   0.768   1.601   0.149
13518TIP3    H240496   0.684   1.479   0.182
13519TIP3   OH240497   0.729   3.255   2.553
13519TIP3    H140498   0.783   3.282   2.628
13519TIP3    H240499   0.789   3.209   2.495
13520TIP3   OH240500   5.047   4.039   4.142
13520TIP3    H140501   5.016   4.015   4.229
13520TIP3    H240502   4.979   4.008   4.082
13521TIP3   OH240503   1.839   1.011   6.106
13521TIP3    H140504   1.861   0.927   6.145
13521TIP3    H240505   1.744   1.019   6.118
13522TIP3   OH240506   7.210   4.437   3.585
13522TIP3    H140507   7.179   4.527   3.571
13522TIP3    H240508   7.301   4.438   3.555
13523TIP3   OH240509   0.547   5.924   0.279
13523TIP3    H140510   0.516   5.885   0.198
13523TIP3    H240511   0.567   6.015   0.256
13524TIP3   OH240512   3.431   4.558   0.290
13524TIP3    H140513   3.394   4.473   0.313
13524TIP3    H240514   3.503   4.570   0.353
13525TIP3   OH240515   3.616   4.753   6.416
13525TIP3    H140516   3.692   4.810   6.412
13525TIP3    H240517   3.591   4.753   6.509
13526TIP3   OH240518   5.102   6.781   1.207
13526TIP3    H140519   5.043   6.801   1.280
13526TIP3    H240520   5.044   6.774   1.131
13527TIP3   OH240521   0.898   0.543   6.452
13527TIP3    H140522   0.851   0.625   6.437
13527TIP3    H240523   0.842   0.475   6.415
13528TIP3   OH240524   7.873   7.782   0.138
13528TIP3    H140525   7.867   7.871   0.103
13528TIP3    H240526   7.845   7.726   0.065
13529TIP3   OH240527   1.626   0.716   5.816
13529TIP3    H140528   1.590   0.628   5.823
13529TIP3    H240529   1.553   0.774   5.838
13530TIP3   OH240530   0.728   0.709   3.157
13530TIP3    H140531   0.674   0.786   3.174
13530TIP3    H240532   0.707   0.649   3.228
13531TIP3   OH240533   4.429   1.207   5.645
13531TIP3    H140534   4.464   1.281   5.696
13531TIP3    H240535   4.488   1.134   5.666
13532TIP3   OH240536   7.653   4.696   4.069
13532TIP3    H140537   7.612   4.621   4.027
13532TIP3    H240538   7.726   4.719   4.012
13533TIP3   OH240539   6.188   2.494   5.314
13533TIP3    H140540   6.274   2.456   5.297
13533TIP3    H240541   6.134   2.420   5.342
13534TIP3   OH240542   0.258   6.137   0.284
13534TIP3    H140543   0.267   6.137   0.379
13534TIP3    H240544   0.344   6.162   0.251
13535TIP3   OH240545   0.885   4.726   6.059
13535TIP3    H140546   0.920   4.813   6.076
13535TIP3    H240547   0.791   4.740   6.048
13536TIP3   OH240548   7.918   4.047   4.407
13536TIP3    H140549   7.861   4.084   4.340
13536TIP3    H240550   7.982   3.994   4.359
13537TIP3   OH240551   0.617   0.692   4.862
13537TIP3    H140552   0.693   0.698   4.920
13537TIP3    H240553   0.605   0.781   4.830
13538TIP3   OH240554   0.030   4.917   4.873
13538TIP3    H140555   0.121   4.949   4.871
13538TIP3    H240556   0.007   4.905   4.781
13539TIP3   OH240557   4.605   5.077   3.013
13539TIP3    H140558   4.614   5.013   3.084
13539TIP3    H240559   4.650   5.037   2.938
13540TIP3   OH240560   5.713   3.306   5.088
13540TIP3    H140561   5.648   3.362   5.047
13540TIP3    H240562   5.670   3.272   5.166
13541TIP3   OH240563   0.322   7.593   1.800
13541TIP3    H140564   0.358   7.630   1.881
13541TIP3    H240565   0.310   7.500   1.820
13542TIP3   OH240566   5.293   3.661   6.747
13542TIP3    H140567   5.335   3.700   6.824
13542TIP3    H240568   5.309   3.567   6.756
13543TIP3   OH240569   0.258   4.520   5.822
13543TIP3    H140570   0.345   4.532   5.785
13543TIP3    H240571   0.274   4.503   5.915
13544TIP3   OH240572   3.120   1.881   3.673
13544TIP3    H140573   3.174   1.959   3.664
13544TIP3    H240574   3.039   1.901   3.625
13545TIP3   OH240575   2.809   7.324   3.936
13545TIP3    H140576   2.785   7.232   3.922
13545TIP3    H240577   2.751   7.372   3.876
13546TIP3   OH240578   5.583   3.582   6.546
13546TIP3    H140579   5.497   3.623   6.539
13546TIP3    H240580   5.566   3.489   6.535
13547TIP3   OH240581   0.268   2.881   1.315
13547TIP3    H140582   0.347   2.835   1.288
13547TIP3    H240583   0.300   2.950   1.374
13548TIP3   OH240584   3.383   5.801   3.848
13548TIP3    H140585   3.362   5.715   3.810
13548TIP3    H240586   3.462   5.786   3.900
13549TIP3   OH240587   3.385   1.188   5.479
13549TIP3    H140588   3.468   1.224   5.510
13549TIP3    H240589   3.348   1.256   5.423
13550TIP3   OH240590   1.754   5.055   5.860
13550TIP3    H140591   1.714   5.113   5.925
13550TIP3    H240592   1.680   5.019   5.812
13551TIP3   OH240593   3.906   6.392   3.694
13551TIP3    H140594   3.864   6.416   3.777
13551TIP3    H240595   3.956   6.314   3.715
13552TIP3   OH240596   1.798   7.045   5.212
13552TIP3    H140597   1.805   7.139   5.229
13552TIP3    H240598   1.786   7.039   5.117
13553TIP3   OH240599   3.063   2.311   1.716
13553TIP3    H140600   3.045   2.217   1.719
13553TIP3    H240601   2.976   2.352   1.727
13554TIP3   OH240602   3.216   7.036   0.741
13554TIP3    H140603   3.273   7.004   0.672
13554TIP3    H240604   3.137   6.982   0.734
13555TIP3   OH240605   0.519   7.682   2.664
13555TIP3    H140606   0.537   7.619   2.734
13555TIP3    H240607   0.467   7.750   2.706
13556TIP3   OH240608   1.373   7.811   1.310
13556TIP3    H140609   1.431   7.888   1.312
13556TIP3    H240610   1.297   7.840   1.260
13557TIP3   OH240611   5.191   2.722   5.362
13557TIP3    H140612   5.152   2.762   5.285
13557TIP3    H240613   5.252   2.657   5.328
13558TIP3   OH240614   3.159   6.701   2.096
13558TIP3    H140615   3.179   6.701   2.003
13558TIP3    H240616   3.224   6.643   2.135
13559TIP3   OH240617   0.866   5.656   0.705
13559TIP3    H140618   0.842   5.614   0.788
13559TIP3    H240619   0.783   5.663   0.658
13560TIP3   OH240620   6.839   1.929   3.068
13560TIP3    H140621   6.784   1.992   3.115
13560TIP3    H240622   6.925   1.936   3.111
13561TIP3   OH240623   1.719   6.444   5.918
13561TIP3    H140624   1.697   6.535   5.897
13561TIP3    H240625   1.708   6.438   6.013
13562TIP3   OH240626   0.659   0.316   6.818
13562TIP3    H140627   0.670   0.408   6.841
13562TIP3    H240628   0.644   0.316   6.723
13563TIP3   OH240629   2.133   0.072   5.328
13563TIP3    H140630   2.116   0.091   5.421
13563TIP3    H240631   2.222   0.104   5.313
13564TIP3   OH240632   5.537   3.169   5.720
13564TIP3    H140633   5.526   3.081   5.683
13564TIP3    H240634   5.517   3.157   5.813
13565TIP3   OH240635   2.851   3.534   5.019
13565TIP3    H140636   2.863   3.457   5.075
13565TIP3    H240637   2.795   3.503   4.948
13566TIP3   OH240638   2.583   0.110   2.292
13566TIP3    H140639   2.677   0.090   2.293
13566TIP3    H240640   2.547   0.058   2.364
13567TIP3   OH240641   2.846   4.194   5.368
13567TIP3    H140642   2.761   4.150   5.357
13567TIP3    H240643   2.824   4.280   5.405
13568TIP3   OH240644   7.196   0.244   3.535
13568TIP3    H140645   7.133   0.291   3.480
13568TIP3    H240646   7.223   0.169   3.481
13569TIP3   OH240647   7.782   4.074   4.935
13569TIP3    H140648   7.850   4.126   4.977
13569TIP3    H240649   7.746   4.131   4.868
13570TIP3   OH240650   7.510   3.209   3.788
13570TIP3    H140651   7.604   3.226   3.781
13570TIP3    H240652   7.477   3.280   3.844
13571TIP3   OH240653   3.703   1.728   3.175
13571TIP3    H140654   3.615   1.694   3.159
13571TIP3    H240655   3.708   1.808   3.122
13572TIP3   OH240656   7.621   7.816   6.274
13572TIP3    H140657   7.632   7.845   6.365
13572TIP3    H240658   7.665   7.731   6.271
13573TIP3   OH240659   2.979   6.051   5.905
13573TIP3    H140660   3.009   6.061   5.996
13573TIP3    H240661   2.964   5.957   5.895
13574TIP3   OH240662   3.544   4.851   4.633
13574TIP3    H140663   3.524   4.768   4.676
13574TIP3    H240664   3.639   4.859   4.641
13575TIP3   OH240665   6.731   7.621   0.107
13575TIP3    H140666   6.672   7.564   0.156
13575TIP3    H240667   6.689   7.707   0.111
13576TIP3   OH240668   1.572   6.728   4.468
13576TIP3    H140669   1.531   6.659   4.519
13576TIP3    H240670   1.537   6.718   4.380
13577TIP3   OH240671   5.283   3.416   2.239
13577TIP3    H140672   5.258   3.499   2.199
13577TIP3    H240673   5.323   3.440   2.322
13578TIP3   OH240674   6.721   7.753   3.683
13578TIP3    H140675   6.628   7.771   3.669
13578TIP3    H240676   6.738   7.676   3.629
13579TIP3   OH240677   2.181   1.709   1.818
13579TIP3    H140678   2.097   1.665   1.810
13579TIP3    H240679   2.218   1.707   1.730
13580TIP3   OH240680   1.372   0.057   2.776
13580TIP3    H140681   1.303   0.116   2.809
13580TIP3    H240682   1.374   0.073   2.682
13581TIP3   OH240683   1.086   4.697   3.700
13581TIP3    H140684   1.030   4.625   3.673
13581TIP3    H240685   1.173   4.657   3.709
13582TIP3   OH240686   0.391   0.482   2.124
13582TIP3    H140687   0.325   0.470   2.193
13582TIP3    H240688   0.438   0.398   2.122
13583TIP3   OH240689   7.293   3.382   0.684
13583TIP3    H140690   7.342   3.300   0.670
13583TIP3    H240691   7.343   3.428   0.751
13584TIP3   OH240692   3.471   1.732   2.370
13584TIP3    H140693   3.524   1.694   2.299
13584TIP3    H240694   3.427   1.807   2.329
13585TIP3   OH240695   7.718   1.708   6.486
13585TIP3    H140696   7.735   1.615   6.470
13585TIP3    H240697   7.729   1.718   6.581
13586TIP3   OH240698   7.969   1.568   2.293
13586TIP3    H140699   8.035   1.501   2.312
13586TIP3    H240700   7.917   1.531   2.222
13587TIP3   OH240701   1.658   1.621   1.909
13587TIP3    H140702   1.593   1.680   1.947
13587TIP3    H240703   1.711   1.677   1.852
13588TIP3   OH240704   0.866   5.659   2.390
13588TIP3    H140705   0.853   5.684   2.481
13588TIP3    H240706   0.780   5.673   2.349
13589TIP3   OH240707   4.736   1.895   1.638
13589TIP3    H140708   4.644   1.906   1.612
13589TIP3    H240709   4.762   1.980   1.670
13590TIP3   OH240710   4.531   1.322   0.490
13590TIP3    H140711   4.444   1.282   0.485
13590TIP3    H240712   4.561   1.303   0.579
13591TIP3   OH240713   7.700   4.994   3.659
13591TIP3    H140714   7.639   4.924   3.680
13591TIP3    H240715   7.716   4.984   3.565
13592TIP3   OH240716   7.416   5.204   5.301
13592TIP3    H140717   7.362   5.185   5.224
13592TIP3    H240718   7.458   5.288   5.282
13593TIP3   OH240719   3.822   6.383   0.939
13593TIP3    H140720   3.750   6.389   1.001
13593TIP3    H240721   3.898   6.414   0.988
13594TIP3   OH240722   4.848   7.414   6.699
13594TIP3    H140723   4.761   7.434   6.735
13594TIP3    H240724   4.909   7.453   6.762
13595TIP3   OH240725   1.948   7.593   3.778
13595TIP3    H140726   2.001   7.517   3.802
13595TIP3    H240727   1.858   7.561   3.779
13596TIP3   OH240728   0.079   7.835   5.305
13596TIP3    H140729   0.068   7.901   5.237
13596TIP3    H240730   0.173   7.835   5.324
13597TIP3   OH240731   0.258   4.037   4.760
13597TIP3    H140732   0.275   3.948   4.727
13597TIP3    H240733   0.346   4.073   4.776
13598TIP3   OH240734   7.938   3.504   2.763
13598TIP3    H140735   8.011   3.525   2.821
13598TIP3    H240736   7.970   3.523   2.676
13599TIP3   OH240737   2.260   5.242   2.532
13599TIP3    H140738   2.179   5.194   2.516
13599TIP3    H240739   2.326   5.195   2.480
13600TIP3   OH240740   7.673   7.443   2.314
13600TIP3    H140741   7.615   7.409   2.381
13600TIP3    H240742   7.739   7.375   2.301
13601TIP3   OH240743   8.343   2.636   6.797
13601TIP3    H140744   8.298   2.555   6.822
13601TIP3    H240745   8.279   2.684   6.744
13602TIP3   OH240746   1.692   4.061   6.038
13602TIP3    H140747   1.758   4.005   6.077
13602TIP3    H240748   1.734   4.146   6.030
13603TIP3   OH240749   5.428   0.868   6.043
13603TIP3    H140750   5.455   0.934   6.107
13603TIP3    H240751   5.474   0.892   5.963
13604TIP3   OH240752   5.890   4.867   5.006
13604TIP3    H140753   5.921   4.895   4.920
13604TIP3    H240754   5.939   4.922   5.068
13605TIP3   OH240755   7.832   0.157   2.068
13605TIP3    H140756   7.865   0.214   2.138
13605TIP3    H240757   7.738   0.150   2.085
13606TIP3   OH240758   0.325   0.537   0.404
13606TIP3    H140759   0.322   0.473   0.475
13606TIP3    H240760   0.407   0.518   0.358
13607TIP3   OH240761   1.029   5.455   3.084
13607TIP3    H140762   0.937   5.478   3.071
13607TIP3    H240763   1.054   5.502   3.164
13608TIP3   OH240764   0.976   1.517   3.313
13608TIP3    H140765   0.949   1.433   3.277
13608TIP3    H240766   1.064   1.502   3.347
13609TIP3   OH240767   3.016   3.365   3.553
13609TIP3    H140768   2.956   3.405   3.491
13609TIP3    H240769   2.965   3.293   3.591
13610TIP3   OH240770   2.122   4.342   0.240
13610TIP3    H140771   2.215   4.347   0.266
13610TIP3    H240772   2.116   4.396   0.162
13611TIP3   OH240773   3.080   4.345   5.545
13611TIP3    H140774   3.045   4.262   5.579
13611TIP3    H240775   3.002   4.393   5.515
13612TIP3   OH240776   2.743   4.499   1.410
13612TIP3    H140777   2.768   4.469   1.498
13612TIP3    H240778   2.808   4.567   1.389
13613TIP3   OH240779   2.477   4.427   3.635
13613TIP3    H140780   2.548   4.424   3.571
13613TIP3    H240781   2.416   4.492   3.600
13614TIP3   OH240782   1.059   3.164   4.736
13614TIP3    H140783   1.101   3.228   4.793
13614TIP3    H240784   0.969   3.195   4.728
13615TIP3   OH240785   6.872   7.756   2.985
13615TIP3    H140786   6.835   7.765   2.897
13615TIP3    H240787   6.817   7.690   3.027
13616TIP3   OH240788   5.713   7.173   2.604
13616TIP3    H140789   5.642   7.185   2.540
13616TIP3    H240790   5.779   7.123   2.556
13617TIP3   OH240791   7.818   4.961   0.304
13617TIP3    H140792   7.771   4.878   0.302
13617TIP3    H240793   7.910   4.936   0.313
13618TIP3   OH240794   7.343   6.833   4.200
13618TIP3    H140795   7.429   6.821   4.159
13618TIP3    H240796   7.310   6.744   4.213
13619TIP3   OH240797   4.467   4.457   1.441
13619TIP3    H140798   4.471   4.552   1.430
13619TIP3    H240799   4.441   4.424   1.355
13620TIP3   OH240800   0.589   7.773   6.046
13620TIP3    H140801   0.612   7.711   5.976
13620TIP3    H240802   0.591   7.721   6.126
13621TIP3   OH240803   4.181   5.869   2.914
13621TIP3    H140804   4.220   5.897   2.831
13621TIP3    H240805   4.118   5.938   2.935
13622TIP3   OH240806   3.084   2.573   5.370
13622TIP3    H140807   3.142   2.575   5.294
13622TIP3    H240808   3.066   2.481   5.385
13623TIP3   OH240809   1.260   5.281   2.068
13623TIP3    H140810   1.182   5.252   2.115
13623TIP3    H240811   1.297   5.200   2.032
13624TIP3   OH240812   4.176   6.795   6.293
13624TIP3    H140813   4.198   6.834   6.378
13624TIP3    H240814   4.208   6.705   6.299
13625TIP3   OH240815   2.996   7.053   1.565
13625TIP3    H140816   2.923   7.108   1.536
13625TIP3    H240817   2.954   6.974   1.599
13626TIP3   OH240818   6.578   0.769   0.570
13626TIP3    H140819   6.528   0.820   0.507
13626TIP3    H240820   6.558   0.678   0.548
13627TIP3   OH240821   5.622   7.573   3.645
13627TIP3    H140822   5.546   7.580   3.703
13627TIP3    H240823   5.598   7.504   3.583
13628TIP3   OH240824   2.514   6.947   1.854
13628TIP3    H140825   2.540   7.012   1.920
13628TIP3    H240826   2.519   6.994   1.771
13629TIP3   OH240827   3.406   5.626   3.516
13629TIP3    H140828   3.477   5.662   3.464
13629TIP3    H240829   3.391   5.538   3.480
13630TIP3   OH240830   3.800   2.631   3.319
13630TIP3    H140831   3.798   2.606   3.226
13630TIP3    H240832   3.854   2.564   3.361
13631TIP3   OH240833   1.710   5.975   1.728
13631TIP3    H140834   1.713   5.901   1.789
13631TIP3    H240835   1.761   5.946   1.652
13632TIP3   OH240836   2.820   7.060   3.844
13632TIP3    H140837   2.803   7.007   3.766
13632TIP3    H240838   2.915   7.071   3.844
13633TIP3   OH240839   8.103   5.547   5.018
13633TIP3    H140840   8.174   5.606   5.044
13633TIP3    H240841   8.054   5.595   4.952
13634TIP3   OH240842   0.731   0.453   1.712
13634TIP3    H140843   0.666   0.400   1.667
13634TIP3    H240844   0.683   0.529   1.745
13635TIP3   OH240845   6.819   5.077   0.017
13635TIP3    H140846   6.755   5.051   0.084
13635TIP3    H240847   6.766   5.096  -0.060
13636TIP3   OH240848   7.768   5.286   3.506
13636TIP3    H140849   7.736   5.328   3.425
13636TIP3    H240850   7.689   5.269   3.557
13637TIP3   OH240851   3.479   2.317   0.259
13637TIP3    H140852   3.396   2.285   0.294
13637TIP3    H240853   3.479   2.289   0.167
13638TIP3   OH240854   4.548   0.582   3.651
13638TIP3    H140855   4.618   0.587   3.586
13638TIP3    H240856   4.590   0.540   3.727
13639TIP3   OH240857   7.287   5.069   0.465
13639TIP3    H140858   7.358   5.101   0.520
13639TIP3    H240859   7.258   5.146   0.416
13640TIP3   OH240860   4.433   6.089   5.587
13640TIP3    H140861   4.393   6.006   5.612
13640TIP3    H240862   4.524   6.082   5.615
13641TIP3   OH240863   6.498   7.835   4.978
13641TIP3    H140864   6.541   7.759   5.017
13641TIP3    H240865   6.461   7.803   4.896
13642TIP3   OH240866   0.631   6.635   0.132
13642TIP3    H140867   0.672   6.586   0.203
13642TIP3    H240868   0.562   6.687   0.175
13643TIP3   OH240869   8.262   3.677   6.832
13643TIP3    H140870   8.225   3.591   6.854
13643TIP3    H240871   8.285   3.670   6.739
13644TIP3   OH240872   7.662   4.475   5.519
13644TIP3    H140873   7.610   4.447   5.444
13644TIP3    H240874   7.752   4.450   5.497
13645TIP3   OH240875   4.031   2.473   4.817
13645TIP3    H140876   4.101   2.417   4.782
13645TIP3    H240877   4.060   2.562   4.799
13646TIP3   OH240878   4.986   5.248   5.405
13646TIP3    H140879   5.004   5.181   5.338
13646TIP3    H240880   4.975   5.329   5.356
13647TIP3   OH240881   0.025   0.108   3.873
13647TIP3    H140882   0.095   0.078   3.814
13647TIP3    H240883   0.019   0.039   3.940
13648TIP3   OH240884   4.122   0.116   3.731
13648TIP3    H140885   4.042   0.133   3.681
13648TIP3    H240886   4.190   0.109   3.665
13649TIP3   OH240887   2.966   1.679   3.449
13649TIP3    H140888   2.936   1.681   3.540
13649TIP3    H240889   2.901   1.625   3.403
13650TIP3   OH240890   5.594   3.564   3.563
13650TIP3    H140891   5.554   3.504   3.501
13650TIP3    H240892   5.532   3.570   3.636
13651TIP3   OH240893   0.205   0.838   1.918
13651TIP3    H140894   0.209   0.825   1.823
13651TIP3    H240895   0.138   0.777   1.947
13652TIP3   OH240896   3.484   0.625   0.327
13652TIP3    H140897   3.415   0.578   0.280
13652TIP3    H240898   3.508   0.697   0.268
13653TIP3   OH240899   7.221   5.640   4.385
13653TIP3    H140900   7.245   5.728   4.357
13653TIP3    H240901   7.241   5.585   4.309
13654TIP3   OH240902   0.965   5.613   0.039
13654TIP3    H140903   1.046   5.625   0.089
13654TIP3    H240904   0.907   5.681   0.073
13655TIP3   OH240905   6.149   3.287   4.941
13655TIP3    H140906   6.235   3.329   4.940
13655TIP3    H240907   6.093   3.344   4.890
13656TIP3   OH240908   5.482   2.496   4.179
13656TIP3    H140909   5.412   2.544   4.134
13656TIP3    H240910   5.555   2.558   4.182
13657TIP3   OH240911   3.264   0.859   3.629
13657TIP3    H140912   3.337   0.835   3.573
13657TIP3    H240913   3.229   0.939   3.589
13658TIP3   OH240914   7.947   0.868   0.653
13658TIP3    H140915   7.896   0.877   0.734
13658TIP3    H240916   7.959   0.774   0.642
13659TIP3   OH240917   7.544   4.553   5.048
13659TIP3    H140918   7.632   4.584   5.027
13659TIP3    H240919   7.555   4.501   5.128
13660TIP3   OH240920   4.739   7.340   1.147
13660TIP3    H140921   4.820   7.290   1.134
13660TIP3    H240922   4.769   7.424   1.183
13661TIP3   OH240923   6.896   1.336   4.450
13661TIP3    H140924   6.892   1.298   4.538
13661TIP3    H240925   6.867   1.266   4.392
13662TIP3   OH240926   6.680   6.965   4.553
13662TIP3    H140927   6.621   6.891   4.572
13662TIP3    H240928   6.621   7.036   4.527
13663TIP3   OH240929   2.515   0.937   2.861
13663TIP3    H140930   2.459   0.902   2.792
13663TIP3    H240931   2.583   0.871   2.873
13664TIP3   OH240932   2.295   5.301   5.083
13664TIP3    H140933   2.224   5.254   5.127
13664TIP3    H240934   2.294   5.267   4.993
13665TIP3   OH240935   1.620   0.059   1.269
13665TIP3    H140936   1.635  -0.030   1.238
13665TIP3    H240937   1.587   0.048   1.358
13666TIP3   OH240938   3.425   6.418   4.471
13666TIP3    H140939   3.459   6.425   4.382
13666TIP3    H240940   3.389   6.329   4.476
13667TIP3   OH240941   4.817   7.720   6.725
13667TIP3    H140942   4.797   7.744   6.634
13667TIP3    H240943   4.755   7.651   6.746
13668TIP3   OH240944   4.848   4.396   3.414
13668TIP3    H140945   4.761   4.433   3.428
13668TIP3    H240946   4.839   4.342   3.336
13669TIP3   OH240947   2.764   1.427   5.080
13669TIP3    H140948   2.859   1.427   5.066
13669TIP3    H240949   2.733   1.350   5.032
13670TIP3   OH240950   2.667   6.523   1.441
13670TIP3    H140951   2.746   6.515   1.387
13670TIP3    H240952   2.686   6.595   1.501
13671TIP3   OH240953   4.857   5.734   6.803
13671TIP3    H140954   4.818   5.801   6.747
13671TIP3    H240955   4.868   5.776   6.888
13672TIP3   OH240956   5.139   2.654   0.765
13672TIP3    H140957   5.045   2.641   0.753
13672TIP3    H240958   5.147   2.748   0.784
13673TIP3   OH240959   6.538   3.423   6.540
13673TIP3    H140960   6.601   3.408   6.469
13673TIP3    H240961   6.471   3.356   6.527
13674TIP3   OH240962   2.599   6.230   5.471
13674TIP3    H140963   2.568   6.312   5.432
13674TIP3    H240964   2.677   6.208   5.421
13675TIP3   OH240965   7.444   0.677   2.391
13675TIP3    H140966   7.450   0.627   2.309
13675TIP3    H240967   7.524   0.654   2.438
13676TIP3   OH240968   2.402   1.934   2.490
13676TIP3    H140969   2.323   1.986   2.505
13676TIP3    H240970   2.371   1.852   2.451
13677TIP3   OH240971   5.745   0.477   4.669
13677TIP3    H140972   5.749   0.560   4.621
13677TIP3    H240973   5.807   0.488   4.740
13678TIP3   OH240974   3.342   0.890   2.099
13678TIP3    H140975   3.401   0.850   2.034
13678TIP3    H240976   3.255   0.877   2.063
13679TIP3   OH240977   4.880   1.495   1.509
13679TIP3    H140978   4.862   1.585   1.539
13679TIP3    H240979   4.973   1.496   1.486
13680TIP3   OH240980   0.573   2.283   4.743
13680TIP3    H140981   0.486   2.265   4.778
13680TIP3    H240982   0.606   2.355   4.798
13681TIP3   OH240983   2.775   7.895   0.083
13681TIP3    H140984   2.741   7.810   0.052
13681TIP3    H240985   2.813   7.876   0.169
13682TIP3   OH240986   6.421   7.884   1.047
13682TIP3    H140987   6.466   7.813   1.000
13682TIP3    H240988   6.456   7.879   1.136
13683TIP3   OH240989   1.336   5.988   2.531
13683TIP3    H140990   1.284   6.039   2.470
13683TIP3    H240991   1.324   6.032   2.615
13684TIP3   OH240992   8.267   6.293   4.884
13684TIP3    H140993   8.281   6.198   4.883
13684TIP3    H240994   8.214   6.310   4.806
13685TIP3   OH240995   0.359   6.279   1.521
13685TIP3    H140996   0.414   6.357   1.511
13685TIP3    H240997   0.366   6.234   1.437
13686TIP3   OH240998   6.131   3.515   1.664
13686TIP3    H140999   6.198   3.465   1.711
13686TIP3    H241000   6.167   3.603   1.659
13687TIP3   OH241001   1.029   5.068   4.949
13687TIP3    H141002   1.095   5.095   4.885
13687TIP3    H241003   1.079   5.045   5.027
13688TIP3   OH241004   8.122   0.586   0.236
13688TIP3    H141005   8.209   0.561   0.267
13688TIP3    H241006   8.125   0.570   0.141
13689TIP3   OH241007   6.728   7.009   0.731
13689TIP3    H141008   6.810   7.024   0.777
13689TIP3    H241009   6.663   6.996   0.801
13690TIP3   OH241010   5.060   3.278   1.649
13690TIP3    H141011   5.121   3.205   1.659
13690TIP3    H241012   5.031   3.298   1.738
13691TIP3   OH241013   5.842   6.848   5.602
13691TIP3    H141014   5.856   6.825   5.510
13691TIP3    H241015   5.805   6.936   5.598
13692TIP3   OH241016   1.579   4.341   4.087
13692TIP3    H141017   1.669   4.371   4.092
13692TIP3    H241018   1.585   4.248   4.063
13693TIP3   OH241019   4.162   6.785   4.581
13693TIP3    H141020   4.104   6.744   4.516
13693TIP3    H241021   4.154   6.730   4.659
13694TIP3   OH241022   6.219   2.659   2.855
13694TIP3    H141023   6.240   2.744   2.818
13694TIP3    H241024   6.146   2.627   2.802
13695TIP3   OH241025   2.623   0.557   5.656
13695TIP3    H141026   2.582   0.543   5.742
13695TIP3    H241027   2.684   0.630   5.670
13696TIP3   OH241028   8.242   1.667   5.539
13696TIP3    H141029   8.286   1.663   5.624
13696TIP3    H241030   8.297   1.614   5.481
13697TIP3   OH241031   7.736   6.128   4.078
13697TIP3    H141032   7.641   6.116   4.090
13697TIP3    H241033   7.765   6.049   4.033
13698TIP3   OH241034   5.326   2.218   5.769
13698TIP3    H141035   5.348   2.307   5.743
13698TIP3    H241036   5.340   2.166   5.689
13699TIP3   OH241037   3.430   1.461   3.671
13699TIP3    H141038   3.451   1.385   3.726
13699TIP3    H241039   3.439   1.429   3.581
13700TIP3   OH241040   0.207   2.014   1.009
13700TIP3    H141041   0.182   1.943   1.068
13700TIP3    H241042   0.125   2.041   0.968
13701TIP3   OH241043   7.567   3.256   2.203
13701TIP3    H141044   7.543   3.244   2.112
13701TIP3    H241045   7.614   3.176   2.227
13702TIP3   OH241046   4.557   5.333   1.841
13702TIP3    H141047   4.595   5.246   1.835
13702TIP3    H241048   4.470   5.324   1.803
13703TIP3   OH241049   6.876   6.597   2.129
13703TIP3    H141050   6.912   6.509   2.129
13703TIP3    H241051   6.782   6.585   2.135
13704TIP3   OH241052   0.613   2.212   4.080
13704TIP3    H141053   0.592   2.165   4.161
13704TIP3    H241054   0.685   2.270   4.105
13705TIP3   OH241055   2.054   0.707   0.607
13705TIP3    H141056   2.146   0.729   0.623
13705TIP3    H241057   2.013   0.792   0.589
13706TIP3   OH241058   6.683   6.272   3.242
13706TIP3    H141059   6.694   6.269   3.147
13706TIP3    H241060   6.618   6.340   3.257
13707TIP3   OH241061   2.031   2.745   2.335
13707TIP3    H141062   2.025   2.672   2.273
13707TIP3    H241063   2.120   2.778   2.324
13708TIP3   OH241064   7.896   1.712   4.613
13708TIP3    H141065   7.919   1.741   4.702
13708TIP3    H241066   7.808   1.674   4.623
13709TIP3   OH241067   5.323   7.759   2.128
13709TIP3    H141068   5.333   7.664   2.133
13709TIP3    H241069   5.302   7.777   2.037
13710TIP3   OH241070   3.080   5.617   3.791
13710TIP3    H141071   3.047   5.638   3.879
13710TIP3    H241072   3.008   5.642   3.733
13711TIP3   OH241073   3.371   6.229   0.125
13711TIP3    H141074   3.457   6.205   0.090
13711TIP3    H241075   3.311   6.167   0.085
13712TIP3   OH241076   4.597   7.517   5.573
13712TIP3    H141077   4.641   7.497   5.656
13712TIP3    H241078   4.574   7.609   5.579
13713TIP3   OH241079   8.066   0.578   4.606
13713TIP3    H141080   8.143   0.525   4.626
13713TIP3    H241081   8.078   0.606   4.516
13714TIP3   OH241082   3.050   6.700   3.660
13714TIP3    H141083   3.139   6.729   3.643
13714TIP3    H241084   3.019   6.756   3.731
13715TIP3   OH241085   3.030   1.925   2.444
13715TIP3    H141086   3.051   1.862   2.512
13715TIP3    H241087   2.998   1.871   2.371
13716TIP3   OH241088   3.572   4.808   0.105
13716TIP3    H141089   3.583   4.793   0.011
13716TIP3    H241090   3.532   4.894   0.111
13717TIP3   OH241091   0.222   6.852   0.417
13717TIP3    H141092   0.244   6.774   0.469
13717TIP3    H241093   0.199   6.918   0.481
13718TIP3   OH241094   4.946   5.334   6.472
13718TIP3    H141095   5.010   5.273   6.435
13718TIP3    H241096   4.954   5.413   6.417
13719TIP3   OH241097   7.654   1.273   0.451
13719TIP3    H141098   7.674   1.210   0.382
13719TIP3    H241099   7.684   1.230   0.532
13720TIP3   OH241100   6.785   5.135   0.619
13720TIP3    H141101   6.695   5.109   0.600
13720TIP3    H241102   6.832   5.121   0.537
13721TIP3   OH241103   2.364   4.575   3.968
13721TIP3    H141104   2.358   4.652   3.911
13721TIP3    H241105   2.277   4.568   4.007
13722TIP3   OH241106   0.188   0.179   0.596
13722TIP3    H141107   0.251   0.251   0.594
13722TIP3    H241108   0.204   0.130   0.516
13723TIP3   OH241109   6.580   5.719   1.797
13723TIP3    H141110   6.546   5.749   1.713
13723TIP3    H241111   6.517   5.654   1.828
13724TIP3   OH241112   4.916   6.072   0.640
13724TIP3    H141113   4.944   5.996   0.590
13724TIP3    H241114   4.822   6.058   0.656
13725TIP3   OH241115   7.260   7.432   2.510
13725TIP3    H141116   7.234   7.522   2.490
13725TIP3    H241117   7.181   7.390   2.543
13726TIP3   OH241118   8.304   6.376   2.330
13726TIP3    H141119   8.270   6.287   2.342
13726TIP3    H241120   8.282   6.421   2.412
13727TIP3   OH241121   6.033   3.126   0.162
13727TIP3    H141122   6.115   3.174   0.175
13727TIP3    H241123   5.972   3.164   0.225
13728TIP3   OH241124   7.304   4.813   2.670
13728TIP3    H141125   7.212   4.818   2.644
13728TIP3    H241126   7.351   4.852   2.596
13729TIP3   OH241127   7.759   0.768   2.878
13729TIP3    H141128   7.686   0.804   2.928
13729TIP3    H241129   7.725   0.686   2.842
13730TIP3   OH241130   3.591   6.057   6.674
13730TIP3    H141131   3.645   6.011   6.610
13730TIP3    H241132   3.644   6.131   6.702
13731TIP3   OH241133   6.058   0.264   6.104
13731TIP3    H141134   6.123   0.324   6.141
13731TIP3    H241135   5.974   0.298   6.134
13732TIP3   OH241136   5.781   6.010   5.571
13732TIP3    H141137   5.726   6.081   5.538
13732TIP3    H241138   5.798   6.034   5.662
13733TIP3   OH241139   1.514   3.336   3.477
13733TIP3    H141140   1.531   3.428   3.460
13733TIP3    H241141   1.575   3.313   3.547
13734TIP3   OH241142   1.937   6.759   6.091
13734TIP3    H141143   1.978   6.688   6.140
13734TIP3    H241144   1.983   6.838   6.120
13735TIP3   OH241145   0.689   3.703   4.089
13735TIP3    H141146   0.678   3.788   4.047
13735TIP3    H241147   0.680   3.720   4.182
13736TIP3   OH241148   7.585   4.786   4.470
13736TIP3    H141149   7.519   4.767   4.537
13736TIP3    H241150   7.637   4.857   4.507
13737TIP3   OH241151   0.578   5.760   4.653
13737TIP3    H141152   0.504   5.699   4.644
13737TIP3    H241153   0.537   5.844   4.672
13738TIP3   OH241154   3.128   1.454   2.063
13738TIP3    H141155   3.060   1.388   2.076
13738TIP3    H241156   3.208   1.403   2.052
13739TIP3   OH241157   2.348   4.494   6.809
13739TIP3    H141158   2.418   4.558   6.797
13739TIP3    H241159   2.394   4.413   6.830
13740TIP3   OH241160   0.899   3.760   3.606
13740TIP3    H141161   0.909   3.666   3.590
13740TIP3    H241162   0.888   3.768   3.701
13741TIP3   OH241163   0.929   4.480   2.209
13741TIP3    H141164   0.864   4.551   2.200
13741TIP3    H241165   1.012   4.525   2.224
13742TIP3   OH241166   6.850   4.290   6.032
13742TIP3    H141167   6.871   4.367   6.085
13742TIP3    H241168   6.819   4.225   6.095
13743TIP3   OH241169   3.266   6.737   0.713
13743TIP3    H141170   3.199   6.789   0.758
13743TIP3    H241171   3.217   6.683   0.652
13744TIP3   OH241172   0.627   5.149   1.669
13744TIP3    H141173   0.597   5.229   1.712
13744TIP3    H241174   0.547   5.105   1.642
13745TIP3   OH241175   3.341   5.172   2.694
13745TIP3    H141176   3.353   5.267   2.696
13745TIP3    H241177   3.382   5.144   2.612
13746TIP3   OH241178   2.862   3.239   1.979
13746TIP3    H141179   2.794   3.257   1.914
13746TIP3    H241180   2.887   3.148   1.963
13747TIP3   OH241181   7.761   3.857   3.123
13747TIP3    H141182   7.765   3.836   3.029
13747TIP3    H241183   7.680   3.907   3.133
13748TIP3   OH241184   0.410   3.632   6.330
13748TIP3    H141185   0.478   3.690   6.297
13748TIP3    H241186   0.382   3.671   6.412
13749TIP3   OH241187   5.443   4.367   0.168
13749TIP3    H141188   5.473   4.287   0.210
13749TIP3    H241189   5.370   4.397   0.223
13750TIP3   OH241190   1.791   2.856   2.349
13750TIP3    H141191   1.877   2.818   2.329
13750TIP3    H241192   1.736   2.780   2.367
13751TIP3   OH241193   6.468   3.954   0.156
13751TIP3    H141194   6.463   3.871   0.109
13751TIP3    H241195   6.444   3.933   0.246
13752TIP3   OH241196   2.373   2.758   1.213
13752TIP3    H141197   2.343   2.719   1.131
13752TIP3    H241198   2.465   2.734   1.219
13753TIP3   OH241199   3.057   7.694   5.317
13753TIP3    H141200   3.041   7.756   5.246
13753TIP3    H241201   2.994   7.624   5.302
13754TIP3   OH241202   4.838   3.480   2.955
13754TIP3    H141203   4.864   3.505   2.866
13754TIP3    H241204   4.780   3.405   2.943
13755TIP3   OH241205   3.523   2.178   0.029
13755TIP3    H141206   3.569   2.095   0.028
13755TIP3    H241207   3.553   2.223  -0.050
13756TIP3   OH241208   7.680   3.566   4.499
13756TIP3    H141209   7.586   3.554   4.483
13756TIP3    H241210   7.689   3.658   4.523
13757TIP3   OH241211   6.352   7.683   4.597
13757TIP3    H141212   6.362   7.618   4.668
13757TIP3    H241213   6.320   7.762   4.641
13758TIP3   OH241214   2.999   0.190   4.692
13758TIP3    H141215   3.074   0.142   4.727
13758TIP3    H241216   2.975   0.252   4.761
13759TIP3   OH241217   2.288   1.581   3.356
13759TIP3    H141218   2.231   1.657   3.366
13759TIP3    H241219   2.292   1.541   3.443
13760TIP3   OH241220   2.691   4.834   3.674
13760TIP3    H141221   2.627   4.906   3.671
13760TIP3    H241222   2.653   4.766   3.618
13761TIP3   OH241223   6.185   2.632   4.733
13761TIP3    H141224   6.106   2.580   4.721
13761TIP3    H241225   6.217   2.648   4.644
13762TIP3   OH241226   4.473   0.829   5.450
13762TIP3    H141227   4.398   0.789   5.406
13762TIP3    H241228   4.482   0.780   5.532
13763TIP3   OH241229   7.240   4.253   5.399
13763TIP3    H141230   7.298   4.235   5.472
13763TIP3    H241231   7.242   4.172   5.346
13764TIP3   OH241232   2.515   4.136   5.368
13764TIP3    H141233   2.457   4.198   5.411
13764TIP3    H241234   2.497   4.145   5.275
13765TIP3   OH241235   7.179   2.255   0.723
13765TIP3    H141236   7.232   2.243   0.802
13765TIP3    H241237   7.139   2.341   0.734
13766TIP3   OH241238   1.970   5.223   5.796
13766TIP3    H141239   2.052   5.176   5.787
13766TIP3    H241240   1.902   5.155   5.793
13767TIP3   OH241241   3.894   7.460   4.228
13767TIP3    H141242   3.823   7.395   4.224
13767TIP3    H241243   3.849   7.544   4.234
13768TIP3   OH241244   5.100   0.589   0.150
13768TIP3    H141245   5.179   0.608   0.100
13768TIP3    H241246   5.084   0.496   0.135
13769TIP3   OH241247   4.371   4.368   4.226
13769TIP3    H141248   4.312   4.361   4.151
13769TIP3    H241249   4.449   4.318   4.200
13770TIP3   OH241250   1.372   2.739   5.372
13770TIP3    H141251   1.292   2.747   5.320
13770TIP3    H241252   1.363   2.654   5.416
13771TIP3   OH241253   6.763   0.001   0.132
13771TIP3    H141254   6.693   0.058   0.164
13771TIP3    H241255   6.779   0.030   0.042
13772TIP3   OH241256   3.450   3.216   1.939
13772TIP3    H141257   3.533   3.202   1.894
13772TIP3    H241258   3.427   3.131   1.975
13773TIP3   OH241259   0.622   6.099   1.825
13773TIP3    H141260   0.649   6.127   1.913
13773TIP3    H241261   0.662   6.163   1.766
13774TIP3   OH241262   1.991   7.868   2.453
13774TIP3    H141263   1.969   7.934   2.519
13774TIP3    H241264   2.083   7.883   2.434
13775TIP3   OH241265   7.320   3.432   1.742
13775TIP3    H141266   7.293   3.447   1.652
13775TIP3    H241267   7.412   3.409   1.736
13776TIP3   OH241268   0.479   5.980   6.468
13776TIP3    H141269   0.521   5.918   6.527
13776TIP3    H241270   0.400   5.936   6.438
13777TIP3   OH241271   0.702   3.062   4.033
13777TIP3    H141272   0.716   2.974   4.068
13777TIP3    H241273   0.616   3.058   3.992
13778TIP3   OH241274   5.022   5.472   4.582
13778TIP3    H141275   5.043   5.406   4.648
13778TIP3    H241276   4.930   5.457   4.562
13779TIP3   OH241277   8.084   6.810   2.558
13779TIP3    H141278   8.108   6.902   2.546
13779TIP3    H241279   8.167   6.764   2.558
13780TIP3   OH241280   7.726   1.583   0.547
13780TIP3    H141281   7.645   1.631   0.562
13780TIP3    H241282   7.697   1.496   0.519
13781TIP3   OH241283   7.253   5.687   0.123
13781TIP3    H141284   7.286   5.607   0.164
13781TIP3    H241285   7.304   5.757   0.163
13782TIP3   OH241286   1.718   3.094   3.085
13782TIP3    H141287   1.705   3.003   3.060
13782TIP3    H241288   1.745   3.091   3.176
13783TIP3   OH241289   4.577   3.553   1.221
13783TIP3    H141290   4.583   3.539   1.127
13783TIP3    H241291   4.484   3.568   1.238
13784TIP3   OH241292   4.588   2.490   1.659
13784TIP3    H141293   4.556   2.443   1.582
13784TIP3    H241294   4.552   2.578   1.650
13785TIP3   OH241295   3.557   5.961   2.629
13785TIP3    H141296   3.585   5.876   2.664
13785TIP3    H241297   3.599   5.967   2.543
13786TIP3   OH241298   3.034   7.238   3.512
13786TIP3    H141299   3.045   7.310   3.574
13786TIP3    H241300   2.941   7.237   3.492
13787TIP3   OH241301   6.402   4.516   3.737
13787TIP3    H141302   6.357   4.443   3.695
13787TIP3    H241303   6.373   4.514   3.828
13788TIP3   OH241304   1.975   5.459   4.476
13788TIP3    H141305   1.984   5.537   4.422
13788TIP3    H241306   1.959   5.388   4.413
13789TIP3   OH241307   0.817   1.383   3.067
13789TIP3    H141308   0.859   1.304   3.100
13789TIP3    H241309   0.873   1.412   2.995
13790TIP3   OH241310   4.470   1.365   4.647
13790TIP3    H141311   4.415   1.435   4.613
13790TIP3    H241312   4.482   1.385   4.740
13791TIP3   OH241313   4.019   5.201   2.294
13791TIP3    H141314   4.102   5.230   2.330
13791TIP3    H241315   3.953   5.227   2.359
13792TIP3   OH241316   1.298   0.818   4.638
13792TIP3    H141317   1.254   0.784   4.716
13792TIP3    H241318   1.303   0.743   4.579
13793TIP3   OH241319   0.934   7.138   1.277
13793TIP3    H141320   1.023   7.172   1.266
13793TIP3    H241321   0.880   7.215   1.290
13794TIP3   OH241322   5.414   7.075   3.485
13794TIP3    H141323   5.336   7.032   3.450
13794TIP3    H241324   5.485   7.045   3.428
13795TIP3   OH241325   2.149   7.788   2.790
13795TIP3    H141326   2.171   7.850   2.721
13795TIP3    H241327   2.081   7.832   2.841
13796TIP3   OH241328   1.065   4.346   5.414
13796TIP3    H141329   1.115   4.413   5.368
13796TIP3    H241330   0.989   4.330   5.357
13797TIP3   OH241331   5.578   5.555   0.359
13797TIP3    H141332   5.547   5.598   0.279
13797TIP3    H241333   5.502   5.552   0.417
13798TIP3   OH241334   5.455   4.275   3.539
13798TIP3    H141335   5.546   4.245   3.540
13798TIP3    H241336   5.460   4.368   3.564
13799TIP3   OH241337   0.232   4.223   1.743
13799TIP3    H141338   0.292   4.259   1.677
13799TIP3    H241339   0.278   4.234   1.826
13800TIP3   OH241340   0.356   5.005   4.089
13800TIP3    H141341   0.346   5.068   4.018
13800TIP3    H241342   0.310   5.045   4.163
13801TIP3   OH241343   1.371   3.710   2.007
13801TIP3    H141344   1.370   3.618   1.979
13801TIP3    H241345   1.464   3.733   2.009
13802TIP3   OH241346   6.049   0.937   4.264
13802TIP3    H141347   6.139   0.969   4.268
13802TIP3    H241348   6.055   0.846   4.293
13803TIP3   OH241349   4.982   5.385   6.764
13803TIP3    H141350   4.947   5.297   6.757
13803TIP3    H241351   5.034   5.398   6.685
13804TIP3   OH241352   3.549   4.758   2.924
13804TIP3    H141353   3.516   4.832   2.872
13804TIP3    H241354   3.470   4.715   2.957
13805TIP3   OH241355   7.956   2.076   1.397
13805TIP3    H141356   7.953   2.055   1.303
13805TIP3    H241357   7.936   2.170   1.401
13806TIP3   OH241358   4.462   3.442   4.433
13806TIP3    H141359   4.529   3.417   4.369
13806TIP3    H241360   4.416   3.361   4.453
13807TIP3   OH241361   2.781   3.538   4.074
13807TIP3    H141362   2.755   3.451   4.102
13807TIP3    H241363   2.841   3.523   4.001
13808TIP3   OH241364   1.906   4.884   1.164
13808TIP3    H141365   1.961   4.828   1.219
13808TIP3    H241366   1.926   4.856   1.075
13809TIP3   OH241367   5.397   4.671   4.320
13809TIP3    H141368   5.460   4.740   4.304
13809TIP3    H241369   5.384   4.671   4.415
13810TIP3   OH241370   6.445   4.263   2.382
13810TIP3    H141371   6.372   4.313   2.348
13810TIP3    H241372   6.408   4.209   2.452
13811TIP3   OH241373   4.554   7.669   1.002
13811TIP3    H141374   4.575   7.761   0.983
13811TIP3    H241375   4.461   7.670   1.026
13812TIP3   OH241376   0.741   1.130   3.269
13812TIP3    H141377   0.723   1.097   3.181
13812TIP3    H241378   0.830   1.100   3.288
13813TIP3   OH241379   7.636   5.958   6.089
13813TIP3    H141380   7.729   5.982   6.099
13813TIP3    H241381   7.611   5.994   6.005
13814TIP3   OH241382   5.079   6.288   3.949
13814TIP3    H141383   5.017   6.327   3.887
13814TIP3    H241384   5.151   6.256   3.894
13815TIP3   OH241385   3.789   4.739   4.405
13815TIP3    H141386   3.774   4.653   4.445
13815TIP3    H241387   3.841   4.719   4.327
13816TIP3   OH241388   5.705   6.535   6.092
13816TIP3    H141389   5.758   6.562   6.017
13816TIP3    H241390   5.657   6.613   6.117
13817TIP3   OH241391   2.496   1.282   2.401
13817TIP3    H141392   2.406   1.252   2.387
13817TIP3    H241393   2.495   1.325   2.486
13818TIP3   OH241394   1.369   4.629   0.224
13818TIP3    H141395   1.327   4.650   0.140
13818TIP3    H241396   1.297   4.633   0.287
13819TIP3   OH241397   1.303   4.163   2.886
13819TIP3    H141398   1.250   4.227   2.839
13819TIP3    H241399   1.367   4.133   2.821
13820TIP3   OH241400   0.755   2.164   0.343
13820TIP3    H141401   0.740   2.189   0.252
13820TIP3    H241402   0.722   2.237   0.395
13821TIP3   OH241403   5.503   6.664   5.157
13821TIP3    H141404   5.529   6.577   5.186
13821TIP3    H241405   5.422   6.650   5.108
13822TIP3   OH241406   8.421   4.353   2.813
13822TIP3    H141407   8.372   4.355   2.731
13822TIP3    H241408   8.376   4.286   2.865
13823TIP3   OH241409   5.787   6.082   6.511
13823TIP3    H141410   5.737   6.159   6.483
13823TIP3    H241411   5.827   6.049   6.430
13824TIP3   OH241412   7.379   1.572   0.803
13824TIP3    H141413   7.448   1.549   0.864
13824TIP3    H241414   7.370   1.494   0.747
13825TIP3   OH241415   2.888   6.850   4.231
13825TIP3    H141416   2.899   6.923   4.292
13825TIP3    H241417   2.828   6.790   4.275
13826TIP3   OH241418   8.196   6.294   4.625
13826TIP3    H141419   8.202   6.389   4.626
13826TIP3    H241420   8.104   6.275   4.606
13827TIP3   OH241421   0.481   4.875   5.056
13827TIP3    H141422   0.478   4.957   5.006
13827TIP3    H241423   0.499   4.808   4.990
13828TIP3   OH241424   7.814   3.222   1.770
13828TIP3    H141425   7.889   3.244   1.715
13828TIP3    H241426   7.772   3.148   1.726
13829TIP3   OH241427   7.376   3.428   3.917
13829TIP3    H141428   7.335   3.379   3.989
13829TIP3    H241429   7.406   3.510   3.957
13830TIP3   OH241430   8.026   2.462   4.038
13830TIP3    H141431   8.111   2.419   4.048
13830TIP3    H241432   7.994   2.474   4.127
13831TIP3   OH241433   3.492   4.403   4.154
13831TIP3    H141434   3.568   4.458   4.136
13831TIP3    H241435   3.484   4.404   4.250
13832TIP3   OH241436   6.618   1.959   5.450
13832TIP3    H141437   6.560   1.892   5.487
13832TIP3    H241438   6.662   1.998   5.526
13833TIP3   OH241439   3.145   3.447   5.232
13833TIP3    H141440   3.060   3.408   5.252
13833TIP3    H241441   3.143   3.533   5.275
13834TIP3   OH241442   3.204   1.272   4.143
13834TIP3    H141443   3.242   1.358   4.124
13834TIP3    H241444   3.253   1.212   4.087
13835TIP3   OH241445   5.830   7.345   0.930
13835TIP3    H141446   5.833   7.318   1.022
13835TIP3    H241447   5.766   7.416   0.927
13836TIP3   OH241448   5.410   6.490   0.061
13836TIP3    H141449   5.354   6.561   0.027
13836TIP3    H241450   5.365   6.410   0.033
13837TIP3   OH241451   4.723   3.285   6.423
13837TIP3    H141452   4.639   3.329   6.407
13837TIP3    H241453   4.772   3.347   6.478
13838TIP3   OH241454   5.214   6.478   6.729
13838TIP3    H141455   5.242   6.543   6.793
13838TIP3    H241456   5.156   6.420   6.777
13839TIP3   OH241457   0.015   1.379   3.884
13839TIP3    H141458  -0.059   1.321   3.866
13839TIP3    H241459   0.054   1.344   3.964
13840TIP3   OH241460   6.957   4.199   5.364
13840TIP3    H141461   7.045   4.217   5.396
13840TIP3    H241462   6.910   4.164   5.439
13841TIP3   OH241463   8.095   2.636   1.322
13841TIP3    H141464   8.077   2.627   1.415
13841TIP3    H241465   8.180   2.680   1.318
13842TIP3   OH241466   1.501   6.336   0.598
13842TIP3    H141467   1.553   6.415   0.588
13842TIP3    H241468   1.528   6.280   0.526
13843TIP3   OH241469   8.335   6.698   3.346
13843TIP3    H141470   8.297   6.623   3.300
13843TIP3    H241471   8.381   6.659   3.420
13844TIP3   OH241472   6.239   1.543   3.290
13844TIP3    H141473   6.184   1.622   3.281
13844TIP3    H241474   6.275   1.549   3.378
13845TIP3   OH241475   8.042   5.068   0.624
13845TIP3    H141476   8.124   5.116   0.625
13845TIP3    H241477   8.043   5.021   0.541
13846TIP3   OH241478   0.392   4.983   1.707
13846TIP3    H141479   0.385   4.888   1.701
13846TIP3    H241480   0.303   5.013   1.726
13847TIP3   OH241481   3.286   2.184   5.912
13847TIP3    H141482   3.217   2.150   5.856
13847TIP3    H241483   3.363   2.132   5.890
13848TIP3   OH241484   4.340   7.402   2.447
13848TIP3    H141485   4.270   7.397   2.512
13848TIP3    H241486   4.295   7.416   2.364
13849TIP3   OH241487   1.729   0.318   3.376
13849TIP3    H141488   1.682   0.391   3.415
13849TIP3    H241489   1.772   0.275   3.451
13850TIP3   OH241490   0.198   1.424   3.663
13850TIP3    H141491   0.163   1.438   3.574
13850TIP3    H241492   0.125   1.384   3.711
13851TIP3   OH241493   6.436   1.487   4.173
13851TIP3    H141494   6.508   1.544   4.199
13851TIP3    H241495   6.362   1.546   4.159
13852TIP3   OH241496   7.544   2.272   5.656
13852TIP3    H141497   7.462   2.229   5.681
13852TIP3    H241498   7.556   2.247   5.564
13853TIP3   OH241499   6.471   7.787   5.336
13853TIP3    H141500   6.483   7.726   5.408
13853TIP3    H241501   6.553   7.836   5.332
13854TIP3   OH241502   3.379   5.275   5.842
13854TIP3    H141503   3.297   5.230   5.821
13854TIP3    H241504   3.441   5.243   5.777
13855TIP3   OH241505   6.603   5.155   1.568
13855TIP3    H141506   6.576   5.186   1.481
13855TIP3    H241507   6.587   5.060   1.565
13856TIP3   OH241508   4.489   7.180   0.666
13856TIP3    H141509   4.404   7.144   0.641
13856TIP3    H241510   4.485   7.186   0.762
13857TIP3   OH241511   0.594   0.504   0.310
13857TIP3    H141512   0.683   0.470   0.298
13857TIP3    H241513   0.598   0.592   0.274
13858TIP3   OH241514   3.929   4.854   0.324
13858TIP3    H141515   3.885   4.787   0.272
13858TIP3    H241516   4.016   4.818   0.340
13859TIP3   OH241517   0.783   1.344   5.343
13859TIP3    H141518   0.731   1.268   5.318
13859TIP3    H241519   0.754   1.365   5.432
13860TIP3   OH241520   1.415   5.367   3.880
13860TIP3    H141521   1.472   5.428   3.927
13860TIP3    H241522   1.412   5.290   3.935
13861TIP3   OH241523   4.988   7.021   3.022
13861TIP3    H141524   4.973   6.933   3.058
13861TIP3    H241525   5.071   7.049   3.059
13862TIP3   OH241526   1.806   0.290   1.149
13862TIP3    H141527   1.732   0.256   1.198
13862TIP3    H241528   1.804   0.385   1.165
13863TIP3   OH241529   7.968   2.103   4.480
13863TIP3    H141530   7.912   2.127   4.405
13863TIP3    H241531   8.034   2.172   4.483
13864TIP3   OH241532   5.985   4.053   0.143
13864TIP3    H141533   5.931   4.132   0.141
13864TIP3    H241534   5.923   3.980   0.144
13865TIP3   OH241535   7.659   2.772   4.712
13865TIP3    H141536   7.709   2.804   4.637
13865TIP3    H241537   7.688   2.824   4.786
13866TIP3   OH241538   8.184   3.063   3.396
13866TIP3    H141539   8.178   3.039   3.304
13866TIP3    H241540   8.093   3.064   3.427
13867TIP3   OH241541   3.886   6.532   6.647
13867TIP3    H141542   3.828   6.590   6.697
13867TIP3    H241543   3.955   6.509   6.709
13868TIP3   OH241544   5.700   2.873   3.936
13868TIP3    H141545   5.710   2.779   3.925
13868TIP3    H241546   5.727   2.891   4.026
13869TIP3   OH241547   2.885   5.970   3.954
13869TIP3    H141548   2.883   6.033   4.026
13869TIP3    H241549   2.976   5.940   3.950
13870TIP3   OH241550   3.153   1.324   1.606
13870TIP3    H141551   3.131   1.381   1.679
13870TIP3    H241552   3.249   1.321   1.605
13871TIP3   OH241553   1.577   1.752   6.688
13871TIP3    H141554   1.578   1.712   6.775
13871TIP3    H241555   1.665   1.788   6.677
13872TIP3   OH241556   3.863   6.923   5.958
13872TIP3    H141557   3.824   6.857   5.901
13872TIP3    H241558   3.847   6.890   6.046
13873TIP3   OH241559   6.129   5.686   2.807
13873TIP3    H141560   6.082   5.724   2.881
13873TIP3    H241561   6.139   5.594   2.830
13874TIP3   OH241562   6.936   4.061   4.720
13874TIP3    H141563   7.017   4.093   4.759
13874TIP3    H241564   6.900   4.138   4.676
13875TIP3   OH241565   7.250   6.363   6.203
13875TIP3    H141566   7.292   6.294   6.255
13875TIP3    H241567   7.298   6.443   6.225
13876TIP3   OH241568   4.834   2.879   6.449
13876TIP3    H141569   4.788   2.798   6.424
13876TIP3    H241570   4.792   2.947   6.397
13877TIP3   OH241571   5.791   2.834   4.737
13877TIP3    H141572   5.756   2.923   4.743
13877TIP3    H241573   5.724   2.785   4.689
13878TIP3   OH241574   1.795   4.466   2.337
13878TIP3    H141575   1.821   4.374   2.345
13878TIP3    H241576   1.859   4.514   2.388
13879TIP3   OH241577   4.406   1.080   6.763
13879TIP3    H141578   4.315   1.064   6.739
13879TIP3    H241579   4.404   1.162   6.812
13880TIP3   OH241580   7.950   2.363   5.363
13880TIP3    H141581   7.946   2.365   5.459
13880TIP3    H241582   8.042   2.343   5.343
13881TIP3   OH241583   2.429   4.150   3.281
13881TIP3    H141584   2.455   4.066   3.245
13881TIP3    H241585   2.421   4.208   3.205
13882TIP3   OH241586   8.056   5.417   2.438
13882TIP3    H141587   7.967   5.398   2.410
13882TIP3    H241588   8.063   5.512   2.432
13883TIP3   OH241589   2.014   4.171   2.805
13883TIP3    H141590   2.013   4.108   2.733
13883TIP3    H241591   1.950   4.238   2.780
13884TIP3   OH241592   0.825   0.301   2.010
13884TIP3    H141593   0.838   0.207   2.024
13884TIP3    H241594   0.810   0.308   1.915
13885TIP3   OH241595   2.099   3.437   2.088
13885TIP3    H141596   2.110   3.532   2.094
13885TIP3    H241597   2.074   3.411   2.177
13886TIP3   OH241598   0.421   5.238   5.261
13886TIP3    H141599   0.489   5.183   5.299
13886TIP3    H241600   0.360   5.252   5.334
13887TIP3   OH241601   3.757   3.333   2.558
13887TIP3    H141602   3.732   3.278   2.484
13887TIP3    H241603   3.698   3.408   2.552
13888TIP3   OH241604   1.128   0.411   4.846
13888TIP3    H141605   1.112   0.443   4.935
13888TIP3    H241606   1.115   0.316   4.853
13889TIP3   OH241607   6.706   3.745   2.371
13889TIP3    H141608   6.654   3.792   2.306
13889TIP3    H241609   6.761   3.685   2.320
13890TIP3   OH241610   6.752   7.531   3.064
13890TIP3    H141611   6.676   7.497   3.112
13890TIP3    H241612   6.821   7.467   3.079
13891TIP3   OH241613   6.790   4.561   3.858
13891TIP3    H141614   6.754   4.574   3.946
13891TIP3    H241615   6.815   4.469   3.856
13892TIP3   OH241616   3.614   6.402   1.186
13892TIP3    H141617   3.702   6.394   1.224
13892TIP3    H241618   3.555   6.378   1.257
13893TIP3   OH241619   5.388   3.999   1.592
13893TIP3    H141620   5.456   3.954   1.543
13893TIP3    H241621   5.337   4.045   1.526
13894TIP3   OH241622   1.914   6.414   4.827
13894TIP3    H141623   1.835   6.454   4.791
13894TIP3    H241624   1.965   6.487   4.861
13895TIP3   OH241625   7.675   6.692   0.500
13895TIP3    H141626   7.618   6.674   0.574
13895TIP3    H241627   7.645   6.632   0.432
13896TIP3   OH241628   5.549   2.177   6.152
13896TIP3    H141629   5.552   2.166   6.247
13896TIP3    H241630   5.552   2.272   6.139
13897TIP3   OH241631   2.088   1.990   5.246
13897TIP3    H141632   2.065   1.934   5.172
13897TIP3    H241633   2.016   2.053   5.253
13898TIP3   OH241634   8.135   3.546   2.939
13898TIP3    H141635   8.110   3.490   3.013
13898TIP3    H241636   8.151   3.632   2.978
13899TIP3   OH241637   5.113   3.683   1.398
13899TIP3    H141638   5.020   3.677   1.375
13899TIP3    H241639   5.119   3.761   1.453
13900TIP3   OH241640   7.326   1.095   1.897
13900TIP3    H141641   7.346   1.030   1.829
13900TIP3    H241642   7.399   1.089   1.958
13901TIP3   OH241643   3.875   6.165   0.797
13901TIP3    H141644   3.936   6.181   0.725
13901TIP3    H241645   3.861   6.251   0.835
13902TIP3   OH241646   0.916   2.966   3.637
13902TIP3    H141647   0.886   2.923   3.717
13902TIP3    H241648   0.951   2.896   3.583
13903TIP3   OH241649   3.756   7.425   6.730
13903TIP3    H141650   3.747   7.502   6.786
13903TIP3    H241651   3.851   7.413   6.722
13904TIP3   OH241652   8.136   0.259   0.801
13904TIP3    H141653   8.170   0.332   0.749
13904TIP3    H241654   8.076   0.213   0.742
13905TIP3   OH241655   6.115   0.479   1.333
13905TIP3    H141656   6.035   0.502   1.287
13905TIP3    H241657   6.134   0.553   1.389
13906TIP3   OH241658   7.761   1.035   2.740
13906TIP3    H141659   7.672   1.069   2.744
13906TIP3    H241660   7.752   0.941   2.758
13907TIP3   OH241661   7.582   5.422   2.180
13907TIP3    H141662   7.513   5.455   2.236
13907TIP3    H241663   7.541   5.414   2.094
13908TIP3   OH241664   0.659   2.436   0.419
13908TIP3    H141665   0.751   2.453   0.440
13908TIP3    H241666   0.633   2.510   0.364
13909TIP3   OH241667   4.367   7.904   2.215
13909TIP3    H141668   4.422   7.841   2.168
13909TIP3    H241669   4.407   7.989   2.195
13910TIP3   OH241670   5.803   6.046   0.358
13910TIP3    H141671   5.898   6.061   0.355
13910TIP3    H241672   5.773   6.101   0.431
13911TIP3   OH241673   4.572   6.124   2.113
13911TIP3    H141674   4.595   6.216   2.102
13911TIP3    H241675   4.643   6.087   2.165
13912TIP3   OH241676   0.358   6.689   5.236
13912TIP3    H141677   0.362   6.709   5.329
13912TIP3    H241678   0.265   6.676   5.218
13913TIP3   OH241679   0.188   7.394   6.779
13913TIP3    H141680   0.253   7.325   6.761
13913TIP3    H241681   0.240   7.467   6.812
13914TIP3   OH241682   4.369   4.500   6.445
13914TIP3    H141683   4.355   4.500   6.539
13914TIP3    H241684   4.443   4.559   6.431
13915TIP3   OH241685   1.398   2.996   5.472
13915TIP3    H141686   1.402   2.902   5.456
13915TIP3    H241687   1.323   3.008   5.530
13916TIP3   OH241688   8.163   7.876   3.444
13916TIP3    H141689   8.189   7.843   3.359
13916TIP3    H241690   8.069   7.856   3.450
13917TIP3   OH241691   0.908   3.671   6.117
13917TIP3    H141692   0.876   3.761   6.120
13917TIP3    H241693   0.977   3.668   6.183
13918TIP3   OH241694   7.467   7.824   3.491
13918TIP3    H141695   7.375   7.817   3.515
13918TIP3    H241696   7.476   7.768   3.413
13919TIP3   OH241697   0.204   1.448   0.245
13919TIP3    H141698   0.263   1.514   0.281
13919TIP3    H241699   0.180   1.394   0.321
13920TIP3   OH241700   4.327   6.508   1.463
13920TIP3    H141701   4.273   6.439   1.501
13920TIP3    H241702   4.344   6.568   1.536
13921TIP3   OH241703   6.044   7.480   4.597
13921TIP3    H141704   6.039   7.450   4.688
13921TIP3    H241705   6.010   7.569   4.598
13922TIP3   OH241706   1.282   2.877   3.718
13922TIP3    H141707   1.270   2.808   3.783
13922TIP3    H241708   1.230   2.950   3.752
13923TIP3   OH241709   2.923   4.496   5.084
13923TIP3    H141710   2.867   4.451   5.021
13923TIP3    H241711   2.995   4.436   5.100
13924TIP3   OH241712   5.602   6.920   0.740
13924TIP3    H141713   5.635   6.852   0.682
13924TIP3    H241714   5.670   6.988   0.738
13925TIP3   OH241715   6.080   2.966   1.501
13925TIP3    H141716   6.062   2.937   1.412
13925TIP3    H241717   5.995   2.963   1.545
13926TIP3   OH241718   3.664   3.029   4.888
13926TIP3    H141719   3.709   2.952   4.854
13926TIP3    H241720   3.602   3.052   4.819
13927TIP3   OH241721   4.151   6.353   2.439
13927TIP3    H141722   4.176   6.383   2.527
13927TIP3    H241723   4.162   6.257   2.443
13928TIP3   OH241724   7.175   2.190   3.059
13928TIP3    H141725   7.126   2.118   3.099
13928TIP3    H241726   7.143   2.193   2.968
13929TIP3   OH241727   7.887   7.787   3.505
13929TIP3    H141728   7.816   7.819   3.561
13929TIP3    H241729   7.870   7.693   3.498
13930TIP3   OH241730   6.606   7.190   0.326
13930TIP3    H141731   6.630   7.101   0.300
13930TIP3    H241732   6.592   7.184   0.420
13931TIP3   OH241733   6.507   1.129   2.029
13931TIP3    H141734   6.558   1.159   1.954
13931TIP3    H241735   6.480   1.210   2.074
13932TIP3   OH241736   5.262   7.510   4.971
13932TIP3    H141737   5.259   7.414   4.976
13932TIP3    H241738   5.187   7.540   5.022
13933TIP3   OH241739   4.145   5.074   4.520
13933TIP3    H141740   4.057   5.037   4.520
13933TIP3    H241741   4.136   5.158   4.474
13934TIP3   OH241742   3.170   5.345   5.297
13934TIP3    H141743   3.255   5.327   5.256
13934TIP3    H241744   3.156   5.273   5.358
13935TIP3   OH241745   4.602   6.832   3.132
13935TIP3    H141746   4.548   6.772   3.081
13935TIP3    H241747   4.586   6.918   3.092
13936TIP3   OH241748   2.647   4.421   0.755
13936TIP3    H141749   2.741   4.413   0.746
13936TIP3    H241750   2.632   4.418   0.850
13937TIP3   OH241751   8.132   6.097   2.005
13937TIP3    H141752   8.128   6.034   1.933
13937TIP3    H241753   8.161   6.178   1.964
13938TIP3   OH241754   8.249   3.332   1.453
13938TIP3    H141755   8.291   3.248   1.433
13938TIP3    H241756   8.188   3.345   1.381
13939TIP3   OH241757   6.951   1.673   1.253
13939TIP3    H141758   6.902   1.602   1.296
13939TIP3    H241759   6.976   1.732   1.323
13940TIP3   OH241760   0.753   0.811   2.760
13940TIP3    H141761   0.792   0.890   2.723
13940TIP3    H241762   0.663   0.811   2.726
13941TIP3   OH241763   5.123   5.011   1.621
13941TIP3    H141764   5.158   4.985   1.706
13941TIP3    H241765   5.068   4.938   1.594
13942TIP3   OH241766   8.140   7.746   2.712
13942TIP3    H141767   8.170   7.710   2.629
13942TIP3    H241768   8.082   7.818   2.688
13943TIP3   OH241769   8.345   1.815   2.085
13943TIP3    H141770   8.284   1.794   2.156
13943TIP3    H241771   8.314   1.900   2.051
13944TIP3   OH241772   7.632   3.072   1.579
13944TIP3    H141773   7.623   3.162   1.548
13944TIP3    H241774   7.565   3.063   1.647
13945TIP3   OH241775   5.302   4.620   2.760
13945TIP3    H141776   5.234   4.687   2.765
13945TIP3    H241777   5.324   4.601   2.851
13946TIP3   OH241778   5.909   0.680   4.850
13946TIP3    H141779   5.899   0.756   4.793
13946TIP3    H241780   5.917   0.718   4.938
13947TIP3   OH241781   5.657   6.500   0.902
13947TIP3    H141782   5.598   6.489   0.828
13947TIP3    H241783   5.741   6.523   0.862
13948TIP3   OH241784   3.317   3.391   0.654
13948TIP3    H141785   3.364   3.331   0.712
13948TIP3    H241786   3.383   3.418   0.589
13949TIP3   OH241787   7.612   5.004   3.111
13949TIP3    H141788   7.688   5.062   3.114
13949TIP3    H241789   7.602   4.984   3.018
13950TIP3   OH241790   5.087   6.073   6.016
13950TIP3    H141791   5.023   6.002   6.001
13950TIP3    H241792   5.146   6.068   5.941
13951TIP3   OH241793   7.094   2.119   1.847
13951TIP3    H141794   7.078   2.181   1.776
13951TIP3    H241795   7.049   2.158   1.923
13952TIP3   OH241796   4.792   1.762   3.277
13952TIP3    H141797   4.843   1.707   3.336
13952TIP3    H241798   4.778   1.844   3.325
13953TIP3   OH241799   7.939   1.059   4.798
13953TIP3    H141800   7.851   1.083   4.770
13953TIP3    H241801   7.949   0.968   4.771
13954TIP3   OH241802   1.996   7.206   0.420
13954TIP3    H141803   1.992   7.114   0.394
13954TIP3    H241804   2.003   7.254   0.337
13955TIP3   OH241805   4.794   3.927   3.406
13955TIP3    H141806   4.700   3.916   3.390
13955TIP3    H241807   4.799   4.000   3.468
13956TIP3   OH241808   2.904   5.814   0.120
13956TIP3    H141809   2.983   5.850   0.161
13956TIP3    H241810   2.884   5.736   0.172
13957TIP3   OH241811   7.352   3.113   3.243
13957TIP3    H141812   7.260   3.128   3.221
13957TIP3    H241813   7.371   3.178   3.312
13958TIP3   OH241814   4.084   2.539   6.246
13958TIP3    H141815   4.103   2.585   6.328
13958TIP3    H241816   4.058   2.451   6.273
13959TIP3   OH241817   0.193   2.513   4.405
13959TIP3    H141818   0.219   2.605   4.407
13959TIP3    H241819   0.244   2.475   4.333
13960TIP3   OH241820   7.532   3.850   5.895
13960TIP3    H141821   7.564   3.926   5.848
13960TIP3    H241822   7.437   3.850   5.880
13961TIP3   OH241823   7.777   3.291   3.782
13961TIP3    H141824   7.828   3.226   3.734
13961TIP3    H241825   7.834   3.320   3.852
13962TIP3   OH241826   8.107   5.036   2.158
13962TIP3    H141827   8.158   5.013   2.236
13962TIP3    H241828   8.156   5.109   2.120
13963TIP3   OH241829   1.343   6.967   3.280
13963TIP3    H141830   1.292   7.046   3.262
13963TIP3    H241831   1.295   6.898   3.234
13964TIP3   OH241832   7.647   6.560   3.104
13964TIP3    H141833   7.611   6.485   3.151
13964TIP3    H241834   7.707   6.522   3.040
13965TIP3   OH241835   7.687   3.561   2.664
13965TIP3    H141836   7.774   3.522   2.667
13965TIP3    H241837   7.627   3.486   2.659
13966TIP3   OH241838   2.726   1.563   2.505
13966TIP3    H141839   2.651   1.508   2.529
13966TIP3    H241840   2.715   1.642   2.558
13967TIP3   OH241841   1.608   6.867   4.120
13967TIP3    H141842   1.692   6.880   4.163
13967TIP3    H241843   1.609   6.775   4.092
13968TIP3   OH241844   5.805  -0.032   4.537
13968TIP3    H141845   5.843   0.056   4.530
13968TIP3    H241846   5.710  -0.017   4.532
13969TIP3   OH241847   0.114   5.074   3.447
13969TIP3    H141848   0.096   5.145   3.385
13969TIP3    H241849   0.075   5.104   3.529
13970TIP3   OH241850   1.004   0.244   1.235
13970TIP3    H141851   1.018   0.149   1.228
13970TIP3    H241852   1.093   0.281   1.231
13971TIP3   OH241853   6.563   2.379   2.095
13971TIP3    H141854   6.490   2.317   2.097
13971TIP3    H241855   6.524   2.463   2.122
13972TIP3   OH241856   0.312   2.758   4.363
13972TIP3    H141857   0.315   2.826   4.430
13972TIP3    H241858   0.381   2.783   4.301
13973TIP3   OH241859   0.694   6.166   3.730
13973TIP3    H141860   0.700   6.261   3.716
13973TIP3    H241861   0.600   6.149   3.739
13974TIP3   OH241862   6.804   6.531   1.825
13974TIP3    H141863   6.790   6.437   1.812
13974TIP3    H241864   6.852   6.537   1.908
13975TIP3   OH241865   2.034   3.605   3.198
13975TIP3    H141866   2.009   3.696   3.216
13975TIP3    H241867   1.975   3.553   3.252
13976TIP3   OH241868   5.248   7.647   4.037
13976TIP3    H141869   5.297   7.578   3.991
13976TIP3    H241870   5.224   7.608   4.121
13977TIP3   OH241871   4.236   1.492   4.555
13977TIP3    H141872   4.189   1.418   4.517
13977TIP3    H241873   4.237   1.559   4.486
13978TIP3   OH241874   6.963   4.185   6.442
13978TIP3    H141875   6.891   4.186   6.505
13978TIP3    H241876   6.969   4.094   6.412
13979TIP3   OH241877   2.907   3.873   6.120
13979TIP3    H141878   2.817   3.853   6.148
13979TIP3    H241879   2.904   3.966   6.095
13980TIP3   OH241880   1.957   5.663   3.408
13980TIP3    H141881   1.958   5.655   3.503
13980TIP3    H241882   1.945   5.757   3.392
13981TIP3   OH241883   4.731   3.152   2.386
13981TIP3    H141884   4.771   3.126   2.469
13981TIP3    H241885   4.645   3.111   2.387
13982TIP3   OH241886   6.812   6.823   2.982
13982TIP3    H141887   6.869   6.747   2.990
13982TIP3    H241888   6.861   6.884   2.927
13983TIP3   OH241889   7.758   7.639   0.549
13983TIP3    H141890   7.853   7.634   0.548
13983TIP3    H241891   7.736   7.675   0.635
13984TIP3   OH241892   2.180   4.740   2.969
13984TIP3    H141893   2.202   4.771   2.881
13984TIP3    H241894   2.120   4.807   3.003
13985TIP3   OH241895   1.991   1.932   2.822
13985TIP3    H141896   1.938   2.010   2.837
13985TIP3    H241897   2.007   1.897   2.909
13986TIP3   OH241898   2.494   4.396   1.657
13986TIP3    H141899   2.459   4.427   1.573
13986TIP3    H241900   2.466   4.305   1.664
13987TIP3   OH241901   5.210   6.436   4.251
13987TIP3    H141902   5.192   6.457   4.160
13987TIP3    H241903   5.126   6.406   4.285
13988TIP3   OH241904   2.868   0.154   5.735
13988TIP3    H141905   2.837   0.070   5.703
13988TIP3    H241906   2.957   0.137   5.765
13989TIP3   OH241907   2.952   3.634   1.015
13989TIP3    H141908   2.994   3.559   0.973
13989TIP3    H241909   2.923   3.602   1.100
13990TIP3   OH241910   7.915   2.068   3.144
13990TIP3    H141911   7.967   2.084   3.223
13990TIP3    H241912   7.950   1.986   3.110
13991TIP3   OH241913   4.443   1.006   0.277
13991TIP3    H141914   4.421   1.046   0.193
13991TIP3    H241915   4.522   1.050   0.306
13992TIP3   OH241916   7.415   0.551   0.903
13992TIP3    H141917   7.491   0.592   0.860
13992TIP3    H241918   7.441   0.546   0.995
13993TIP3   OH241919   7.138   0.412   1.200
13993TIP3    H141920   7.143   0.484   1.137
13993TIP3    H241921   7.119   0.455   1.283
13994TIP3   OH241922   7.487   0.600   4.863
13994TIP3    H141923   7.578   0.588   4.838
13994TIP3    H241924   7.474   0.695   4.861
13995TIP3   OH241925   4.262   5.577   1.839
13995TIP3    H141926   4.263   5.482   1.850
13995TIP3    H241927   4.291   5.611   1.924
13996TIP3   OH241928   4.844   7.590   2.217
13996TIP3    H141929   4.866   7.499   2.238
13996TIP3    H241930   4.919   7.641   2.245
13997TIP3   OH241931   4.665   2.703   0.060
13997TIP3    H141932   4.597   2.762   0.091
13997TIP3    H241933   4.730   2.702   0.131
13998TIP3   OH241934   4.042   5.078   0.530
13998TIP3    H141935   3.952   5.050   0.514
13998TIP3    H241936   4.072   5.112   0.446
13999TIP3   OH241937   5.098   4.315   3.622
13999TIP3    H141938   5.162   4.266   3.570
13999TIP3    H241939   5.038   4.353   3.558
14000TIP3   OH241940   6.922   7.528   0.401
14000TIP3    H141941   6.924   7.436   0.425
14000TIP3    H241942   6.923   7.528   0.305
14001TIP3   OH241943   8.110   2.665   6.008
14001TIP3    H141944   8.181   2.618   6.052
14001TIP3    H241945   8.031   2.637   6.054
14002TIP3   OH241946   7.766   3.848   4.524
14002TIP3    H141947   7.832   3.800   4.573
14002TIP3    H241948   7.813   3.924   4.488
14003TIP3   OH241949   8.388   4.193   2.390
14003TIP3    H141950   8.372   4.173   2.482
14003TIP3    H241951   8.395   4.107   2.348
14004TIP3   OH241952   5.894   2.223   4.372
14004TIP3    H141953   5.970   2.164   4.374
14004TIP3    H241954   5.931   2.308   4.350
14005TIP3   OH241955   1.222   7.247   1.205
14005TIP3    H141956   1.241   7.341   1.211
14005TIP3    H241957   1.248   7.223   1.116
14006TIP3   OH241958   8.364   5.528   4.724
14006TIP3    H141959   8.386   5.435   4.718
14006TIP3    H241960   8.434   5.565   4.778
14007TIP3   OH241961   2.527  -0.013   3.088
14007TIP3    H141962   2.445   0.007   3.132
14007TIP3    H241963   2.513   0.013   2.997
14008TIP3   OH241964   0.087   7.437   3.692
14008TIP3    H141965   0.075   7.427   3.598
14008TIP3    H241966  -0.002   7.436   3.728
14009TIP3   OH241967   1.327   5.420   5.008
14009TIP3    H141968   1.349   5.377   4.925
14009TIP3    H241969   1.232   5.431   5.005
14010TIP3   OH241970   1.456   5.180   3.485
14010TIP3    H141971   1.375   5.129   3.476
14010TIP3    H241972   1.508   5.155   3.408
14011TIP3   OH241973   2.741   0.567   2.659
14011TIP3    H141974   2.743   0.505   2.587
14011TIP3    H241975   2.793   0.641   2.629
14012TIP3   OH241976   0.388   0.940   2.418
14012TIP3    H141977   0.372   0.878   2.346
14012TIP3    H241978   0.398   1.025   2.374
14013TIP3   OH241979   1.456   6.593   3.277
14013TIP3    H141980   1.464   6.664   3.214
14013TIP3    H241981   1.485   6.515   3.230
14014TIP3   OH241982   1.743   2.812   2.974
14014TIP3    H141983   1.728   2.815   2.880
14014TIP3    H241984   1.658   2.790   3.011
14015TIP3   OH241985   4.245   2.104   5.248
14015TIP3    H141986   4.153   2.077   5.241
14015TIP3    H241987   4.287   2.034   5.298
14016TIP3   OH241988   2.079   1.089   5.660
14016TIP3    H141989   2.087   1.038   5.580
14016TIP3    H241990   2.077   1.024   5.731
14017TIP3   OH241991   0.668   6.753   1.378
14017TIP3    H141992   0.575   6.772   1.388
14017TIP3    H241993   0.689   6.786   1.290
14018TIP3   OH241994   7.477   1.322   2.546
14018TIP3    H141995   7.549   1.275   2.505
14018TIP3    H241996   7.464   1.400   2.492
14019TIP3   OH241997   5.774   7.429   5.848
14019TIP3    H141998   5.794   7.476   5.928
14019TIP3    H241999   5.699   7.374   5.870
14020TIP3   OH242000   6.558   0.884   1.719
14020TIP3    H142001   6.571   0.979   1.730
14020TIP3    H242002   6.543   0.873   1.625
14021TIP3   OH242003   6.062   0.154   1.761
14021TIP3    H142004   6.152   0.170   1.789
14021TIP3    H242005   6.044   0.225   1.699
14022TIP3   OH242006   0.548   5.700   6.632
14022TIP3    H142007   0.540   5.751   6.712
14022TIP3    H242008   0.461   5.663   6.618
14023TIP3   OH242009   5.273   0.194   5.493
14023TIP3    H142010   5.212   0.267   5.491
14023TIP3    H242011   5.236   0.131   5.431
14024TIP3   OH242012   7.333   5.807   5.039
14024TIP3    H142013   7.400   5.778   4.978
14024TIP3    H242014   7.340   5.903   5.038
14025TIP3   OH242015   0.631   5.874   2.751
14025TIP3    H142016   0.683   5.799   2.724
14025TIP3    H242017   0.637   5.874   2.847
14026TIP3   OH242018   3.870   4.336   0.865
14026TIP3    H142019   3.876   4.240   0.868
14026TIP3    H242020   3.793   4.353   0.810
14027TIP3   OH242021   6.704   6.719   1.322
14027TIP3    H142022   6.702   6.702   1.416
14027TIP3    H242023   6.793   6.695   1.296
14028TIP3   OH242024   8.048   4.520   1.699
14028TIP3    H142025   8.037   4.615   1.691
14028TIP3    H242026   8.089   4.493   1.618
14029TIP3   OH242027   1.485   3.089   5.250
14029TIP3    H142028   1.467   3.061   5.339
14029TIP3    H242029   1.509   3.008   5.204
14030TIP3   OH242030   2.159   0.401   2.181
14030TIP3    H142031   2.252   0.397   2.201
14030TIP3    H242032   2.139   0.494   2.174
14031TIP3   OH242033   7.084   5.588   2.707
14031TIP3    H142034   7.031   5.519   2.666
14031TIP3    H242035   7.023   5.661   2.718
14032TIP3   OH242036   1.047   7.373   3.744
14032TIP3    H142037   1.001   7.291   3.722
14032TIP3    H242038   1.132   7.364   3.701
14033TIP3   OH242039   1.241   7.345   4.892
14033TIP3    H142040   1.280   7.388   4.968
14033TIP3    H242041   1.315   7.316   4.839
14034TIP3   OH242042   1.512   5.972   5.335
14034TIP3    H142043   1.470   5.965   5.249
14034TIP3    H242044   1.442   6.001   5.393
14035TIP3   OH242045   5.394   4.552   3.637
14035TIP3    H142046   5.315   4.598   3.666
14035TIP3    H242047   5.457   4.567   3.707
14036TIP3   OH242048   2.169   0.322   2.877
14036TIP3    H142049   2.078   0.323   2.904
14036TIP3    H242050   2.172   0.261   2.803
14037TIP3   OH242051   5.670   6.192   5.819
14037TIP3    H142052   5.620   6.251   5.875
14037TIP3    H242053   5.638   6.210   5.731
14038TIP3   OH242054   0.438   1.571   3.420
14038TIP3    H142055   0.448   1.477   3.428
14038TIP3    H242056   0.527   1.606   3.427
14039TIP3   OH242057   5.467   2.006   1.039
14039TIP3    H142058   5.408   1.932   1.028
14039TIP3    H242059   5.555   1.968   1.032
14040TIP3   OH242060   5.005   3.214   3.871
14040TIP3    H142061   5.083   3.210   3.816
14040TIP3    H242062   4.955   3.289   3.837
14041TIP3   OH242063   4.013   6.867   3.930
14041TIP3    H142064   3.975   6.952   3.905
14041TIP3    H242065   3.973   6.805   3.869
14042TIP3   OH242066   2.386   6.265   5.736
14042TIP3    H142067   2.425   6.352   5.733
14042TIP3    H242068   2.315   6.268   5.671
14043TIP3   OH242069   6.874   2.798   4.032
14043TIP3    H142070   6.855   2.814   3.940
14043TIP3    H242071   6.962   2.761   4.033
14044TIP3   OH242072   7.135   3.469   5.106
14044TIP3    H142073   7.209   3.416   5.136
14044TIP3    H242074   7.083   3.408   5.053
14045TIP3   OH242075   3.978   6.668   3.705
14045TIP3    H142076   3.894   6.706   3.678
14045TIP3    H242077   3.968   6.574   3.688
14046TIP3   OH242078   8.157   0.181   2.093
14046TIP3    H142079   8.203   0.179   2.009
14046TIP3    H242080   8.100   0.104   2.091
14047TIP3   OH242081   0.392   1.919   1.632
14047TIP3    H142082   0.386   1.959   1.545
14047TIP3    H242083   0.335   1.972   1.687
14048TIP3   OH242084   7.511   1.467   6.708
14048TIP3    H142085   7.428   1.485   6.753
14048TIP3    H242086   7.536   1.551   6.670
14049TIP3   OH242087   1.669   6.699   2.575
14049TIP3    H142088   1.728   6.773   2.594
14049TIP3    H242089   1.726   6.622   2.581
14050TIP3   OH242090   3.556   1.888   4.258
14050TIP3    H142091   3.512   1.817   4.306
14050TIP3    H242092   3.649   1.870   4.270
14051TIP3   OH242093   2.176   3.502   1.057
14051TIP3    H142094   2.088   3.497   1.094
14051TIP3    H242095   2.186   3.420   1.009
14052TIP3   OH242096   6.398   2.067   3.151
14052TIP3    H142097   6.454   1.989   3.155
14052TIP3    H242098   6.458   2.139   3.135
14053TIP3   OH242099   7.326   5.353   0.550
14053TIP3    H142100   7.372   5.433   0.576
14053TIP3    H242101   7.372   5.283   0.598
14054TIP3   OH242102   7.906   7.080   3.322
14054TIP3    H142103   7.922   7.062   3.229
14054TIP3    H242104   7.963   7.019   3.369
14055TIP3   OH242105   7.169   3.729   0.877
14055TIP3    H142106   7.237   3.667   0.905
14055TIP3    H242107   7.185   3.742   0.784
14056TIP3   OH242108   6.685   7.057   5.663
14056TIP3    H142109   6.608   7.097   5.705
14056TIP3    H242110   6.707   6.983   5.720
14057TIP3   OH242111   4.514   2.950   4.687
14057TIP3    H142112   4.472   2.926   4.769
14057TIP3    H242113   4.606   2.967   4.711
14058TIP3   OH242114   4.688   6.088   4.136
14058TIP3    H142115   4.704   6.175   4.171
14058TIP3    H242116   4.775   6.053   4.117
14059TIP3   OH242117   6.695   7.328   3.796
14059TIP3    H142118   6.726   7.353   3.883
14059TIP3    H242119   6.620   7.385   3.779
14060TIP3   OH242120   2.283   0.037   3.246
14060TIP3    H142121   2.250   0.127   3.248
14060TIP3    H242122   2.245  -0.004   3.324
14061TIP3   OH242123   5.707   4.690   4.549
14061TIP3    H142124   5.775   4.670   4.614
14061TIP3    H242125   5.626   4.693   4.600
14062TIP3   OH242126   1.271   0.045   1.703
14062TIP3    H142127   1.282   0.001   1.619
14062TIP3    H242128   1.243  -0.024   1.763
14063TIP3   OH242129   3.550   7.326   1.654
14063TIP3    H142130   3.543   7.397   1.719
14063TIP3    H242131   3.466   7.328   1.607
14064TIP3   OH242132   6.025   7.698   4.832
14064TIP3    H142133   6.071   7.720   4.913
14064TIP3    H242134   5.942   7.659   4.860
14065TIP3   OH242135   1.784   2.993   6.183
14065TIP3    H142136   1.723   2.982   6.110
14065TIP3    H242137   1.784   3.087   6.200
14066TIP3   OH242138   1.678   3.522   3.893
14066TIP3    H142139   1.676   3.433   3.858
14066TIP3    H242140   1.601   3.564   3.855
14067TIP3   OH242141   6.325   1.309   3.225
14067TIP3    H142142   6.299   1.401   3.221
14067TIP3    H242143   6.348   1.295   3.316
14068TIP3   OH242144   6.048   4.196   0.593
14068TIP3    H142145   6.106   4.214   0.519
14068TIP3    H242146   5.961   4.184   0.553
14069TIP3   OH242147   3.210   6.746   1.824
14069TIP3    H142148   3.291   6.700   1.803
14069TIP3    H242149   3.218   6.830   1.780
14070TIP3   OH242150   4.349   0.206   0.119
14070TIP3    H142151   4.411   0.203   0.046
14070TIP3    H242152   4.305   0.291   0.108
14071TIP3   OH242153   3.539   4.685   0.732
14071TIP3    H142154   3.494   4.705   0.649
14071TIP3    H242155   3.509   4.754   0.792
14072TIP3   OH242156   5.537   1.738   2.353
14072TIP3    H142157   5.491   1.681   2.415
14072TIP3    H242158   5.529   1.692   2.269
14073TIP3   OH242159   2.471   7.804   2.111
14073TIP3    H142160   2.524   7.758   2.046
14073TIP3    H242161   2.413   7.737   2.146
14074TIP3   OH242162   4.376   7.885   2.924
14074TIP3    H142163   4.419   7.839   2.996
14074TIP3    H242164   4.309   7.823   2.894
14075TIP3   OH242165   7.276   4.263   3.068
14075TIP3    H142166   7.370   4.248   3.075
14075TIP3    H242167   7.239   4.175   3.059
14076TIP3   OH242168   5.994   5.766   5.864
14076TIP3    H142169   6.064   5.829   5.881
14076TIP3    H242170   5.989   5.760   5.769
14077TIP3   OH242171   0.665   1.063   2.211
14077TIP3    H142172   0.580   1.090   2.243
14077TIP3    H242173   0.720   1.056   2.289
14078TIP3   OH242174   6.534   1.013   2.791
14078TIP3    H142175   6.588   0.940   2.762
14078TIP3    H242176   6.529   1.004   2.886
14079TIP3   OH242177   2.212   0.540   4.215
14079TIP3    H142178   2.295   0.543   4.166
14079TIP3    H242179   2.185   0.448   4.210
14080TIP3   OH242180   5.888   4.312   6.655
14080TIP3    H142181   5.897   4.287   6.563
14080TIP3    H242182   5.796   4.295   6.675
14081TIP3   OH242183   1.388   7.384   4.585
14081TIP3    H142184   1.384   7.396   4.491
14081TIP3    H242185   1.418   7.468   4.619
14082TIP3   OH242186   7.501   4.940   5.932
14082TIP3    H142187   7.484   4.933   6.026
14082TIP3    H242188   7.416   4.965   5.895
14083TIP3   OH242189   1.194   5.383   5.670
14083TIP3    H142190   1.135   5.309   5.683
14083TIP3    H242191   1.244   5.361   5.592
14084TIP3   OH242192   7.755   4.182   6.189
14084TIP3    H142193   7.812   4.130   6.244
14084TIP3    H242194   7.782   4.162   6.100
14085TIP3   OH242195   1.751   6.761   4.844
14085TIP3    H142196   1.821   6.768   4.909
14085TIP3    H242197   1.743   6.667   4.827
14086TIP3   OH242198   7.824   3.176   1.358
14086TIP3    H142199   7.792   3.130   1.435
14086TIP3    H242200   7.800   3.119   1.284
14087TIP3   OH242201   2.566   7.296   4.248
14087TIP3    H142202   2.578   7.389   4.264
14087TIP3    H242203   2.544   7.259   4.334
14088TIP3   OH242204   2.236   1.414   6.723
14088TIP3    H142205   2.215   1.441   6.812
14088TIP3    H242206   2.158   1.433   6.672
14089TIP3   OH242207   6.518   3.946   4.885
14089TIP3    H142208   6.552   3.857   4.877
14089TIP3    H242209   6.428   3.940   4.852
14090TIP3   OH242210   8.140   2.919   3.920
14090TIP3    H142211   8.215   2.978   3.918
14090TIP3    H242212   8.107   2.917   3.830
14091TIP3   OH242213   6.556   3.686   6.582
14091TIP3    H142214   6.592   3.738   6.510
14091TIP3    H242215   6.515   3.610   6.539
14092TIP3   OH242216   1.280   0.844   1.424
14092TIP3    H142217   1.251   0.882   1.507
14092TIP3    H242218   1.223   0.886   1.358
14093TIP3   OH242219   0.295   4.878   0.927
14093TIP3    H142220   0.381   4.907   0.896
14093TIP3    H242221   0.276   4.935   1.001
14094TIP3   OH242222   5.748   0.707   4.497
14094TIP3    H142223   5.661   0.676   4.474
14094TIP3    H242224   5.736   0.801   4.513
14095TIP3   OH242225   0.744   4.815   3.414
14095TIP3    H142226   0.694   4.865   3.349
14095TIP3    H242227   0.742   4.725   3.382
14096TIP3   OH242228   4.789   2.828   5.576
14096TIP3    H142229   4.822   2.819   5.665
14096TIP3    H242230   4.732   2.752   5.563
14097TIP3   OH242231   3.688   0.370   1.939
14097TIP3    H142232   3.693   0.425   1.861
14097TIP3    H242233   3.606   0.322   1.930
14098TIP3   OH242234   7.050   5.212   2.256
14098TIP3    H142235   7.029   5.260   2.336
14098TIP3    H242236   6.983   5.240   2.193
14099TIP3   OH242237   7.814   0.420   5.924
14099TIP3    H142238   7.843   0.356   5.859
14099TIP3    H242239   7.841   0.505   5.889
14100TIP3   OH242240   0.719   4.677   2.279
14100TIP3    H142241   0.698   4.654   2.369
14100TIP3    H242242   0.636   4.706   2.241
14101TIP3   OH242243   7.839   1.503   2.016
14101TIP3    H142244   7.797   1.589   2.011
14101TIP3    H242245   7.925   1.517   1.977
14102TIP3   OH242246   8.034   3.288   2.426
14102TIP3    H142247   8.045   3.216   2.489
14102TIP3    H242248   7.981   3.352   2.473
14103TIP3   OH242249   4.792   0.253   3.582
14103TIP3    H142250   4.711   0.263   3.532
14103TIP3    H242251   4.858   0.299   3.531
14104TIP3   OH242252   1.336   0.558   2.503
14104TIP3    H142253   1.331   0.567   2.408
14104TIP3    H242254   1.287   0.633   2.537
14105TIP3   OH242255   3.337   0.009   2.218
14105TIP3    H142256   3.366   0.088   2.264
14105TIP3    H242257   3.393   0.005   2.140
14106TIP3   OH242258   4.515   7.157   5.597
14106TIP3    H142259   4.608   7.139   5.610
14106TIP3    H242260   4.479   7.162   5.685
14107TIP3   OH242261   0.221   7.524   4.707
14107TIP3    H142262   0.229   7.514   4.612
14107TIP3    H242263   0.162   7.599   4.718
14108TIP3   OH242264   1.209   4.689   1.305
14108TIP3    H142265   1.153   4.719   1.376
14108TIP3    H242266   1.274   4.632   1.347
14109TIP3   OH242267   4.061   0.074   6.120
14109TIP3    H142268   4.041   0.039   6.206
14109TIP3    H242269   4.111   0.005   6.077
14110TIP3   OH242270   0.894   1.036   2.675
14110TIP3    H142271   0.897   1.063   2.767
14110TIP3    H242272   0.982   1.055   2.642
14111TIP3   OH242273   5.802   4.182   5.992
14111TIP3    H142274   5.896   4.179   6.009
14111TIP3    H242275   5.776   4.091   5.986
14112TIP3   OH242276   6.764   5.532   2.894
14112TIP3    H142277   6.698   5.524   2.963
14112TIP3    H242278   6.848   5.533   2.940
14113TIP3   OH242279   4.688   2.572   3.759
14113TIP3    H142280   4.708   2.480   3.774
14113TIP3    H242281   4.629   2.597   3.831
14114TIP3   OH242282   2.698   5.472   1.656
14114TIP3    H142283   2.745   5.390   1.676
14114TIP3    H242284   2.608   5.445   1.640
14115TIP3   OH242285   1.402   7.221   5.527
14115TIP3    H142286   1.431   7.173   5.604
14115TIP3    H242287   1.438   7.171   5.453
14116TIP3   OH242288   3.865   2.565   4.076
14116TIP3    H142289   3.856   2.599   3.987
14116TIP3    H242290   3.846   2.472   4.069
14117TIP3   OH242291   4.571   5.322   4.737
14117TIP3    H142292   4.586   5.343   4.829
14117TIP3    H242293   4.572   5.226   4.733
14118TIP3   OH242294   5.528   1.476   5.259
14118TIP3    H142295   5.545   1.384   5.239
14118TIP3    H242296   5.485   1.510   5.180
14119TIP3   OH242297   3.137   6.431   2.973
14119TIP3    H142298   3.149   6.518   2.935
14119TIP3    H242299   3.206   6.378   2.934
14120TIP3   OH242300   2.243   7.167   1.788
14120TIP3    H142301   2.296   7.242   1.763
14120TIP3    H242302   2.267   7.148   1.878
14121TIP3   OH242303   1.277   6.634   3.946
14121TIP3    H142304   1.225   6.567   3.902
14121TIP3    H242305   1.361   6.633   3.901
14122TIP3   OH242306   5.386   6.595   2.729
14122TIP3    H142307   5.342   6.661   2.783
14122TIP3    H242308   5.399   6.521   2.787
14123TIP3   OH242309   4.454   3.882   0.956
14123TIP3    H142310   4.548   3.876   0.976
14123TIP3    H242311   4.411   3.881   1.041
14124TIP3   OH242312   4.635   7.553   3.882
14124TIP3    H142313   4.657   7.646   3.868
14124TIP3    H242314   4.544   7.546   3.854
14125TIP3   OH242315   1.013   4.162   1.380
14125TIP3    H142316   1.077   4.104   1.339
14125TIP3    H242317   1.006   4.236   1.320
14126TIP3   OH242318   0.986   3.855   0.840
14126TIP3    H142319   0.984   3.782   0.903
14126TIP3    H242320   1.074   3.854   0.805
14127TIP3   OH242321   4.430   1.428   0.183
14127TIP3    H142322   4.420   1.334   0.167
14127TIP3    H242323   4.387   1.443   0.267
14128TIP3   OH242324   5.341   5.488   3.361
14128TIP3    H142325   5.382   5.425   3.420
14128TIP3    H242326   5.408   5.506   3.295
14129TIP3   OH242327   6.588   2.163   6.761
14129TIP3    H142328   6.635   2.227   6.707
14129TIP3    H242329   6.643   2.152   6.839
14130TIP3   OH242330   1.872   3.676   6.572
14130TIP3    H142331   1.808   3.650   6.506
14130TIP3    H242332   1.926   3.598   6.586
14131TIP3   OH242333   2.921   7.640   0.585
14131TIP3    H142334   3.001   7.643   0.637
14131TIP3    H242335   2.910   7.548   0.563
14132TIP3   OH242336   2.620   1.435   2.867
14132TIP3    H142337   2.539   1.423   2.916
14132TIP3    H242338   2.594   1.429   2.775
14133TIP3   OH242339   3.172   6.480   6.252
14133TIP3    H142340   3.179   6.457   6.159
14133TIP3    H242341   3.168   6.575   6.253
14134TIP3   OH242342   1.742   3.440   3.626
14134TIP3    H142343   1.762   3.438   3.719
14134TIP3    H242344   1.762   3.352   3.595
14135TIP3   OH242345   1.411   6.740   6.295
14135TIP3    H142346   1.344   6.737   6.226
14135TIP3    H242347   1.487   6.698   6.256
14136TIP3   OH242348   0.552   0.233   2.499
14136TIP3    H142349   0.458   0.237   2.513
14136TIP3    H242350   0.585   0.181   2.572
14137TIP3   OH242351   2.516   3.570   5.064
14137TIP3    H142352   2.513   3.564   5.160
14137TIP3    H242353   2.584   3.635   5.046
14138TIP3   OH242354   0.697   1.631   2.397
14138TIP3    H142355   0.663   1.669   2.478
14138TIP3    H242356   0.623   1.634   2.336
14139TIP3   OH242357   5.155   1.194   6.772
14139TIP3    H142358   5.112   1.114   6.804
14139TIP3    H242359   5.204   1.165   6.695
14140TIP3   OH242360   2.012   4.353   1.053
14140TIP3    H142361   1.991   4.306   1.133
14140TIP3    H242362   1.932   4.350   1.001
14141TIP3   OH242363   4.805   4.722   0.020
14141TIP3    H142364   4.848   4.722   0.105
14141TIP3    H242365   4.873   4.748  -0.042
14142TIP3   OH242366   6.242   0.302   5.575
14142TIP3    H142367   6.213   0.313   5.666
14142TIP3    H242368   6.272   0.211   5.571
14143TIP3   OH242369   2.149   3.304   4.416
14143TIP3    H142370   2.217   3.371   4.413
14143TIP3    H242371   2.183   3.234   4.359
14144TIP3   OH242372   3.978   3.348   0.016
14144TIP3    H142373   3.982   3.437  -0.020
14144TIP3    H242374   3.885   3.326   0.017
14145TIP3   OH242375   5.769   4.859   0.280
14145TIP3    H142376   5.842   4.903   0.323
14145TIP3    H242377   5.789   4.866   0.186
14146TIP3   OH242378   0.301   7.458   0.805
14146TIP3    H142379   0.261   7.399   0.869
14146TIP3    H242380   0.237   7.528   0.795
14147TIP3   OH242381   4.299   0.433   6.847
14147TIP3    H142382   4.323   0.502   6.786
14147TIP3    H242383   4.212   0.405   6.818
14148TIP3   OH242384   7.356   6.732   2.969
14148TIP3    H142385   7.341   6.639   2.984
14148TIP3    H242386   7.309   6.776   3.039
14149TIP3   OH242387   2.191   7.885   3.397
14149TIP3    H142388   2.163   7.793   3.394
14149TIP3    H242389   2.165   7.921   3.313
14150TIP3   OH242390   4.723   1.487   1.276
14150TIP3    H142391   4.668   1.555   1.314
14150TIP3    H242392   4.803   1.489   1.327
14151TIP3   OH242393   4.418   6.772   2.867
14151TIP3    H142394   4.340   6.736   2.823
14151TIP3    H242395   4.464   6.695   2.900
14152TIP3   OH242396   7.640   6.124   2.612
14152TIP3    H142397   7.651   6.065   2.687
14152TIP3    H242398   7.606   6.205   2.649
14153TIP3   OH242399   1.073   6.591   2.679
14153TIP3    H142400   1.014   6.571   2.606
14153TIP3    H242401   1.074   6.511   2.731
14154TIP3   OH242402   3.184   7.525   3.323
14154TIP3    H142403   3.154   7.537   3.413
14154TIP3    H242404   3.250   7.593   3.310
14155TIP3   OH242405   3.962   2.114   4.538
14155TIP3    H142406   3.907   2.149   4.609
14155TIP3    H242407   3.909   2.044   4.500
14156TIP3   OH242408   6.225   5.945   5.869
14156TIP3    H142409   6.198   6.021   5.819
14156TIP3    H242410   6.286   5.979   5.935
14157TIP3   OH242411   1.684   4.091   2.778
14157TIP3    H142412   1.676   4.117   2.686
14157TIP3    H242413   1.767   4.043   2.782
14158TIP3   OH242414   8.041   7.670   6.109
14158TIP3    H142415   8.013   7.704   6.194
14158TIP3    H242416   8.136   7.676   6.110
14159TIP3   OH242417   2.781   1.509   3.328
14159TIP3    H142418   2.704   1.464   3.293
14159TIP3    H242419   2.787   1.590   3.276
14160TIP3   OH242420   4.397   1.292   1.682
14160TIP3    H142421   4.490   1.271   1.677
14160TIP3    H242422   4.382   1.352   1.609
14161TIP3   OH242423   7.412   5.612   3.020
14161TIP3    H142424   7.343   5.677   3.023
14161TIP3    H242425   7.493   5.663   3.025
14162TIP3   OH242426   2.081   5.645   0.796
14162TIP3    H142427   2.083   5.580   0.866
14162TIP3    H242428   2.007   5.618   0.741
14163TIP3   OH242429   8.113   1.450   1.465
14163TIP3    H142430   8.117   1.528   1.409
14163TIP3    H242431   8.020   1.441   1.487
14164TIP3   OH242432   6.537   7.667   6.126
14164TIP3    H142433   6.568   7.588   6.081
14164TIP3    H242434   6.443   7.671   6.108
14165TIP3   OH242435   1.338   4.859   4.572
14165TIP3    H142436   1.388   4.935   4.542
14165TIP3    H242437   1.400   4.810   4.627
14166TIP3   OH242438   3.408   7.852   4.911
14166TIP3    H142439   3.396   7.778   4.970
14166TIP3    H242440   3.474   7.907   4.953
14167TIP3   OH242441   2.032   0.833   3.179
14167TIP3    H142442   2.005   0.823   3.088
14167TIP3    H242443   2.084   0.913   3.179
14168TIP3   OH242444   4.492   5.547   4.201
14168TIP3    H142445   4.567   5.494   4.226
14168TIP3    H242446   4.523   5.637   4.208
14169TIP3   OH242447   6.921   0.201   5.079
14169TIP3    H142448   6.928   0.169   5.169
14169TIP3    H242449   7.012   0.210   5.050
14170TIP3   OH242450   0.480   3.256   2.703
14170TIP3    H142451   0.567   3.253   2.662
14170TIP3    H242452   0.498   3.257   2.797
14171TIP3   OH242453   5.384   1.305   6.181
14171TIP3    H142454   5.297   1.319   6.144
14171TIP3    H242455   5.394   1.376   6.245
14172TIP3   OH242456   5.573   0.144   5.340
14172TIP3    H142457   5.576   0.216   5.403
14172TIP3    H242458   5.486   0.105   5.353
14173TIP3   OH242459   4.027   6.532   1.061
14173TIP3    H142460   4.024   6.619   1.020
14173TIP3    H242461   4.099   6.537   1.124
14174TIP3   OH242462   6.008   6.318   6.344
14174TIP3    H142463   6.041   6.395   6.297
14174TIP3    H242464   6.050   6.244   6.302
14175TIP3   OH242465   4.133   6.314   2.919
14175TIP3    H142466   4.121   6.315   3.014
14175TIP3    H242467   4.050   6.349   2.885
14176TIP3   OH242468   7.795   2.588   4.868
14176TIP3    H142469   7.740   2.624   4.938
14176TIP3    H242470   7.743   2.600   4.789
14177TIP3   OH242471   2.041   2.273   2.008
14177TIP3    H142472   2.000   2.301   1.926
14177TIP3    H242473   2.045   2.178   2.001
14178TIP3   OH242474   3.772   3.613   2.266
14178TIP3    H142475   3.695   3.559   2.247
14178TIP3    H242476   3.801   3.645   2.181
14179TIP3   OH242477   4.413   5.569   5.526
14179TIP3    H142478   4.417   5.492   5.469
14179TIP3    H242479   4.327   5.563   5.568
14180TIP3   OH242480   2.686   4.173   3.460
14180TIP3    H142481   2.708   4.084   3.435
14180TIP3    H242482   2.616   4.199   3.400
14181TIP3   OH242483   4.925   5.012   6.100
14181TIP3    H142484   4.870   5.037   6.174
14181TIP3    H242485   4.864   4.986   6.031
14182TIP3   OH242486   7.470   5.032   4.755
14182TIP3    H142487   7.492   5.126   4.754
14182TIP3    H242488   7.554   4.988   4.745
14183TIP3   OH242489   8.355   5.572   2.344
14183TIP3    H142490   8.372   5.615   2.260
14183TIP3    H242491   8.290   5.628   2.386
14184TIP3   OH242492   0.487   2.488   1.522
14184TIP3    H142493   0.530   2.494   1.607
14184TIP3    H242494   0.441   2.404   1.524
14185TIP3   OH242495   4.679   1.642   2.319
14185TIP3    H142496   4.650   1.620   2.408
14185TIP3    H242497   4.690   1.737   2.321
14186TIP3   OH242498   1.049   0.455   6.668
14186TIP3    H142499   0.990   0.505   6.611
14186TIP3    H242500   1.043   0.365   6.636
14187TIP3   OH242501   7.288   5.738   1.045
14187TIP3    H142502   7.223   5.710   1.110
14187TIP3    H242503   7.273   5.680   0.970
14188TIP3   OH242504   3.310   7.758   5.372
14188TIP3    H142505   3.215   7.744   5.381
14188TIP3    H242506   3.326   7.838   5.423
14189TIP3   OH242507   1.539   2.615   6.718
14189TIP3    H142508   1.455   2.570   6.723
14189TIP3    H242509   1.561   2.636   6.809
14190TIP3   OH242510   1.723   3.734   4.262
14190TIP3    H142511   1.735   3.648   4.221
14190TIP3    H242512   1.808   3.777   4.251
14191TIP3   OH242513   8.028   0.845   4.652
14191TIP3    H142514   8.019   0.750   4.645
14191TIP3    H242515   8.077   0.870   4.574
14192TIP3   OH242516   7.572   7.632   4.240
14192TIP3    H142517   7.631   7.567   4.278
14192TIP3    H242518   7.609   7.650   4.154
14193TIP3   OH242519   5.967   3.637   3.318
14193TIP3    H142520   5.907   3.662   3.389
14193TIP3    H242521   6.053   3.666   3.348
14194TIP3   OH242522   0.003   2.224   0.723
14194TIP3    H142523   0.025   2.215   0.630
14194TIP3    H242524   0.056   2.298   0.753
14195TIP3   OH242525   2.541   1.340   3.520
14195TIP3    H142526   2.551   1.355   3.426
14195TIP3    H242527   2.446   1.338   3.533
14196TIP3   OH242528   7.111   6.627   1.842
14196TIP3    H142529   7.150   6.572   1.774
14196TIP3    H242530   7.099   6.569   1.917
14197TIP3   OH242531   3.468   7.226   4.403
14197TIP3    H142532   3.563   7.225   4.408
14197TIP3    H242533   3.439   7.200   4.491
14198TIP3   OH242534   7.641   0.517   2.829
14198TIP3    H142535   7.675   0.430   2.851
14198TIP3    H242536   7.556   0.499   2.789
14199TIP3   OH242537   7.540   3.119   1.955
14199TIP3    H142538   7.501   3.098   1.871
14199TIP3    H242539   7.618   3.063   1.960
14200TIP3   OH242540   2.263   5.818   5.280
14200TIP3    H142541   2.246   5.912   5.287
14200TIP3    H242542   2.308   5.808   5.196
14201TIP3   OH242543   7.299   7.366   1.887
14201TIP3    H142544   7.279   7.331   1.800
14201TIP3    H242545   7.372   7.426   1.872
14202TIP3   OH242546   4.665   7.285   5.824
14202TIP3    H142547   4.714   7.255   5.748
14202TIP3    H242548   4.704   7.370   5.846
14203TIP3   OH242549   7.213   3.707   5.288
14203TIP3    H142550   7.270   3.661   5.350
14203TIP3    H242551   7.176   3.637   5.234
14204TIP3   OH242552   0.207   2.098   6.288
14204TIP3    H142553   0.214   2.108   6.383
14204TIP3    H242554   0.293   2.127   6.256
14205TIP3   OH242555   2.360   3.083   2.905
14205TIP3    H142556   2.432   3.029   2.873
14205TIP3    H242557   2.282   3.046   2.862
14206TIP3   OH242558   6.238   7.909   3.258
14206TIP3    H142559   6.178   7.926   3.331
14206TIP3    H242560   6.182   7.876   3.188
14207TIP3   OH242561   7.492   1.639   0.348
14207TIP3    H142562   7.460   1.719   0.305
14207TIP3    H242563   7.521   1.669   0.434
14208TIP3   OH242564   1.740   2.756   0.888
14208TIP3    H142565   1.744   2.840   0.843
14208TIP3    H242566   1.825   2.715   0.873
14209TIP3   OH242567   3.107   5.673   2.153
14209TIP3    H142568   3.099   5.578   2.143
14209TIP3    H242569   3.150   5.685   2.238
14210TIP3   OH242570   5.463   3.377   3.419
14210TIP3    H142571   5.374   3.376   3.382
14210TIP3    H242572   5.481   3.285   3.441
14211TIP3   OH242573   7.109   6.124   1.209
14211TIP3    H142574   7.107   6.054   1.144
14211TIP3    H242575   7.018   6.133   1.238
14212TIP3   OH242576   7.002   6.932   2.848
14212TIP3    H142577   7.096   6.943   2.837
14212TIP3    H242578   6.963   6.970   2.769
14213TIP3   OH242579   0.319   3.415   0.041
14213TIP3    H142580   0.347   3.324   0.046
14213TIP3    H242581   0.337   3.440  -0.050
14214TIP3   OH242582   1.270   0.764   2.801
14214TIP3    H142583   1.263   0.798   2.712
14214TIP3    H242584   1.181   0.740   2.825
14215TIP3   OH242585   0.951   3.151   4.011
14215TIP3    H142586   0.859   3.132   4.033
14215TIP3    H242587   0.996   3.149   4.096
14216TIP3   OH242588   6.160   7.830   1.213
14216TIP3    H142589   6.096   7.821   1.143
14216TIP3    H242590   6.245   7.829   1.169
14217TIP3   OH242591   7.198   0.239   2.078
14217TIP3    H142592   7.151   0.242   1.995
14217TIP3    H242593   7.191   0.328   2.113
14218TIP3   OH242594   4.885   2.306   6.547
14218TIP3    H142595   4.898   2.295   6.453
14218TIP3    H242596   4.793   2.332   6.555
14219TIP3   OH242597   7.226   7.243   1.576
14219TIP3    H142598   7.217   7.234   1.481
14219TIP3    H242599   7.213   7.336   1.592
14220TIP3   OH242600   0.325   7.664   2.982
14220TIP3    H142601   0.345   7.582   2.937
14220TIP3    H242602   0.333   7.731   2.913
14221TIP3   OH242603   0.758   3.839   0.360
14221TIP3    H142604   0.799   3.888   0.290
14221TIP3    H242605   0.668   3.874   0.365
14222TIP3   OH242606   0.242   3.414   6.240
14222TIP3    H142607   0.319   3.358   6.254
14222TIP3    H242608   0.272   3.501   6.267
14223TIP3   OH242609   2.712   1.123   3.387
14223TIP3    H142610   2.790   1.173   3.408
14223TIP3    H242611   2.745   1.047   3.338
14224TIP3   OH242612   4.182   5.639   3.353
14224TIP3    H142613   4.213   5.709   3.296
14224TIP3    H242614   4.087   5.636   3.339
14225TIP3   OH242615   1.913   3.876   5.949
14225TIP3    H142616   1.826   3.841   5.970
14225TIP3    H242617   1.941   3.826   5.872
14226TIP3   OH242618   1.465   5.613   1.851
14226TIP3    H142619   1.488   5.520   1.856
14226TIP3    H242620   1.381   5.619   1.898
14227TIP3   OH242621   1.303   4.395   2.392
14227TIP3    H142622   1.305   4.390   2.488
14227TIP3    H242623   1.286   4.487   2.373
14228TIP3   OH242624   8.149   3.878   4.813
14228TIP3    H142625   8.167   3.924   4.730
14228TIP3    H242626   8.236   3.854   4.845
14229TIP3   OH242627   3.895   7.478   2.224
14229TIP3    H142628   3.910   7.527   2.144
14229TIP3    H242629   3.958   7.407   2.221
14230TIP3   OH242630   7.033   5.513   1.650
14230TIP3    H142631   7.113   5.487   1.605
14230TIP3    H242632   6.973   5.439   1.639
14231TIP3   OH242633   1.387   0.120   1.099
14231TIP3    H142634   1.476   0.116   1.132
14231TIP3    H242635   1.341   0.049   1.145
14232TIP3   OH242636   6.546   4.623   0.367
14232TIP3    H142637   6.635   4.590   0.350
14232TIP3    H242638   6.496   4.545   0.390
14233TIP3   OH242639   3.519   3.371   3.993
14233TIP3    H142640   3.598   3.422   3.977
14233TIP3    H242641   3.519   3.305   3.924
14234TIP3   OH242642   2.757   3.172   4.768
14234TIP3    H142643   2.850   3.171   4.790
14234TIP3    H242644   2.751   3.125   4.685
14235TIP3   OH242645   2.815   5.333   0.799
14235TIP3    H142646   2.777   5.379   0.874
14235TIP3    H242647   2.742   5.322   0.738
14236TIP3   OH242648   5.364   0.066   3.561
14236TIP3    H142649   5.307  -0.003   3.595
14236TIP3    H242650   5.304   0.138   3.542
14237TIP3   OH242651   4.628   6.366   3.102
14237TIP3    H142652   4.682   6.289   3.085
14237TIP3    H242653   4.547   6.331   3.141
14238TIP3   OH242654   7.780   1.205   3.810
14238TIP3    H142655   7.709   1.248   3.763
14238TIP3    H242656   7.791   1.121   3.766
14239TIP3   OH242657   1.238   6.866   5.172
14239TIP3    H142658   1.271   6.954   5.158
14239TIP3    H242659   1.143   6.875   5.168
14240TIP3   OH242660   7.322   0.318   2.593
14240TIP3    H142661   7.306   0.259   2.667
14240TIP3    H242662   7.415   0.339   2.598
14241TIP3   OH242663   4.207   4.492   5.784
14241TIP3    H142664   4.198   4.475   5.878
14241TIP3    H242665   4.292   4.454   5.761
14242TIP3   OH242666   6.633   7.923   6.130
14242TIP3    H142667   6.589   7.838   6.129
14242TIP3    H242668   6.712   7.910   6.077
14243TIP3   OH242669   1.244   1.535   3.178
14243TIP3    H142670   1.244   1.470   3.107
14243TIP3    H242671   1.152   1.552   3.194
14244TIP3   OH242672   6.655   2.014   3.529
14244TIP3    H142673   6.723   2.034   3.594
14244TIP3    H242674   6.577   2.061   3.561
14245TIP3   OH242675   0.552   2.992   2.742
14245TIP3    H142676   0.532   3.054   2.672
14245TIP3    H242677   0.637   3.021   2.777
14246TIP3   OH242678   0.455   5.584   1.310
14246TIP3    H142679   0.430   5.628   1.229
14246TIP3    H242680   0.467   5.655   1.373
14247TIP3   OH242681   7.252   1.009   4.098
14247TIP3    H142682   7.195   1.083   4.119
14247TIP3    H242683   7.208   0.966   4.024
14248TIP3   OH242684   8.333   6.571   6.846
14248TIP3    H142685   8.422   6.585   6.876
14248TIP3    H242686   8.329   6.613   6.760
14249TIP3   OH242687   1.393   3.634   4.503
14249TIP3    H142688   1.487   3.642   4.520
14249TIP3    H242689   1.353   3.700   4.560
14250TIP3   OH242690   1.284   4.667   3.343
14250TIP3    H142691   1.334   4.679   3.262
14250TIP3    H242692   1.286   4.573   3.358
14251TIP3   OH242693   5.711   1.117   0.291
14251TIP3    H142694   5.735   1.026   0.308
14251TIP3    H242695   5.655   1.114   0.214
14252TIP3   OH242696   3.541   7.040   0.764
14252TIP3    H142697   3.585   7.010   0.844
14252TIP3    H242698   3.568   6.977   0.697
14253TIP3   OH242699   1.377   7.100   4.790
14253TIP3    H142700   1.323   7.091   4.711
14253TIP3    H242701   1.448   7.037   4.778
14254TIP3   OH242702   4.897   4.836   4.042
14254TIP3    H142703   4.852   4.756   4.012
14254TIP3    H242704   4.981   4.805   4.075
14255TIP3   OH242705   4.850   1.492   3.953
14255TIP3    H142706   4.889   1.406   3.946
14255TIP3    H242707   4.922   1.550   3.979
14256TIP3   OH242708   0.118   2.160   2.715
14256TIP3    H142709   0.099   2.150   2.808
14256TIP3    H242710   0.109   2.253   2.697
14257TIP3   OH242711   2.388   1.073   4.315
14257TIP3    H142712   2.381   1.008   4.246
14257TIP3    H242713   2.469   1.121   4.294
14258TIP3   OH242714   6.237   5.919   5.042
14258TIP3    H142715   6.279   5.841   5.007
14258TIP3    H242716   6.154   5.888   5.079
14259TIP3   OH242717   2.053   3.163   0.275
14259TIP3    H142718   2.130   3.116   0.243
14259TIP3    H242719   1.989   3.154   0.205
14260TIP3   OH242720   3.429   4.260   4.475
14260TIP3    H142721   3.424   4.203   4.552
14260TIP3    H242722   3.374   4.335   4.496
14261TIP3   OH242723   8.000   3.531   6.653
14261TIP3    H142724   7.951   3.507   6.575
14261TIP3    H242725   7.935   3.572   6.710
14262TIP3   OH242726   7.992   5.539   4.402
14262TIP3    H142727   8.001   5.594   4.480
14262TIP3    H242728   8.081   5.510   4.382
14263TIP3   OH242729   4.771   1.524   0.667
14263TIP3    H142730   4.737   1.505   0.579
14263TIP3    H242731   4.739   1.451   0.720
14264TIP3   OH242732   5.937   7.085   4.258
14264TIP3    H142733   5.977   6.998   4.265
14264TIP3    H242734   5.959   7.129   4.340
14265TIP3   OH242735   6.191   6.172   4.828
14265TIP3    H142736   6.220   6.243   4.885
14265TIP3    H242737   6.239   6.095   4.859
14266TIP3   OH242738   0.927   1.226   4.349
14266TIP3    H142739   0.986   1.251   4.419
14266TIP3    H242740   0.839   1.237   4.387
14267TIP3   OH242741   6.325   5.321   5.506
14267TIP3    H142742   6.351   5.277   5.586
14267TIP3    H242743   6.287   5.251   5.452
14268TIP3   OH242744   5.752   4.322   4.863
14268TIP3    H142745   5.673   4.376   4.865
14268TIP3    H242746   5.782   4.321   4.954
14269TIP3   OH242747   0.694   3.550   3.693
14269TIP3    H142748   0.778   3.545   3.739
14269TIP3    H242749   0.628   3.540   3.762
14270TIP3   OH242750   2.912   2.103   6.238
14270TIP3    H142751   2.929   2.083   6.330
14270TIP3    H242752   2.920   2.019   6.193
14271TIP3   OH242753   6.477   5.582   6.230
14271TIP3    H142754   6.462   5.488   6.240
14271TIP3    H242755   6.556   5.600   6.282
14272TIP3   OH242756   6.071   6.025   2.254
14272TIP3    H142757   5.981   6.032   2.286
14272TIP3    H242758   6.120   6.090   2.304
14273TIP3   OH242759   0.364   0.641   4.719
14273TIP3    H142760   0.304   0.601   4.783
14273TIP3    H242761   0.436   0.674   4.772
14274TIP3   OH242762   3.706   4.049   3.837
14274TIP3    H142763   3.646   4.061   3.911
14274TIP3    H242764   3.777   4.111   3.852
14275TIP3   OH242765   6.552   5.543   1.502
14275TIP3    H142766   6.505   5.623   1.525
14275TIP3    H242767   6.514   5.476   1.559
14276TIP3   OH242768   2.019   7.260   3.237
14276TIP3    H142769   2.057   7.173   3.253
14276TIP3    H242770   1.926   7.250   3.257
14277TIP3   OH242771   7.798   1.907   5.499
14277TIP3    H142772   7.874   1.872   5.545
14277TIP3    H242773   7.782   1.844   5.429
14278TIP3   OH242774   4.337   7.748   6.122
14278TIP3    H142775   4.424   7.779   6.094
14278TIP3    H242776   4.293   7.827   6.155
14279TIP3   OH242777   0.293   3.617   0.487
14279TIP3    H142778   0.230   3.552   0.519
14279TIP3    H242779   0.267   3.633   0.397
14280TIP3   OH242780   2.253   6.064   1.256
14280TIP3    H142781   2.164   6.055   1.289
14280TIP3    H242782   2.308   6.033   1.328
14281TIP3   OH242783   7.833   1.804   2.088
14281TIP3    H142784   7.884   1.859   2.029
14281TIP3    H242785   7.749   1.792   2.044
14282TIP3   OH242786   5.286   4.483   3.061
14282TIP3    H142787   5.378   4.461   3.077
14282TIP3    H242788   5.238   4.404   3.084
14283TIP3   OH242789   7.125   4.110   5.643
14283TIP3    H142790   7.033   4.092   5.621
14283TIP3    H242791   7.124   4.201   5.673
14284TIP3   OH242792   4.396   7.272   1.430
14284TIP3    H142793   4.456   7.343   1.452
14284TIP3    H242794   4.416   7.204   1.495
14285TIP3   OH242795   1.076   7.548   6.168
14285TIP3    H142796   1.135   7.480   6.135
14285TIP3    H242797   1.105   7.563   6.258
14286TIP3   OH242798   2.843   0.473   4.604
14286TIP3    H142799   2.806   0.387   4.624
14286TIP3    H242800   2.780   0.535   4.641
14287TIP3   OH242801   5.414   0.629   2.122
14287TIP3    H142802   5.403   0.552   2.178
14287TIP3    H242803   5.479   0.603   2.057
14288TIP3   OH242804   3.739   0.972   2.881
14288TIP3    H142805   3.800   1.036   2.919
14288TIP3    H242806   3.672   1.026   2.839
14289TIP3   OH242807   3.904   4.900   3.395
14289TIP3    H142808   3.815   4.887   3.427
14289TIP3    H242809   3.894   4.937   3.307
14290TIP3   OH242810   0.670   7.483   3.583
14290TIP3    H142811   0.752   7.450   3.547
14290TIP3    H242812   0.686   7.575   3.601
14291TIP3   OH242813   6.017   6.430   5.817
14291TIP3    H142814   5.984   6.431   5.727
14291TIP3    H242815   5.963   6.495   5.863
14292TIP3   OH242816   0.503   3.399   2.943
14292TIP3    H142817   0.528   3.416   3.034
14292TIP3    H242818   0.453   3.476   2.917
14293TIP3   OH242819   0.975   4.086   6.310
14293TIP3    H142820   0.990   4.167   6.261
14293TIP3    H242821   1.062   4.060   6.340
14294TIP3   OH242822   2.428   0.145   5.267
14294TIP3    H142823   2.432   0.170   5.359
14294TIP3    H242824   2.460   0.222   5.219
14295TIP3   OH242825   5.757   4.467   3.549
14295TIP3    H142826   5.785   4.555   3.526
14295TIP3    H242827   5.793   4.453   3.637
14296TIP3   OH242828   6.419   4.340   5.626
14296TIP3    H142829   6.426   4.297   5.541
14296TIP3    H242830   6.503   4.385   5.638
14297TIP3   OH242831   2.550   0.349   1.929
14297TIP3    H142832   2.644   0.330   1.922
14297TIP3    H242833   2.544   0.444   1.923
14298TIP3   OH242834   1.276   7.594   0.237
14298TIP3    H142835   1.239   7.508   0.258
14298TIP3    H242836   1.317   7.583   0.151
14299TIP3   OH242837   2.300   6.602   0.287
14299TIP3    H142838   2.336   6.519   0.256
14299TIP3    H242839   2.359   6.668   0.251
14300TIP3   OH242840   2.484   1.033   5.190
14300TIP3    H142841   2.472   1.041   5.284
14300TIP3    H242842   2.419   0.968   5.163
14301TIP3   OH242843   1.070   2.286   2.655
14301TIP3    H142844   0.981   2.317   2.637
14301TIP3    H242845   1.065   2.249   2.743
14302TIP3   OH242846   7.090   6.436   0.409
14302TIP3    H142847   7.008   6.461   0.365
14302TIP3    H242848   7.086   6.481   0.493
14303TIP3   OH242849   3.942   5.897   6.752
14303TIP3    H142850   3.897   5.841   6.688
14303TIP3    H242851   4.024   5.920   6.710
14304TIP3   OH242852   5.158   2.751   4.433
14304TIP3    H142853   5.244   2.710   4.422
14304TIP3    H242854   5.097   2.690   4.392
14305TIP3   OH242855   0.296   5.462   2.045
14305TIP3    H142856   0.324   5.376   2.014
14305TIP3    H242857   0.335   5.524   1.983
14306TIP3   OH242858   4.477   5.997   3.746
14306TIP3    H142859   4.520   5.925   3.701
14306TIP3    H242860   4.406   5.955   3.796
14307TIP3   OH242861   5.303   5.700   5.535
14307TIP3    H142862   5.213   5.718   5.508
14307TIP3    H242863   5.309   5.605   5.537
14308TIP3   OH242864   6.724   0.429   0.594
14308TIP3    H142865   6.773   0.358   0.636
14308TIP3    H242866   6.638   0.425   0.635
14309TIP3   OH242867   7.425   0.466   4.292
14309TIP3    H142868   7.404   0.546   4.242
14309TIP3    H242869   7.374   0.397   4.249
14310TIP3   OH242870   4.251   7.721   4.245
14310TIP3    H142871   4.327   7.707   4.302
14310TIP3    H242872   4.235   7.636   4.204
14311TIP3   OH242873   4.786   0.926   4.733
14311TIP3    H142874   4.812   0.845   4.690
14311TIP3    H242875   4.695   0.939   4.705
14312TIP3   OH242876   4.986   3.810   6.384
14312TIP3    H142877   4.962   3.747   6.316
14312TIP3    H242878   5.012   3.757   6.459
14313TIP3   OH242879   3.879   1.727   1.665
14313TIP3    H142880   3.928   1.695   1.589
14313TIP3    H242881   3.800   1.673   1.667
14314TIP3   OH242882   5.465   5.514   6.728
14314TIP3    H142883   5.503   5.431   6.757
14314TIP3    H242884   5.474   5.572   6.803
14315TIP3   OH242885   2.900   2.935   5.424
14315TIP3    H142886   2.882   2.845   5.451
14315TIP3    H242887   2.873   2.938   5.332
14316TIP3   OH242888   3.868   6.263   2.049
14316TIP3    H142889   3.888   6.195   1.984
14316TIP3    H242890   3.950   6.275   2.097
14317TIP3   OH242891   5.582   1.355   0.805
14317TIP3    H142892   5.666   1.391   0.777
14317TIP3    H242893   5.549   1.418   0.869
14318TIP3   OH242894   6.799   1.546   4.297
14318TIP3    H142895   6.831   1.510   4.380
14318TIP3    H242896   6.785   1.469   4.243
14319TIP3   OH242897   1.804   5.063   2.443
14319TIP3    H142898   1.761   4.978   2.433
14319TIP3    H242899   1.734   5.127   2.434
14320TIP3   OH242900   5.573   3.692   0.751
14320TIP3    H142901   5.534   3.607   0.729
14320TIP3    H242902   5.531   3.716   0.834
14321TIP3   OH242903   6.481   6.819   3.799
14321TIP3    H142904   6.545   6.801   3.867
14321TIP3    H242905   6.477   6.915   3.795
14322TIP3   OH242906   8.357   3.438   0.828
14322TIP3    H142907   8.317   3.485   0.900
14322TIP3    H242908   8.291   3.375   0.800
14323TIP3   OH242909   2.169   6.003   6.490
14323TIP3    H142910   2.262   6.018   6.474
14323TIP3    H242911   2.129   6.090   6.486
14324TIP3   OH242912   6.152   0.969   6.713
14324TIP3    H142913   6.224   0.906   6.710
14324TIP3    H242914   6.186   1.043   6.763
14325TIP3   OH242915   2.534   3.840   1.219
14325TIP3    H142916   2.580   3.865   1.300
14325TIP3    H242917   2.530   3.745   1.223
14326TIP3   OH242918   1.261   1.397   2.910
14326TIP3    H142919   1.356   1.396   2.927
14326TIP3    H242920   1.249   1.468   2.848
14327TIP3   OH242921   6.988   6.744   2.420
14327TIP3    H142922   6.983   6.752   2.325
14327TIP3    H242923   6.964   6.830   2.453
14328TIP3   OH242924   4.930   4.749   0.789
14328TIP3    H142925   5.009   4.709   0.824
14328TIP3    H242926   4.905   4.814   0.856
14329TIP3   OH242927   7.102   0.924   4.402
14329TIP3    H142928   7.091   1.017   4.383
14329TIP3    H242929   7.054   0.880   4.332
14330TIP3   OH242930   3.044   7.537   2.322
14330TIP3    H142931   3.015   7.623   2.294
14330TIP3    H242932   3.129   7.553   2.364
14331TIP3   OH242933   4.061   3.698   3.362
14331TIP3    H142934   3.995   3.680   3.294
14331TIP3    H242935   4.032   3.647   3.437
14332TIP3   OH242936   3.686   3.058   3.560
14332TIP3    H142937   3.769   3.036   3.601
14332TIP3    H242938   3.662   2.979   3.511
14333TIP3   OH242939   3.560   0.082   1.571
14333TIP3    H142940   3.491   0.017   1.580
14333TIP3    H242941   3.516   0.166   1.585
14334TIP3   OH242942   3.597   6.029   3.277
14334TIP3    H142943   3.621   5.944   3.241
14334TIP3    H242944   3.540   6.009   3.351
14335TIP3   OH242945   7.070   4.834   6.489
14335TIP3    H142946   7.000   4.884   6.531
14335TIP3    H242947   7.139   4.897   6.474
14336TIP3   OH242948   0.253   1.882   4.940
14336TIP3    H142949   0.220   1.932   4.865
14336TIP3    H242950   0.332   1.838   4.907
14337TIP3   OH242951   4.116   3.247   6.075
14337TIP3    H142952   4.039   3.301   6.055
14337TIP3    H242953   4.080   3.166   6.110
14338TIP3   OH242954   2.856   6.560   0.853
14338TIP3    H142955   2.786   6.607   0.899
14338TIP3    H242956   2.853   6.595   0.764
14339TIP3   OH242957   3.456   6.409   5.556
14339TIP3    H142958   3.401   6.407   5.478
14339TIP3    H242959   3.461   6.317   5.583
14340TIP3   OH242960   3.199   1.441   1.028
14340TIP3    H142961   3.169   1.487   1.106
14340TIP3    H242962   3.229   1.356   1.061
14341TIP3   OH242963   4.637   5.780   5.027
14341TIP3    H142964   4.614   5.872   5.039
14341TIP3    H242965   4.575   5.748   4.962
14342TIP3   OH242966   3.458   2.657   1.527
14342TIP3    H142967   3.363   2.643   1.523
14342TIP3    H242968   3.472   2.742   1.487
14343TIP3   OH242969   7.248   0.052   0.922
14343TIP3    H142970   7.172  -0.002   0.900
14343TIP3    H242971   7.216   0.142   0.916
14344TIP3   OH242972   4.964   6.330   5.648
14344TIP3    H142973   4.928   6.322   5.737
14344TIP3    H242974   4.934   6.416   5.618
14345TIP3   OH242975   5.488   0.427   2.297
14345TIP3    H142976   5.439   0.457   2.373
14345TIP3    H242977   5.488   0.332   2.304
14346TIP3   OH242978   6.616   3.830   2.753
14346TIP3    H142979   6.651   3.892   2.690
14346TIP3    H242980   6.689   3.813   2.813
14347TIP3   OH242981   0.199   5.305   4.833
14347TIP3    H142982   0.214   5.363   4.908
14347TIP3    H242983   0.243   5.223   4.857
14348TIP3   OH242984   4.731   4.582   4.397
14348TIP3    H142985   4.804   4.578   4.336
14348TIP3    H242986   4.773   4.589   4.483
14349TIP3   OH242987   2.443   6.665   0.579
14349TIP3    H142988   2.403   6.734   0.524
14349TIP3    H242989   2.508   6.624   0.522
14350TIP3   OH242990   1.484   3.674   3.440
14350TIP3    H142991   1.413   3.727   3.404
14350TIP3    H242992   1.561   3.698   3.387
14351TIP3   OH242993   6.912   6.319   2.002
14351TIP3    H142994   6.832   6.276   2.032
14351TIP3    H242995   6.983   6.259   2.027
14352TIP3   OH242996   5.634   3.755   5.710
14352TIP3    H142997   5.564   3.715   5.658
14352TIP3    H242998   5.694   3.683   5.729
14353TIP3   OH242999   5.484   0.090   6.064
14353TIP3    H143000   5.427   0.014   6.052
14353TIP3    H243001   5.519   0.108   5.977
14354TIP3   OH243002   3.041   3.151   4.853
14354TIP3    H143003   3.043   3.128   4.946
14354TIP3    H243004   3.111   3.099   4.814
14355TIP3   OH243005   0.587   7.091   3.882
14355TIP3    H143006   0.502   7.135   3.879
14355TIP3    H243007   0.612   7.081   3.790
14356TIP3   OH243008   6.922   6.121   6.150
14356TIP3    H143009   6.994   6.120   6.213
14356TIP3    H243010   6.845   6.144   6.202
14357TIP3   OH243011   2.258   4.306   2.830
14357TIP3    H143012   2.277   4.314   2.737
14357TIP3    H243013   2.184   4.245   2.835
14358TIP3   OH243014   0.455   7.227   6.289
14358TIP3    H143015   0.421   7.306   6.247
14358TIP3    H243016   0.484   7.172   6.215
14359TIP3   OH243017   0.550   1.240   1.051
14359TIP3    H143018   0.619   1.174   1.059
14359TIP3    H243019   0.536   1.250   0.957
14360TIP3   OH243020   3.717   7.411   0.152
14360TIP3    H143021   3.795   7.447   0.193
14360TIP3    H243022   3.690   7.479   0.089
14361TIP3   OH243023   6.004   3.728   5.577
14361TIP3    H143024   5.966   3.806   5.618
14361TIP3    H243025   5.931   3.689   5.529
14362TIP3   OH243026   2.860   3.971   4.345
14362TIP3    H143027   2.894   4.053   4.308
14362TIP3    H243028   2.839   3.917   4.269
14363TIP3   OH243029   3.182   3.062   0.511
14363TIP3    H143030   3.214   2.999   0.576
14363TIP3    H243031   3.204   3.147   0.547
14364TIP3   OH243032   4.073   3.861   5.144
14364TIP3    H143033   4.051   3.870   5.051
14364TIP3    H243034   4.150   3.805   5.146
14365TIP3   OH243035   2.401   0.631   3.818
14365TIP3    H143036   2.376   0.699   3.756
14365TIP3    H243037   2.436   0.560   3.764
14366TIP3   OH243038   8.116   4.359   4.054
14366TIP3    H143039   8.030   4.399   4.069
14366TIP3    H243040   8.160   4.365   4.139
14367TIP3   OH243041   0.150   2.856   5.334
14367TIP3    H143042   0.061   2.824   5.322
14367TIP3    H243043   0.154   2.882   5.426
14368TIP3   OH243044   0.871   4.002   3.445
14368TIP3    H143045   0.865   3.926   3.503
14368TIP3    H243046   0.951   3.987   3.393
14369TIP3   OH243047   3.246   4.474   0.856
14369TIP3    H143048   3.169   4.421   0.877
14369TIP3    H243049   3.212   4.563   0.852
14370TIP3   OH243050   0.983   7.474   3.006
14370TIP3    H143051   0.935   7.555   2.988
14370TIP3    H243052   0.919   7.404   2.990
14371TIP3   OH243053   3.225   4.121   3.948
14371TIP3    H143054   3.208   4.195   4.006
14371TIP3    H243055   3.257   4.052   4.006
14372TIP3   OH243056   7.942   3.601   1.778
14372TIP3    H143057   8.004   3.673   1.770
14372TIP3    H243058   7.907   3.608   1.866
14373TIP3   OH243059   2.790   6.293   1.539
14373TIP3    H143060   2.726   6.360   1.516
14373TIP3    H243061   2.826   6.263   1.456
14374TIP3   OH243062   7.753   6.521   2.442
14374TIP3    H143063   7.770   6.560   2.528
14374TIP3    H243064   7.657   6.524   2.433
14375TIP3   OH243065   5.431   3.168   4.298
14375TIP3    H143066   5.453   3.260   4.313
14375TIP3    H243067   5.336   3.163   4.309
14376TIP3   OH243068   7.419   3.761   1.553
14376TIP3    H143069   7.362   3.746   1.628
14376TIP3    H243070   7.508   3.754   1.588
14377TIP3   OH243071   8.096   5.291   4.724
14377TIP3    H143072   8.076   5.222   4.660
14377TIP3    H243073   8.186   5.273   4.751
14378TIP3   OH243074   8.040   4.363   0.893
14378TIP3    H143075   7.948   4.347   0.876
14378TIP3    H243076   8.085   4.328   0.816
14379TIP3   OH243077   6.177   6.338   2.024
14379TIP3    H143078   6.192   6.244   2.035
14379TIP3    H243079   6.252   6.379   2.066
14380TIP3   OH243080   7.598   5.971   3.697
14380TIP3    H143081   7.634   6.060   3.697
14380TIP3    H243082   7.651   5.924   3.633
14381TIP3   OH243083   2.395   0.823   0.097
14381TIP3    H143084   2.413   0.807   0.190
14381TIP3    H243085   2.400   0.737   0.056
14382TIP3   OH243086   3.104   3.499   0.806
14382TIP3    H143087   3.103   3.569   0.740
14382TIP3    H243088   3.155   3.429   0.766
14383TIP3   OH243089   2.680   4.775   1.178
14383TIP3    H143090   2.714   4.844   1.121
14383TIP3    H243091   2.757   4.732   1.213
14384TIP3   OH243092   8.136   6.333   2.592
14384TIP3    H143093   8.044   6.307   2.587
14384TIP3    H243094   8.136   6.426   2.572
14385TIP3   OH243095   6.762   3.605   1.256
14385TIP3    H143096   6.697   3.609   1.187
14385TIP3    H243097   6.713   3.582   1.335
14386TIP3   OH243098   1.179   0.574   0.079
14386TIP3    H143099   1.273   0.590   0.072
14386TIP3    H243100   1.170   0.479   0.070
14387TIP3   OH243101   0.274   4.506   1.195
14387TIP3    H143102   0.307   4.563   1.264
14387TIP3    H243103   0.321   4.423   1.207
14388TIP3   OH243104   1.143   1.483   3.896
14388TIP3    H143105   1.179   1.522   3.976
14388TIP3    H243106   1.119   1.394   3.922
14389TIP3   OH243107   6.327   3.536   1.189
14389TIP3    H143108   6.400   3.482   1.158
14389TIP3    H243109   6.366   3.622   1.205
14390TIP3   OH243110   4.174   0.898   0.654
14390TIP3    H143111   4.125   0.842   0.593
14390TIP3    H243112   4.251   0.846   0.677
14391TIP3   OH243113   1.225   6.416   6.528
14391TIP3    H143114   1.233   6.493   6.584
14391TIP3    H243115   1.288   6.354   6.564
14392TIP3   OH243116   0.667   3.472   2.024
14392TIP3    H143117   0.730   3.486   2.094
14392TIP3    H243118   0.603   3.411   2.061
14393TIP3   OH243119   6.935   6.551   2.958
14393TIP3    H143120   6.946   6.458   2.975
14393TIP3    H243121   6.971   6.564   2.870
14394TIP3   OH243122   5.789   3.054   1.297
14394TIP3    H143123   5.837   3.103   1.230
14394TIP3    H243124   5.748   2.982   1.249
14395TIP3   OH243125   2.089   5.310   2.226
14395TIP3    H143126   2.155   5.372   2.256
14395TIP3    H243127   2.006   5.344   2.261
14396TIP3   OH243128   5.642   7.492   3.342
14396TIP3    H143129   5.731   7.458   3.354
14396TIP3    H243130   5.654   7.580   3.308
14397TIP3   OH243131   3.545   7.437   6.026
14397TIP3    H143132   3.573   7.521   6.062
14397TIP3    H243133   3.553   7.447   5.931
14398TIP3   OH243134   0.438   6.499   1.815
14398TIP3    H143135   0.532   6.517   1.821
14398TIP3    H243136   0.404   6.525   1.901
14399TIP3   OH243137   3.091   5.733   2.612
14399TIP3    H143138   3.077   5.712   2.704
14399TIP3    H243139   3.005   5.726   2.572
14400TIP3   OH243140   6.914   3.590   2.249
14400TIP3    H143141   6.971   3.649   2.201
14400TIP3    H243142   6.957   3.505   2.243
14401TIP3   OH243143   2.630   7.170   5.229
14401TIP3    H143144   2.559   7.233   5.240
14401TIP3    H243145   2.593   7.100   5.176
14402TIP3   OH243146   5.298   6.379   2.161
14402TIP3    H143147   5.227   6.366   2.224
14402TIP3    H243148   5.291   6.304   2.102
14403TIP3   OH243149   3.139   7.861   2.099
14403TIP3    H143150   3.182   7.940   2.131
14403TIP3    H243151   3.208   7.811   2.056
14404TIP3   OH243152   7.818   2.340   2.718
14404TIP3    H143153   7.807   2.271   2.652
14404TIP3    H243154   7.901   2.319   2.761
14405TIP3   OH243155   4.899   0.174   6.063
14405TIP3    H143156   4.930   0.128   5.985
14405TIP3    H243157   4.866   0.258   6.030
14406TIP3   OH243158   7.391   2.554   5.581
14406TIP3    H143159   7.467   2.566   5.637
14406TIP3    H243160   7.378   2.459   5.577
14407TIP3   OH243161   7.478   6.464   2.389
14407TIP3    H143162   7.398   6.515   2.377
14407TIP3    H243163   7.494   6.423   2.304
14408TIP3   OH243164   2.060   1.065   1.156
14408TIP3    H143165   2.045   1.078   1.063
14408TIP3    H243166   1.980   1.099   1.198
14409TIP3   OH243167   6.101   1.048   1.356
14409TIP3    H143168   6.026   1.071   1.301
14409TIP3    H243169   6.062   1.002   1.431
14410TIP3   OH243170   4.810   4.362   1.424
14410TIP3    H143171   4.777   4.400   1.343
14410TIP3    H243172   4.765   4.411   1.493
14411TIP3   OH243173   6.366   3.170   1.021
14411TIP3    H143174   6.350   3.107   0.951
14411TIP3    H243175   6.391   3.117   1.096
14412TIP3   OH243176   1.270   3.693   5.016
14412TIP3    H143177   1.214   3.625   5.054
14412TIP3    H243178   1.314   3.650   4.942
14413TIP3   OH243179   6.498   1.792   5.892
14413TIP3    H143180   6.434   1.843   5.942
14413TIP3    H243181   6.444   1.729   5.843
14414TIP3   OH243182   5.115   4.655   4.724
14414TIP3    H143183   5.073   4.630   4.806
14414TIP3    H243184   5.137   4.747   4.735
14415TIP3   OH243185   1.960   6.957   0.362
14415TIP3    H143186   1.989   6.908   0.285
14415TIP3    H243187   2.002   6.913   0.436
14416TIP3   OH243188   7.129   6.876   1.727
14416TIP3    H143189   7.123   6.795   1.778
14416TIP3    H243190   7.216   6.911   1.746
14417TIP3   OH243191   4.190   4.383   6.682
14417TIP3    H143192   4.241   4.304   6.696
14417TIP3    H243193   4.108   4.352   6.643
14418TIP3   OH243194   7.792   4.947   4.864
14418TIP3    H143195   7.816   4.858   4.888
14418TIP3    H243196   7.862   5.001   4.900
14419TIP3   OH243197   0.217   5.076   5.513
14419TIP3    H143198   0.148   5.109   5.456
14419TIP3    H243199   0.175   5.008   5.566
14420TIP3   OH243200   1.819   0.704   5.093
14420TIP3    H143201   1.756   0.754   5.042
14420TIP3    H243202   1.901   0.710   5.044
14421TIP3   OH243203   5.067   3.983   6.169
14421TIP3    H143204   5.156   3.948   6.171
14421TIP3    H243205   5.021   3.935   6.238
14422TIP3   OH243206   6.155   6.030   2.530
14422TIP3    H143207   6.103   6.055   2.606
14422TIP3    H243208   6.184   5.941   2.547
14423TIP3   OH243209   0.018   3.942   2.681
14423TIP3    H143210   0.084   3.992   2.730
14423TIP3    H243211  -0.055   4.003   2.671
14424TIP3   OH243212   3.316   6.792   2.575
14424TIP3    H143213   3.365   6.815   2.496
14424TIP3    H243214   3.224   6.799   2.549
14425TIP3   OH243215   6.205   4.435   3.954
14425TIP3    H143216   6.158   4.497   3.899
14425TIP3    H243217   6.140   4.404   4.016
14426TIP3   OH243218   7.323   4.630   0.876
14426TIP3    H143219   7.413   4.599   0.881
14426TIP3    H243220   7.330   4.725   0.866
14427TIP3   OH243221   1.073   1.080   1.974
14427TIP3    H143222   0.985   1.112   1.991
14427TIP3    H243223   1.130   1.155   1.993
14428TIP3   OH243224   3.278   3.741  -0.016
14428TIP3    H143225   3.194   3.752  -0.060
14428TIP3    H243226   3.257   3.737   0.077
14429TIP3   OH243227   4.020   2.994   3.378
14429TIP3    H143228   3.975   3.007   3.294
14429TIP3    H243229   4.101   2.948   3.355
14430TIP3   OH243230   3.351   1.976   4.810
14430TIP3    H143231   3.371   2.014   4.895
14430TIP3    H243232   3.423   2.006   4.753
14431TIP3   OH243233   7.343   6.513   1.704
14431TIP3    H143234   7.367   6.557   1.622
14431TIP3    H243235   7.313   6.426   1.677
14432TIP3   OH243236   3.976   4.922   2.765
14432TIP3    H143237   3.926   4.914   2.684
14432TIP3    H243238   3.927   4.869   2.828
14433TIP3   OH243239   0.533   2.975   3.364
14433TIP3    H143240   0.442   2.968   3.393
14433TIP3    H243241   0.574   2.895   3.396
14434TIP3   OH243242   6.345   3.454   4.575
14434TIP3    H143243   6.394   3.398   4.636
14434TIP3    H243244   6.379   3.542   4.591
14435TIP3   OH243245   4.591   6.562   2.743
14435TIP3    H143246   4.602   6.630   2.676
14435TIP3    H243247   4.512   6.515   2.716
14436TIP3   OH243248   8.404   6.944   1.844
14436TIP3    H143249   8.333   6.886   1.817
14436TIP3    H243250   8.431   6.911   1.929
14437TIP3   OH243251   5.039   1.574   0.102
14437TIP3    H143252   5.098   1.618   0.162
14437TIP3    H243253   4.995   1.508   0.156
14438TIP3   OH243254   7.283   6.898   3.523
14438TIP3    H143255   7.204   6.879   3.575
14438TIP3    H243256   7.261   6.977   3.474
14439TIP3   OH243257   8.227   6.947   5.829
14439TIP3    H143258   8.277   6.883   5.778
14439TIP3    H243259   8.293   7.009   5.860
14440TIP3   OH243260   4.957   6.635   2.314
14440TIP3    H143261   4.965   6.708   2.375
14440TIP3    H243262   4.984   6.671   2.230
14441TIP3   OH243263   6.128   2.371   3.269
14441TIP3    H143264   6.079   2.359   3.188
14441TIP3    H243265   6.087   2.447   3.311
14442TIP3   OH243266   4.873   5.601   1.314
14442TIP3    H143267   4.937   5.572   1.378
14442TIP3    H243268   4.925   5.629   1.239
14443TIP3   OH243269   2.872   7.807   1.972
14443TIP3    H143270   2.966   7.789   1.961
14443TIP3    H243271   2.864   7.901   1.953
14444TIP3   OH243272   7.666   5.685   4.583
14444TIP3    H143273   7.750   5.713   4.620
14444TIP3    H243274   7.685   5.668   4.491
14445TIP3   OH243275   2.301   6.799   1.964
14445TIP3    H143276   2.223   6.854   1.961
14445TIP3    H243277   2.369   6.851   1.920
14446TIP3   OH243278   0.219   6.206   4.993
14446TIP3    H143279   0.289   6.246   4.940
14446TIP3    H243280   0.165   6.280   5.021
14447TIP3   OH243281   2.086   6.677   4.863
14447TIP3    H143282   2.066   6.686   4.770
14447TIP3    H243283   2.181   6.691   4.869
14448TIP3   OH243284   4.344   4.637   3.734
14448TIP3    H143285   4.389   4.570   3.786
14448TIP3    H243286   4.299   4.587   3.665
14449TIP3   OH243287   0.894   0.717   0.714
14449TIP3    H143288   0.830   0.735   0.645
14449TIP3    H243289   0.974   0.694   0.667
14450TIP3   OH243290   5.155   1.884   3.437
14450TIP3    H143291   5.152   1.830   3.358
14450TIP3    H243292   5.161   1.821   3.508
14451TIP3   OH243293   5.907   3.877   2.200
14451TIP3    H143294   5.982   3.819   2.214
14451TIP3    H243295   5.903   3.932   2.278
14452TIP3   OH243296   1.474   5.289   0.348
14452TIP3    H143297   1.443   5.296   0.438
14452TIP3    H243298   1.543   5.355   0.340
14453TIP3   OH243299   7.787   0.025   1.146
14453TIP3    H143300   7.808   0.108   1.103
14453TIP3    H243301   7.716  -0.013   1.093
14454TIP3   OH243302   7.567   4.749   3.642
14454TIP3    H143303   7.569   4.776   3.551
14454TIP3    H243304   7.556   4.654   3.640
14455TIP3   OH243305   3.698   1.381   5.561
14455TIP3    H143306   3.728   1.300   5.601
14455TIP3    H243307   3.614   1.399   5.602
14456TIP3   OH243308   1.552   7.134   4.459
14456TIP3    H143309   1.487   7.184   4.508
14456TIP3    H243310   1.501   7.082   4.397
14457TIP3   OH243311   2.249   5.359   5.406
14457TIP3    H143312   2.220   5.436   5.357
14457TIP3    H243313   2.169   5.323   5.444
14458TIP3   OH243314   1.416   2.820   1.497
14458TIP3    H143315   1.352   2.876   1.541
14458TIP3    H243316   1.366   2.778   1.427
14459TIP3   OH243317   3.379   5.839   2.192
14459TIP3    H143318   3.423   5.918   2.223
14459TIP3    H243319   3.337   5.802   2.269
14460TIP3   OH243320   0.846   1.351   2.441
14460TIP3    H143321   0.787   1.297   2.494
14460TIP3    H243322   0.789   1.414   2.397
14461TIP3   OH243323   1.067   4.019   2.115
14461TIP3    H143324   1.037   4.079   2.184
14461TIP3    H243325   1.092   4.076   2.043
14462TIP3   OH243326   7.888   2.034   3.943
14462TIP3    H143327   7.915   2.124   3.923
14462TIP3    H243328   7.851   2.040   4.031
14463TIP3   OH243329   5.491   2.954   1.579
14463TIP3    H143330   5.471   2.996   1.495
14463TIP3    H243331   5.527   3.025   1.633
14464TIP3   OH243332   4.268   5.187   1.099
14464TIP3    H143333   4.238   5.186   1.190
14464TIP3    H243334   4.360   5.212   1.105
14465TIP3   OH243335   6.134   1.174   0.901
14465TIP3    H143336   6.137   1.144   0.992
14465TIP3    H243337   6.165   1.264   0.905
14466TIP3   OH243338   0.955   2.809   3.004
14466TIP3    H143339   1.022   2.805   2.936
14466TIP3    H243340   0.886   2.864   2.966
14467TIP3   OH243341   3.844   4.329   3.272
14467TIP3    H143342   3.763   4.288   3.241
14467TIP3    H243343   3.885   4.362   3.193
14468TIP3   OH243344   6.208   1.455   1.869
14468TIP3    H143345   6.130   1.502   1.839
14468TIP3    H243346   6.216   1.382   1.808
14469TIP3   OH243347   2.903   4.290   0.760
14469TIP3    H143348   2.911   4.267   0.667
14469TIP3    H243349   2.921   4.209   0.807
14470TIP3   OH243350   3.668   2.346   1.340
14470TIP3    H143351   3.635   2.372   1.426
14470TIP3    H243352   3.636   2.256   1.328
14471TIP3   OH243353   2.616   5.279   1.400
14471TIP3    H143354   2.566   5.199   1.417
14471TIP3    H243355   2.550   5.348   1.395
14472TIP3   OH243356   7.075   2.470   6.219
14472TIP3    H143357   7.114   2.511   6.142
14472TIP3    H243358   7.119   2.511   6.293
14473TIP3   OH243359   6.120   3.141   4.645
14473TIP3    H143360   6.124   3.153   4.740
14473TIP3    H243361   6.174   3.064   4.628
14474TIP3   OH243362   7.043   7.095   5.240
14474TIP3    H143363   7.108   7.033   5.272
14474TIP3    H243364   6.996   7.124   5.319
14475TIP3   OH243365   3.929   5.661   2.311
14475TIP3    H143366   3.977   5.669   2.393
14475TIP3    H243367   3.954   5.738   2.260
14476TIP3   OH243368   0.064   5.180   0.414
14476TIP3    H143369  -0.021   5.195   0.372
14476TIP3    H243370   0.110   5.120   0.356
14477TIP3   OH243371   1.722   5.351   3.036
14477TIP3    H143372   1.674   5.356   3.119
14477TIP3    H243373   1.786   5.422   3.042
14478TIP3   OH243374   1.562   2.583   2.611
14478TIP3    H143375   1.654   2.557   2.620
14478TIP3    H243376   1.519   2.505   2.574
14479TIP3   OH243377   2.352   2.537   2.126
14479TIP3    H143378   2.263   2.547   2.091
14479TIP3    H243379   2.366   2.618   2.176
14480TIP3   OH243380   6.294   1.684   6.370
14480TIP3    H143381   6.253   1.599   6.354
14480TIP3    H243382   6.256   1.741   6.302
14481TIP3   OH243383   2.323   4.399   2.591
14481TIP3    H143384   2.404   4.349   2.584
14481TIP3    H243385   2.330   4.466   2.523
14482TIP3   OH243386   5.373   3.608   5.636
14482TIP3    H143387   5.296   3.660   5.612
14482TIP3    H243388   5.346   3.563   5.717
14483TIP3   OH243389   1.846   3.937   6.267
14483TIP3    H143390   1.892   3.869   6.218
14483TIP3    H243391   1.759   3.900   6.282
14484TIP3   OH243392   5.874   1.670   1.437
14484TIP3    H143393   5.793   1.621   1.452
14484TIP3    H243394   5.876   1.684   1.343
14485TIP3   OH243395   8.119   4.014   2.006
14485TIP3    H143396   8.109   4.095   2.056
14485TIP3    H243397   8.041   4.011   1.949
14486TIP3   OH243398   7.042   6.004   0.108
14486TIP3    H143399   7.120   6.038   0.152
14486TIP3    H243400   6.976   6.073   0.120
14487TIP3   OH243401   4.121   3.251   2.365
14487TIP3    H143402   4.122   3.204   2.448
14487TIP3    H243403   4.072   3.331   2.384
14488TIP3   OH243404   7.505   0.609   0.153
14488TIP3    H143405   7.539   0.697   0.139
14488TIP3    H243406   7.444   0.618   0.227
14489TIP3   OH243407   6.031   1.042   0.232
14489TIP3    H143408   6.013   1.053   0.326
14489TIP3    H243409   5.974   1.106   0.189
14490TIP3   OH243410   4.957   5.881   4.073
14490TIP3    H143411   4.952   5.797   4.118
14490TIP3    H243412   5.010   5.864   3.995
14491TIP3   OH243413   5.292   1.517   0.606
14491TIP3    H143414   5.312   1.434   0.648
14491TIP3    H243415   5.352   1.522   0.532
14492TIP3   OH243416   3.562   4.507   0.049
14492TIP3    H143417   3.601   4.580  -0.001
14492TIP3    H243418   3.516   4.550   0.120
14493TIP3   OH243419   5.144   1.295   2.575
14493TIP3    H143420   5.087   1.363   2.540
14493TIP3    H243421   5.218   1.342   2.613
14494TIP3   OH243422   5.866   5.578   3.982
14494TIP3    H143423   5.938   5.629   3.948
14494TIP3    H243424   5.815   5.640   4.034
14495TIP3   OH243425   6.900   4.527   0.548
14495TIP3    H143426   6.870   4.616   0.567
14495TIP3    H243427   6.856   4.503   0.466
14496TIP3   OH243428   2.259   0.584   5.916
14496TIP3    H143429   2.259   0.678   5.901
14496TIP3    H243430   2.174   0.566   5.956
14497TIP3   OH243431   7.895   3.008   0.717
14497TIP3    H143432   7.944   2.939   0.764
14497TIP3    H243433   7.838   2.960   0.658
14498TIP3   OH243434   1.592   0.872   5.016
14498TIP3    H143435   1.513   0.853   5.067
14498TIP3    H243436   1.576   0.958   4.978
14499TIP3   OH243437   8.175   2.680   1.003
14499TIP3    H143438   8.257   2.693   1.051
14499TIP3    H243439   8.123   2.624   1.060
14500TIP3   OH243440   4.277   0.246   0.932
14500TIP3    H143441   4.334   0.195   0.990
14500TIP3    H243442   4.197   0.259   0.983
14501TIP3   OH243443   1.099   6.339   2.828
14501TIP3    H143444   1.010   6.315   2.804
14501TIP3    H243445   1.091   6.374   2.917
14502TIP3   OH243446   3.022   7.714   4.007
14502TIP3    H143447   3.067   7.632   4.027
14502TIP3    H243448   2.929   7.694   4.022
14503TIP3   OH243449   3.819   2.410   5.332
14503TIP3    H143450   3.783   2.322   5.333
14503TIP3    H243451   3.899   2.404   5.383
14504TIP3   OH243452   0.218   3.650   3.787
14504TIP3    H143453   0.307   3.673   3.761
14504TIP3    H243454   0.175   3.735   3.804
14505TIP3   OH243455   8.032   7.486   1.993
14505TIP3    H143456   7.973   7.476   2.068
14505TIP3    H243457   8.119   7.469   2.029
14506TIP3   OH243458   5.104   3.087   5.090
14506TIP3    H143459   5.084   3.101   5.182
14506TIP3    H243460   5.164   3.157   5.067
14507TIP3   OH243461   6.031   0.079   0.671
14507TIP3    H143462   6.089   0.034   0.732
14507TIP3    H243463   6.091   0.121   0.608
14508TIP3   OH243464   0.673   5.596   3.773
14508TIP3    H143465   0.588   5.554   3.789
14508TIP3    H243466   0.737   5.530   3.799
14509TIP3   OH243467   4.469   4.267   3.321
14509TIP3    H143468   4.385   4.249   3.363
14509TIP3    H243469   4.484   4.192   3.263
14510TIP3   OH243470   5.435   4.869   5.773
14510TIP3    H143471   5.446   4.957   5.808
14510TIP3    H243472   5.389   4.822   5.843
14511TIP3   OH243473   1.227   6.344   4.742
14511TIP3    H143474   1.314   6.341   4.782
14511TIP3    H243475   1.204   6.437   4.742
14512TIP3   OH243476   0.508   5.917   1.172
14512TIP3    H143477   0.457   5.996   1.187
14512TIP3    H243478   0.504   5.869   1.254
14513TIP3   OH243479   8.307   2.919   2.749
14513TIP3    H143480   8.247   2.850   2.721
14513TIP3    H243481   8.312   2.979   2.675
14514TIP3   OH243482   7.656   6.293   5.354
14514TIP3    H143483   7.561   6.307   5.351
14514TIP3    H243484   7.666   6.198   5.361
14515TIP3   OH243485   1.347   3.332   0.434
14515TIP3    H143486   1.266   3.283   0.449
14515TIP3    H243487   1.394   3.327   0.517
14516TIP3   OH243488   5.353   6.100   6.484
14516TIP3    H143489   5.271   6.061   6.516
14516TIP3    H243490   5.404   6.025   6.454
14517TIP3   OH243491   7.644   0.043   6.207
14517TIP3    H143492   7.645   0.031   6.112
14517TIP3    H243493   7.619   0.135   6.219
14518TIP3   OH243494   7.705   4.464   0.040
14518TIP3    H143495   7.623   4.452  -0.007
14518TIP3    H243496   7.688   4.431   0.128
14519TIP3   OH243497   8.368   3.094   1.371
14519TIP3    H143498   8.457   3.126   1.362
14519TIP3    H243499   8.343   3.066   1.283
14520TIP3   OH243500   5.700   5.668   3.381
14520TIP3    H143501   5.663   5.728   3.445
14520TIP3    H243502   5.709   5.585   3.428
14521TIP3   OH243503   5.350   6.310   6.294
14521TIP3    H143504   5.260   6.304   6.262
14521TIP3    H243505   5.356   6.244   6.363
14522TIP3   OH243506   1.946   3.864   5.412
14522TIP3    H143507   1.943   3.771   5.387
14522TIP3    H243508   1.887   3.871   5.487
14523TIP3   OH243509   1.692   6.399   5.354
14523TIP3    H143510   1.766   6.440   5.309
14523TIP3    H243511   1.729   6.320   5.393
14524TIP3   OH243512   1.422   0.343   3.839
14524TIP3    H143513   1.426   0.283   3.764
14524TIP3    H243514   1.328   0.353   3.856
14525TIP3   OH243515   0.549   7.846   5.787
14525TIP3    H143516   0.594   7.782   5.732
14525TIP3    H243517   0.618   7.881   5.843
14526TIP3   OH243518   1.255   5.035   3.730
14526TIP3    H143519   1.229   5.045   3.638
14526TIP3    H243520   1.258   4.940   3.743
14527TIP3   OH243521   7.914   4.230   5.925
14527TIP3    H143522   7.876   4.317   5.917
14527TIP3    H243523   8.009   4.244   5.919
14528TIP3   OH243524   0.222   5.685   5.461
14528TIP3    H143525   0.264   5.669   5.545
14528TIP3    H243526   0.178   5.603   5.439
14529TIP3   OH243527   4.637   3.457   0.863
14529TIP3    H143528   4.654   3.383   0.922
14529TIP3    H243529   4.622   3.416   0.778
14530TIP3   OH243530   7.954   7.213   4.592
14530TIP3    H143531   7.890   7.181   4.528
14530TIP3    H243532   7.909   7.285   4.637
14531TIP3   OH243533   1.672   0.916   2.415
14531TIP3    H143534   1.700   0.828   2.440
14531TIP3    H243535   1.719   0.935   2.334
14532TIP3   OH243536   2.420   4.678   5.052
14532TIP3    H143537   2.342   4.681   5.107
14532TIP3    H243538   2.391   4.636   4.971
14533TIP3   OH243539   5.343   1.024   2.868
14533TIP3    H143540   5.320   0.948   2.921
14533TIP3    H243541   5.262   1.075   2.863
14534TIP3   OH243542   6.275   5.277   3.564
14534TIP3    H143543   6.272   5.369   3.536
14534TIP3    H243544   6.193   5.265   3.613
14535TIP3   OH243545   1.638   1.175   1.114
14535TIP3    H143546   1.614   1.083   1.125
14535TIP3    H243547   1.571   1.212   1.057
14536TIP3   OH243548   4.617   4.203   2.215
14536TIP3    H143549   4.650   4.143   2.149
14536TIP3    H243550   4.568   4.148   2.276
14537TIP3   OH243551   0.393   6.523   6.688
14537TIP3    H143552   0.433   6.600   6.648
14537TIP3    H243553   0.357   6.474   6.614
14538TIP3   OH243554   5.132   3.111   6.601
14538TIP3    H143555   5.074   3.039   6.575
14538TIP3    H243556   5.165   3.146   6.518
14539TIP3   OH243557   4.178   5.671   0.087
14539TIP3    H143558   4.195   5.753   0.134
14539TIP3    H243559   4.105   5.692   0.029
14540TIP3   OH243560   8.275   7.751   1.017
14540TIP3    H143561   8.295   7.844   1.019
14540TIP3    H243562   8.263   7.726   1.109
14541TIP3   OH243563   0.321   2.950   4.566
14541TIP3    H143564   0.364   3.016   4.512
14541TIP3    H243565   0.331   2.981   4.655
14542TIP3   OH243566   0.928   6.052   3.894
14542TIP3    H143567   0.842   6.080   3.864
14542TIP3    H243568   0.933   5.959   3.869
14543TIP3   OH243569   1.364   3.510   1.734
14543TIP3    H143570   1.283   3.560   1.723
14543TIP3    H243571   1.355   3.469   1.820
14544TIP3   OH243572   5.053   2.140   1.034
14544TIP3    H143573   5.092   2.062   0.994
14544TIP3    H243574   5.128   2.194   1.059
14545TIP3   OH243575   8.174   4.286   2.115
14545TIP3    H143576   8.136   4.367   2.082
14545TIP3    H243577   8.223   4.313   2.193
14546TIP3   OH243578   1.892   5.483   5.223
14546TIP3    H143579   1.963   5.425   5.196
14546TIP3    H243580   1.918   5.514   5.310
14547TIP3   OH243581   4.282   7.265   3.208
14547TIP3    H143582   4.324   7.179   3.216
14547TIP3    H243583   4.189   7.245   3.203
14548TIP3   OH243584   7.217   2.441   1.684
14548TIP3    H143585   7.192   2.521   1.728
14548TIP3    H243586   7.264   2.470   1.605
14549TIP3   OH243587   1.709   7.592   3.230
14549TIP3    H143588   1.621   7.607   3.265
14549TIP3    H243589   1.750   7.678   3.228
14550TIP3   OH243590   2.718   6.945   3.618
14550TIP3    H143591   2.728   6.888   3.541
14550TIP3    H243592   2.641   6.998   3.598
14551TIP3   OH243593   2.602   5.077   5.699
14551TIP3    H143594   2.512   5.065   5.728
14551TIP3    H243595   2.614   5.014   5.629
14552TIP3   OH243596   8.023   6.822   0.366
14552TIP3    H143597   7.957   6.775   0.314
14552TIP3    H243598   8.017   6.781   0.453
14553TIP3   OH243599   4.791   7.867   0.976
14553TIP3    H143600   4.776   7.905   0.889
14553TIP3    H243601   4.814   7.776   0.958
14554TIP3   OH243602   5.248   1.897   4.586
14554TIP3    H143603   5.194   1.879   4.663
14554TIP3    H243604   5.259   1.992   4.586
14555TIP3   OH243605   0.572   7.656   3.881
14555TIP3    H143606   0.635   7.692   3.819
14555TIP3    H243607   0.498   7.627   3.827
14556TIP3   OH243608   7.209   4.663   5.862
14556TIP3    H143609   7.224   4.747   5.820
14556TIP3    H243610   7.114   4.652   5.862
14557TIP3   OH243611   2.897   2.791   6.652
14557TIP3    H143612   2.840   2.715   6.642
14557TIP3    H243613   2.872   2.850   6.582
14558TIP3   OH243614   0.663   0.440   4.812
14558TIP3    H143615   0.618   0.523   4.825
14558TIP3    H243616   0.739   0.462   4.758
14559TIP3   OH243617   3.437   5.540   0.235
14559TIP3    H143618   3.457   5.451   0.264
14559TIP3    H243619   3.522   5.581   0.222
14560TIP3   OH243620   0.861  -0.013   3.585
14560TIP3    H143621   0.910   0.039   3.521
14560TIP3    H243622   0.830   0.052   3.649
14561TIP3   OH243623   4.872   7.145   1.470
14561TIP3    H143624   4.929   7.084   1.423
14561TIP3    H243625   4.922   7.168   1.549
14562TIP3   OH243626   3.514   1.985   5.923
14562TIP3    H143627   3.578   1.914   5.921
14562TIP3    H243628   3.464   1.971   6.003
14563TIP3   OH243629   7.246   5.171   1.650
14563TIP3    H143630   7.254   5.264   1.631
14563TIP3    H243631   7.159   5.163   1.690
14564TIP3   OH243632   4.615   6.774   0.209
14564TIP3    H143633   4.586   6.847   0.154
14564TIP3    H243634   4.698   6.804   0.247
14565TIP3   OH243635   0.858   3.846   4.509
14565TIP3    H143636   0.788   3.886   4.458
14565TIP3    H243637   0.913   3.801   4.444
14566TIP3   OH243638   3.052   7.270   4.327
14566TIP3    H143639   2.988   7.298   4.262
14566TIP3    H243640   3.009   7.200   4.375
14567TIP3   OH243641   7.212   6.334   4.877
14567TIP3    H143642   7.228   6.277   4.802
14567TIP3    H243643   7.129   6.378   4.857
14568TIP3   OH243644   1.634   2.114  -0.007
14568TIP3    H143645   1.648   2.186  -0.069
14568TIP3    H243646   1.658   2.150   0.078
14569TIP3   OH243647   2.231   7.449   3.102
14569TIP3    H143648   2.323   7.448   3.127
14569TIP3    H243649   2.187   7.400   3.171
14570TIP3   OH243650   3.711   0.740   6.466
14570TIP3    H143651   3.623   0.774   6.447
14570TIP3    H243652   3.771   0.802   6.425
14571TIP3   OH243653   6.856   6.274   5.339
14571TIP3    H143654   6.815   6.241   5.259
14571TIP3    H243655   6.912   6.345   5.309
14572TIP3   OH243656   1.191   0.254   2.502
14572TIP3    H143657   1.232   0.277   2.419
14572TIP3    H243658   1.101   0.231   2.479
14573TIP3   OH243659   2.382   4.930   4.753
14573TIP3    H143660   2.430   4.890   4.680
14573TIP3    H243661   2.406   4.877   4.829
14574TIP3   OH243662   7.406   6.670   3.282
14574TIP3    H143663   7.476   6.626   3.234
14574TIP3    H243664   7.336   6.683   3.218
14575TIP3   OH243665   3.243   7.473   0.993
14575TIP3    H143666   3.321   7.460   0.939
14575TIP3    H243667   3.174   7.426   0.946
14576TIP3   OH243668   7.181   3.662   6.027
14576TIP3    H143669   7.245   3.658   6.098
14576TIP3    H243670   7.121   3.732   6.052
14577TIP3   OH243671   3.477   3.956   3.583
14577TIP3    H143672   3.538   3.895   3.624
14577TIP3    H243673   3.455   3.916   3.499
14578TIP3   OH243674   3.247   2.533   3.214
14578TIP3    H143675   3.207   2.476   3.280
14578TIP3    H243676   3.293   2.600   3.264
14579TIP3   OH243677   7.760   4.723   5.650
14579TIP3    H143678   7.827   4.701   5.715
14579TIP3    H243679   7.726   4.638   5.621
14580TIP3   OH243680   0.124   2.723   4.821
14580TIP3    H143681   0.187   2.651   4.822
14580TIP3    H243682   0.136   2.764   4.735
14581TIP3   OH243683   1.829   2.612   4.756
14581TIP3    H143684   1.813   2.701   4.788
14581TIP3    H243685   1.923   2.610   4.737
14582TIP3   OH243686   0.708   0.142   3.785
14582TIP3    H143687   0.641   0.076   3.801
14582TIP3    H243688   0.662   0.225   3.800
14583TIP3   OH243689   0.627   6.018   1.430
14583TIP3    H143690   0.672   6.081   1.373
14583TIP3    H243691   0.602   6.069   1.507
14584TIP3   OH243692   6.794   2.613   2.520
14584TIP3    H143693   6.889   2.609   2.508
14584TIP3    H243694   6.766   2.682   2.460
14585TIP3   OH243695   0.175   2.436   4.071
14585TIP3    H143696   0.115   2.501   4.033
14585TIP3    H243697   0.261   2.461   4.038
14586TIP3   OH243698   3.254   5.587   2.893
14586TIP3    H143699   3.181   5.649   2.896
14586TIP3    H243700   3.331   5.639   2.916
14587TIP3   OH243701   0.599   6.763   3.836
14587TIP3    H143702   0.515   6.795   3.801
14587TIP3    H243703   0.607   6.809   3.920
14588TIP3   OH243704   7.812   6.067   3.072
14588TIP3    H143705   7.754   6.119   3.016
14588TIP3    H243706   7.764   5.985   3.085
14589TIP3   OH243707   3.089   2.581   4.551
14589TIP3    H143708   3.068   2.487   4.548
14589TIP3    H243709   3.069   2.608   4.640
14590TIP3   OH243710   2.621   3.431   0.562
14590TIP3    H143711   2.535   3.458   0.595
14590TIP3    H243712   2.603   3.359   0.503
14591TIP3   OH243713   5.497   7.346   2.458
14591TIP3    H143714   5.457   7.432   2.441
14591TIP3    H243715   5.483   7.298   2.376
14592TIP3   OH243716   5.500   0.602   4.355
14592TIP3    H143717   5.449   0.574   4.280
14592TIP3    H243718   5.569   0.536   4.364
14593TIP3   OH243719   5.578   3.392   4.009
14593TIP3    H143720   5.585   3.297   3.994
14593TIP3    H243721   5.610   3.405   4.098
14594TIP3   OH243722   5.632   0.376   0.099
14594TIP3    H143723   5.614   0.429   0.177
14594TIP3    H243724   5.699   0.314   0.127
14595TIP3   OH243725   2.066   2.604   5.938
14595TIP3    H143726   2.118   2.604   6.018
14595TIP3    H243727   2.129   2.587   5.868
14596TIP3   OH243728   3.440   0.759   2.722
14596TIP3    H143729   3.499   0.801   2.659
14596TIP3    H243730   3.359   0.746   2.674
14597TIP3   OH243731   5.332   4.757   5.434
14597TIP3    H143732   5.402   4.695   5.457
14597TIP3    H243733   5.376   4.842   5.432
14598TIP3   OH243734   6.113   1.842   5.354
14598TIP3    H143735   6.144   1.775   5.415
14598TIP3    H243736   6.107   1.797   5.269
14599TIP3   OH243737   6.733   2.076   1.157
14599TIP3    H143738   6.811   2.108   1.112
14599TIP3    H243739   6.745   1.982   1.162
14600TIP3   OH243740   3.790   2.918   1.934
14600TIP3    H143741   3.721   2.885   1.877
14600TIP3    H243742   3.806   2.847   1.997
14601TIP3   OH243743   4.887   0.798   1.271
14601TIP3    H143744   4.818   0.761   1.216
14601TIP3    H243745   4.843   0.817   1.354
14602TIP3   OH243746   0.992   6.044   3.591
14602TIP3    H143747   1.032   6.112   3.536
14602TIP3    H243748   0.904   6.033   3.554
14603TIP3   OH243749   2.699   0.099   0.998
14603TIP3    H143750   2.698   0.139   1.085
14603TIP3    H243751   2.770   0.143   0.952
14604TIP3   OH243752   5.239   1.962   0.115
14604TIP3    H143753   5.215   1.903   0.187
14604TIP3    H243754   5.177   1.941   0.045
14605TIP3   OH243755   2.695   4.977   2.794
14605TIP3    H143756   2.728   5.063   2.821
14605TIP3    H243757   2.602   4.979   2.818
14606TIP3   OH243758   3.843   3.615   3.191
14606TIP3    H143759   3.812   3.651   3.108
14606TIP3    H243760   3.781   3.545   3.212
14607TIP3   OH243761   4.208   1.483   3.238
14607TIP3    H143762   4.239   1.574   3.235
14607TIP3    H243763   4.184   1.464   3.147
14608TIP3   OH243764   7.967   3.132   4.388
14608TIP3    H143765   7.911   3.077   4.333
14608TIP3    H243766   7.985   3.078   4.465
14609TIP3   OH243767   7.277   1.247   2.933
14609TIP3    H143768   7.345   1.242   3.000
14609TIP3    H243769   7.196   1.264   2.981
14610TIP3   OH243770   7.756   0.906   3.744
14610TIP3    H143771   7.793   0.886   3.658
14610TIP3    H243772   7.832   0.925   3.799
14611TIP3   OH243773   2.429   4.986   2.879
14611TIP3    H143774   2.407   4.908   2.828
14611TIP3    H243775   2.352   5.044   2.869
14612TIP3   OH243776   2.329   7.795   4.596
14612TIP3    H143777   2.317   7.705   4.625
14612TIP3    H243778   2.241   7.826   4.575
14613TIP3   OH243779   7.644   3.319   0.029
14613TIP3    H143780   7.624   3.410   0.007
14613TIP3    H243781   7.739   3.316   0.033
14614TIP3   OH243782   2.998   3.772   2.068
14614TIP3    H143783   2.950   3.855   2.059
14614TIP3    H243784   3.063   3.775   1.998
14615TIP3   OH243785   4.741   3.091   5.665
14615TIP3    H143786   4.648   3.108   5.652
14615TIP3    H243787   4.753   3.001   5.634
14616TIP3   OH243788   4.816   0.309   6.419
14616TIP3    H143789   4.819   0.222   6.458
14616TIP3    H243790   4.757   0.300   6.345
14617TIP3   OH243791   7.552   2.635   2.924
14617TIP3    H143792   7.469   2.678   2.944
14617TIP3    H243793   7.561   2.567   2.991
14618TIP3   OH243794   1.957   3.790   4.070
14618TIP3    H143795   1.894   3.856   4.040
14618TIP3    H243796   1.973   3.735   3.993
14619TIP3   OH243797   4.155   5.651   5.587
14619TIP3    H143798   4.168   5.670   5.494
14619TIP3    H243799   4.087   5.712   5.615
14620TIP3   OH243800   2.280   0.114   0.543
14620TIP3    H143801   2.234   0.137   0.624
14620TIP3    H243802   2.212   0.077   0.487
14621TIP3   OH243803   6.264   1.802   2.985
14621TIP3    H143804   6.349   1.825   3.021
14621TIP3    H243805   6.276   1.806   2.890
14622TIP3   OH243806   4.444   0.687   1.348
14622TIP3    H143807   4.454   0.637   1.429
14622TIP3    H243808   4.383   0.757   1.370
14623TIP3   OH243809   5.729   1.988   2.376
14623TIP3    H143810   5.671   1.940   2.317
14623TIP3    H243811   5.671   2.021   2.444
14624TIP3   OH243812   1.306   6.137   3.103
14624TIP3    H143813   1.260   6.061   3.140
14624TIP3    H243814   1.278   6.139   3.011
14625TIP3   OH243815   6.982   2.314   5.945
14625TIP3    H143816   7.074   2.319   5.972
14625TIP3    H243817   6.934   2.304   6.027
14626TIP3   OH243818   7.958   0.675   5.899
14626TIP3    H143819   7.898   0.743   5.869
14626TIP3    H243820   7.959   0.685   5.994
14627TIP3   OH243821   6.671   2.608   3.927
14627TIP3    H143822   6.729   2.573   3.860
14627TIP3    H243823   6.729   2.646   3.993
14628TIP3   OH243824   4.491   0.634   4.073
14628TIP3    H143825   4.421   0.612   4.010
14628TIP3    H243826   4.468   0.585   4.151
14629TIP3   OH243827   5.865   4.348   3.782
14629TIP3    H143828   5.856   4.350   3.877
14629TIP3    H243829   5.882   4.256   3.762
14630TIP3   OH243830   3.985   6.320   6.066
14630TIP3    H143831   4.003   6.378   5.992
14630TIP3    H243832   3.959   6.379   6.137
14631TIP3   OH243833   8.154   4.467   1.438
14631TIP3    H143834   8.113   4.532   1.381
14631TIP3    H243835   8.164   4.389   1.382
14632TIP3   OH243836   4.933   5.594   4.107
14632TIP3    H143837   4.931   5.625   4.197
14632TIP3    H243838   4.961   5.503   4.113
14633TIP3   OH243839   5.905   1.524   5.024
14633TIP3    H143840   5.819   1.541   4.986
14633TIP3    H243841   5.888   1.464   5.097
14634TIP3   OH243842   2.404   0.538   0.923
14634TIP3    H143843   2.351   0.516   0.847
14634TIP3    H243844   2.429   0.453   0.960
14635TIP3   OH243845   1.568   2.057   5.000
14635TIP3    H143846   1.537   1.971   4.971
14635TIP3    H243847   1.589   2.104   4.919
14636TIP3   OH243848   2.412   5.083   3.791
14636TIP3    H143849   2.378   5.110   3.876
14636TIP3    H243850   2.335   5.073   3.736
14637TIP3   OH243851   4.004   2.360   4.394
14637TIP3    H143852   4.015   2.288   4.456
14637TIP3    H243853   3.990   2.317   4.310
14638TIP3   OH243854   7.135   3.114   3.435
14638TIP3    H143855   7.091   3.034   3.407
14638TIP3    H243856   7.171   3.092   3.521
14639TIP3   OH243857   5.240   4.095   6.744
14639TIP3    H143858   5.274   4.018   6.698
14639TIP3    H243859   5.295   4.103   6.822
14640TIP3   OH243860   4.525   5.860   2.470
14640TIP3    H143861   4.541   5.948   2.433
14640TIP3    H243862   4.613   5.825   2.488
14641TIP3   OH243863   4.747   6.681   5.794
14641TIP3    H143864   4.769   6.651   5.882
14641TIP3    H243865   4.664   6.727   5.805
14642TIP3   OH243866   4.530   7.609   4.704
14642TIP3    H143867   4.611   7.605   4.653
14642TIP3    H243868   4.492   7.695   4.683
14643TIP3   OH243869   8.126   2.741   2.589
14643TIP3    H143870   8.157   2.716   2.503
14643TIP3    H243871   8.030   2.738   2.582
14644TIP3   OH243872   2.952   7.532   0.069
14644TIP3    H143873   2.944   7.518   0.163
14644TIP3    H243874   2.981   7.448   0.034
14645TIP3   OH243875   2.836   5.377   2.007
14645TIP3    H143876   2.849   5.449   1.946
14645TIP3    H243877   2.913   5.379   2.064
14646TIP3   OH243878   4.603   5.243   0.238
14646TIP3    H143879   4.595   5.336   0.218
14646TIP3    H243880   4.583   5.199   0.155
14647TIP3   OH243881   7.506   7.118   6.316
14647TIP3    H143882   7.581   7.070   6.351
14647TIP3    H243883   7.431   7.088   6.368
14648TIP3   OH243884   3.429   3.123   0.717
14648TIP3    H143885   3.485   3.108   0.794
14648TIP3    H243886   3.471   3.073   0.647
14649TIP3   OH243887   7.264   0.665   3.135
14649TIP3    H143888   7.182   0.677   3.088
14649TIP3    H243889   7.252   0.715   3.216
14650TIP3   OH243890   7.561   7.121   2.587
14650TIP3    H143891   7.507   7.196   2.564
14650TIP3    H243892   7.551   7.060   2.514
14651TIP3   OH243893   4.397   4.057   2.047
14651TIP3    H143894   4.307   4.057   2.015
14651TIP3    H243895   4.392   4.101   2.132
14652TIP3   OH243896   2.276   3.072   3.278
14652TIP3    H143897   2.213   3.060   3.206
14652TIP3    H243898   2.351   3.019   3.253
14653TIP3   OH243899   7.927   2.923   6.045
14653TIP3    H143900   7.865   2.997   6.047
14653TIP3    H243901   7.945   2.906   6.138
14654TIP3   OH243902   0.256   1.731   3.554
14654TIP3    H143903   0.233   1.685   3.634
14654TIP3    H243904   0.308   1.668   3.504
14655TIP3   OH243905   1.502   7.752   0.091
14655TIP3    H143906   1.514   7.722   0.181
14655TIP3    H243907   1.573   7.815   0.077
14656TIP3   OH243908   3.085   7.251   0.837
14656TIP3    H143909   3.035   7.232   0.916
14656TIP3    H243910   3.093   7.166   0.793
14657TIP3   OH243911   6.310   7.033   4.457
14657TIP3    H143912   6.295   6.945   4.490
14657TIP3    H243913   6.405   7.044   4.460
14658TIP3   OH243914   3.089   3.816   2.504
14658TIP3    H143915   3.005   3.859   2.517
14658TIP3    H243916   3.069   3.736   2.456
14659TIP3   OH243917   3.110   7.289   1.685
14659TIP3    H143918   3.064   7.216   1.643
14659TIP3    H243919   3.099   7.274   1.778
14660TIP3   OH243920   6.281   7.472   3.177
14660TIP3    H143921   6.218   7.532   3.137
14660TIP3    H243922   6.246   7.456   3.265
14661TIP3   OH243923   4.945   1.879   2.299
14661TIP3    H143924   4.999   1.942   2.251
14661TIP3    H243925   4.864   1.872   2.248
14662TIP3   OH243926   5.876   3.065   3.860
14662TIP3    H143927   5.902   3.092   3.948
14662TIP3    H243928   5.803   3.005   3.874
14663TIP3   OH243929   6.789   7.555   5.409
14663TIP3    H143930   6.713   7.590   5.454
14663TIP3    H243931   6.791   7.462   5.433
14664TIP3   OH243932   6.307   1.841   1.690
14664TIP3    H143933   6.307   1.870   1.781
14664TIP3    H243934   6.216   1.817   1.673
14665TIP3   OH243935   2.027   2.524   2.148
14665TIP3    H143936   2.051   2.433   2.128
14665TIP3    H243937   1.983   2.554   2.068
14666TIP3   OH243938   2.875   6.419   4.712
14666TIP3    H143939   2.956   6.437   4.665
14666TIP3    H243940   2.890   6.454   4.800
14667TIP3   OH243941   2.547   5.066   2.566
14667TIP3    H143942   2.618   5.100   2.620
14667TIP3    H243943   2.556   4.971   2.572
14668TIP3   OH243944   0.642   1.018   3.037
14668TIP3    H143945   0.599   1.083   2.982
14668TIP3    H243946   0.660   0.945   2.978
14669TIP3   OH243947   6.534   6.965   0.909
14669TIP3    H143948   6.441   6.985   0.904
14669TIP3    H243949   6.541   6.872   0.888
14670TIP3   OH243950   6.163   6.173   6.570
14670TIP3    H143951   6.102   6.231   6.526
14670TIP3    H243952   6.229   6.231   6.608
14671TIP3   OH243953   7.805   4.374   4.762
14671TIP3    H143954   7.777   4.442   4.702
14671TIP3    H243955   7.881   4.334   4.720
14672TIP3   OH243956   7.522   3.202   6.388
14672TIP3    H143957   7.593   3.186   6.326
14672TIP3    H243958   7.562   3.250   6.460
14673TIP3   OH243959   6.472   1.718   5.076
14673TIP3    H143960   6.486   1.634   5.119
14673TIP3    H243961   6.560   1.751   5.057
14674TIP3   OH243962   4.340   6.375   3.499
14674TIP3    H143963   4.416   6.318   3.516
14674TIP3    H243964   4.364   6.459   3.537
14675TIP3   OH243965   6.075   7.583   2.333
14675TIP3    H143966   6.093   7.493   2.305
14675TIP3    H243967   5.991   7.605   2.293
14676TIP3   OH243968   1.956   1.097   6.707
14676TIP3    H143969   2.008   1.177   6.717
14676TIP3    H243970   2.018   1.031   6.676
14677TIP3   OH243971   7.139   1.298   5.073
14677TIP3    H143972   7.207   1.364   5.061
14677TIP3    H243973   7.124   1.264   4.984
14678TIP3   OH243974   7.251   1.432   6.150
14678TIP3    H143975   7.304   1.407   6.075
14678TIP3    H243976   7.313   1.464   6.215
14679TIP3   OH243977   7.874   0.238   5.720
14679TIP3    H143978   7.940   0.244   5.651
14679TIP3    H243979   7.835   0.152   5.707
14680TIP3   OH243980   4.682   0.528   6.534
14680TIP3    H143981   4.700   0.437   6.511
14680TIP3    H243982   4.664   0.525   6.628
14681TIP3   OH243983   6.772   0.554   1.164
14681TIP3    H143984   6.690   0.603   1.173
14681TIP3    H243985   6.838   0.621   1.145
14682TIP3   OH243986   7.475   1.554   2.404
14682TIP3    H143987   7.528   1.532   2.327
14682TIP3    H243988   7.517   1.631   2.442
14683TIP3   OH243989   7.710   4.599   6.401
14683TIP3    H143990   7.664   4.524   6.363
14683TIP3    H243991   7.656   4.625   6.476
14684TIP3   OH243992   5.096   0.305   6.424
14684TIP3    H143993   5.001   0.303   6.422
14684TIP3    H243994   5.119   0.320   6.515
14685TIP3   OH243995   1.397   6.647   3.554
14685TIP3    H143996   1.427   6.605   3.473
14685TIP3    H243997   1.373   6.575   3.611
14686TIP3   OH243998   4.085   6.356   3.208
14686TIP3    H143999   4.073   6.356   3.302
14686TIP3    H244000   4.174   6.388   3.195
14687TIP3   OH244001   5.972   1.442   5.980
14687TIP3    H144002   5.970   1.537   5.976
14687TIP3    H244003   5.924   1.420   6.060
14688TIP3   OH244004   5.463   1.831   5.696
14688TIP3    H144005   5.372   1.851   5.718
14688TIP3    H244006   5.484   1.892   5.625
14689TIP3   OH244007   3.273   1.247   0.506
14689TIP3    H144008   3.335   1.263   0.435
14689TIP3    H244009   3.270   1.152   0.515
14690TIP3   OH244010   8.323   7.732   6.147
14690TIP3    H144011   8.414   7.703   6.157
14690TIP3    H244012   8.325   7.824   6.172
14691TIP3   OH244013   6.957   5.405   6.524
14691TIP3    H144014   6.993   5.490   6.501
14691TIP3    H244015   6.961   5.355   6.443
14692TIP3   OH244016   4.272   5.806   5.345
14692TIP3    H144017   4.226   5.865   5.405
14692TIP3    H244018   4.353   5.852   5.325
14693TIP3   OH244019   1.045   5.453   2.295
14693TIP3    H144020   1.007   5.481   2.211
14693TIP3    H244021   1.014   5.519   2.357
14694TIP3   OH244022   5.758   7.613   6.074
14694TIP3    H144023   5.663   7.615   6.082
14694TIP3    H244024   5.786   7.702   6.099
14695TIP3   OH244025   1.031   5.939   2.815
14695TIP3    H144026   0.945   5.899   2.817
14695TIP3    H244027   1.089   5.874   2.856
14696TIP3   OH244028   5.419   0.607   3.110
14696TIP3    H144029   5.366   0.596   3.031
14696TIP3    H244030   5.505   0.637   3.078
14697TIP3   OH244031   4.569   6.805   2.195
14697TIP3    H144032   4.476   6.821   2.180
14697TIP3    H244033   4.582   6.823   2.289
14698TIP3   OH244034   0.217   7.160   0.341
14698TIP3    H144035   0.218   7.069   0.372
14698TIP3    H244036   0.242   7.154   0.249
14699TIP3   OH244037   5.946   7.241   2.738
14699TIP3    H144038   5.860   7.227   2.698
14699TIP3    H244039   5.940   7.327   2.779
14700TIP3   OH244040   4.898   7.207   4.228
14700TIP3    H144041   4.903   7.303   4.230
14700TIP3    H244042   4.955   7.179   4.299
14701TIP3   OH244043   2.665   5.247   2.752
14701TIP3    H144044   2.720   5.317   2.718
14701TIP3    H244045   2.577   5.284   2.754
14702TIP3   OH244046   5.351   4.044   2.651
14702TIP3    H144047   5.347   4.084   2.738
14702TIP3    H244048   5.290   4.096   2.598
14703TIP3   OH244049   3.074   1.370   3.775
14703TIP3    H144050   3.067   1.302   3.842
14703TIP3    H244051   3.100   1.449   3.824
14704TIP3   OH244052   6.185   5.450   0.761
14704TIP3    H144053   6.155   5.374   0.812
14704TIP3    H244054   6.115   5.466   0.698
14705TIP3   OH244055   3.370   7.488   5.341
14705TIP3    H144056   3.326   7.459   5.262
14705TIP3    H244057   3.368   7.584   5.337
14706TIP3   OH244058   2.973   1.486   5.474
14706TIP3    H144059   3.051   1.538   5.492
14706TIP3    H244060   2.990   1.402   5.517
14707TIP3   OH244061   5.403   6.666   6.818
14707TIP3    H144062   5.420   6.622   6.901
14707TIP3    H244063   5.480   6.647   6.765
14708TIP3   OH244064   4.241   4.248   5.261
14708TIP3    H144065   4.285   4.202   5.190
14708TIP3    H244066   4.150   4.258   5.232
14709TIP3   OH244067   8.172   1.549   5.249
14709TIP3    H144068   8.162   1.507   5.164
14709TIP3    H244069   8.266   1.564   5.259
14710TIP3   OH244070   6.531   5.085   3.595
14710TIP3    H144071   6.580   5.049   3.669
14710TIP3    H244072   6.587   5.155   3.561
14711TIP3   OH244073   8.261   2.949   0.644
14711TIP3    H144074   8.349   2.916   0.627
14711TIP3    H244075   8.227   2.971   0.557
14712TIP3   OH244076   2.541   7.116   0.378
14712TIP3    H144077   2.583   7.088   0.297
14712TIP3    H244078   2.613   7.152   0.431
14713TIP3   OH244079   1.197   0.409   1.484
14713TIP3    H144080   1.241   0.361   1.414
14713TIP3    H244081   1.152   0.481   1.439
14714TIP3   OH244082   3.248   6.365   0.634
14714TIP3    H144083   3.201   6.414   0.701
14714TIP3    H244084   3.207   6.279   0.632
14715TIP3   OH244085   2.999   3.609   4.799
14715TIP3    H144086   3.080   3.624   4.848
14715TIP3    H244087   2.929   3.633   4.860
14716TIP3   OH244088   7.765   3.801   2.846
14716TIP3    H144089   7.744   3.715   2.809
14716TIP3    H244090   7.852   3.821   2.812
14717TIP3   OH244091   6.227   3.122   2.375
14717TIP3    H144092   6.292   3.145   2.308
14717TIP3    H244093   6.202   3.207   2.413
14718TIP3   OH244094   8.397   5.830   6.041
14718TIP3    H144095   8.319   5.822   5.986
14718TIP3    H244096   8.364   5.864   6.124
14719TIP3   OH244097   5.205   7.500   6.636
14719TIP3    H144098   5.166   7.519   6.722
14719TIP3    H244099   5.235   7.410   6.642
14720TIP3   OH244100   3.876   4.112   1.788
14720TIP3    H144101   3.937   4.111   1.861
14720TIP3    H244102   3.931   4.122   1.710
14721TIP3   OH244103   6.984   7.158   4.006
14721TIP3    H144104   6.953   7.146   4.095
14721TIP3    H244105   7.069   7.114   4.004
14722TIP3   OH244106   4.496   7.768   0.273
14722TIP3    H144107   4.589   7.762   0.252
14722TIP3    H244108   4.494   7.776   0.368
14723TIP3   OH244109   3.831   0.709   0.742
14723TIP3    H144110   3.888   0.636   0.717
14723TIP3    H244111   3.869   0.743   0.822
14724TIP3   OH244112   3.231   4.381   2.859
14724TIP3    H144113   3.146   4.415   2.886
14724TIP3    H244114   3.241   4.410   2.768
14725TIP3   OH244115   3.456   5.426   0.596
14725TIP3    H144116   3.541   5.455   0.627
14725TIP3    H244117   3.404   5.413   0.676
14726TIP3   OH244118   2.676   6.694   4.805
14726TIP3    H144119   2.693   6.611   4.850
14726TIP3    H244120   2.626   6.669   4.728
14727TIP3   OH244121   1.190   0.212   6.408
14727TIP3    H144122   1.239   0.149   6.354
14727TIP3    H244123   1.123   0.159   6.451
14728TIP3   OH244124   5.016   4.185   1.109
14728TIP3    H144125   4.975   4.263   1.071
14728TIP3    H244126   4.944   4.140   1.153
14729TIP3   OH244127   6.075   3.111   5.727
14729TIP3    H144128   6.009   3.047   5.700
14729TIP3    H244129   6.030   3.196   5.721
14730TIP3   OH244130   5.258   0.192   2.829
14730TIP3    H144131   5.206   0.144   2.765
14730TIP3    H244132   5.348   0.166   2.810
14731TIP3   OH244133   6.164   5.438   2.919
14731TIP3    H144134   6.252   5.432   2.956
14731TIP3    H244135   6.142   5.349   2.895
14732TIP3   OH244136   1.434   2.875   0.799
14732TIP3    H144137   1.471   2.809   0.741
14732TIP3    H244138   1.510   2.916   0.841
14733TIP3   OH244139   5.064   6.240   6.351
14733TIP3    H144140   5.079   6.146   6.347
14733TIP3    H244141   5.035   6.256   6.441
14734TIP3   OH244142   7.998   0.249   2.506
14734TIP3    H144143   7.996   0.271   2.599
14734TIP3    H244144   8.087   0.267   2.478
14735TIP3   OH244145   7.409   4.059   3.761
14735TIP3    H144146   7.376   4.145   3.787
14735TIP3    H244147   7.478   4.077   3.697
14736TIP3   OH244148   5.749   3.531   5.522
14736TIP3    H144149   5.811   3.494   5.584
14736TIP3    H244150   5.677   3.467   5.519
14737TIP3   OH244151   3.735   0.070   1.025
14737TIP3    H144152   3.645   0.040   1.025
14737TIP3    H244153   3.765   0.057   0.935
14738TIP3   OH244154   3.854   2.723   3.849
14738TIP3    H144155   3.866   2.784   3.922
14738TIP3    H244156   3.896   2.768   3.775
14739TIP3   OH244157   8.126   6.854   0.078
14739TIP3    H144158   8.132   6.779   0.136
14739TIP3    H244159   8.109   6.816  -0.009
14740TIP3   OH244160   6.653   6.021   1.639
14740TIP3    H144161   6.614   6.031   1.725
14740TIP3    H244162   6.643   6.106   1.597
14741TIP3   OH244163   1.850   2.588   1.902
14741TIP3    H144164   1.889   2.673   1.883
14741TIP3    H244165   1.831   2.551   1.816
14742TIP3   OH244166   5.600   1.110   2.822
14742TIP3    H144167   5.603   1.126   2.727
14742TIP3    H244168   5.512   1.075   2.837
14743TIP3   OH244169   0.096   6.910   5.730
14743TIP3    H144170   0.154   6.943   5.662
14743TIP3    H244171   0.149   6.911   5.810
14744TIP3   OH244172   7.587   4.038   2.817
14744TIP3    H144173   7.562   3.996   2.899
14744TIP3    H244174   7.588   3.967   2.753
14745TIP3   OH244175   7.489   6.686   5.153
14745TIP3    H144176   7.443   6.728   5.080
14745TIP3    H244177   7.550   6.625   5.111
14746TIP3   OH244178   5.217   2.204   1.887
14746TIP3    H144179   5.289   2.205   1.950
14746TIP3    H244180   5.246   2.261   1.816
14747TIP3   OH244181   3.584   1.528   0.999
14747TIP3    H144182   3.659   1.586   1.012
14747TIP3    H244183   3.584   1.508   0.906
14748TIP3   OH244184   7.803   2.971   4.889
14748TIP3    H144185   7.832   3.055   4.851
14748TIP3    H244186   7.880   2.939   4.936
14749TIP3   OH244187   3.900   5.670   3.329
14749TIP3    H144188   3.881   5.631   3.414
14749TIP3    H244189   3.912   5.763   3.347
14750TIP3   OH244190   5.209   7.110   0.889
14750TIP3    H144191   5.178   7.198   0.868
14750TIP3    H244192   5.279   7.094   0.825
14751TIP3   OH244193   7.716   7.901   0.370
14751TIP3    H144194   7.682   7.817   0.402
14751TIP3    H244195   7.651   7.931   0.307
14752TIP3   OH244196   4.977   7.445   4.035
14752TIP3    H144197   4.894   7.453   4.082
14752TIP3    H244198   4.963   7.494   3.954
14753TIP3   OH244199   0.057   1.177   2.744
14753TIP3    H144200  -0.013   1.112   2.745
14753TIP3    H244201   0.112   1.153   2.669
14754TIP3   OH244202   4.762   2.274   3.840
14754TIP3    H144203   4.772   2.233   3.754
14754TIP3    H244204   4.705   2.215   3.889
14755TIP3   OH244205   4.862   3.398   3.718
14755TIP3    H144206   4.894   3.340   3.649
14755TIP3    H244207   4.932   3.463   3.730
14756TIP3   OH244208   6.060   5.895   3.584
14756TIP3    H144209   6.096   5.911   3.497
14756TIP3    H244210   6.062   5.981   3.627
14757TIP3   OH244211   0.688   6.401   3.284
14757TIP3    H144212   0.732   6.330   3.331
14757TIP3    H244213   0.630   6.441   3.349
14758TIP3   OH244214   4.409   0.579   5.705
14758TIP3    H144215   4.411   0.675   5.712
14758TIP3    H244216   4.315   0.557   5.705
14759TIP3   OH244217   5.412   7.018   5.921
14759TIP3    H144218   5.340   7.080   5.927
14759TIP3    H244219   5.484   7.058   5.971
14760TIP3   OH244220   0.501   6.140   2.370
14760TIP3    H144221   0.572   6.131   2.306
14760TIP3    H244222   0.533   6.205   2.432
14761TIP3   OH244223   3.548   7.155   3.427
14761TIP3    H144224   3.547   7.131   3.334
14761TIP3    H244225   3.518   7.246   3.429
14762TIP3   OH244226   2.545   1.361   6.099
14762TIP3    H144227   2.526   1.450   6.068
14762TIP3    H244228   2.459   1.321   6.112
14763TIP3   OH244229   6.369   2.673   0.480
14763TIP3    H144230   6.445   2.703   0.530
14763TIP3    H244231   6.392   2.583   0.454
14764TIP3   OH244232   1.647   4.193   2.011
14764TIP3    H144233   1.653   4.138   1.933
14764TIP3    H244234   1.560   4.174   2.047
14765TIP3   OH244235   6.250   7.476   5.391
14765TIP3    H144236   6.188   7.409   5.419
14765TIP3    H244237   6.219   7.504   5.305
14766TIP3   OH244238   8.107   1.711   1.314
14766TIP3    H144239   8.146   1.772   1.251
14766TIP3    H244240   8.022   1.749   1.335
14767TIP3   OH244241   1.081   2.874   5.383
14767TIP3    H144242   1.037   2.959   5.388
14767TIP3    H244243   1.035   2.820   5.448
14768TIP3   OH244244   8.226   4.087   3.329
14768TIP3    H144245   8.137   4.068   3.299
14768TIP3    H244246   8.226   4.181   3.348
14769TIP3   OH244247   0.331   3.256   1.613
14769TIP3    H144248   0.256   3.204   1.642
14769TIP3    H244249   0.368   3.292   1.693
14770TIP3   OH244250   3.454   1.667   2.901
14770TIP3    H144251   3.458   1.596   2.966
14770TIP3    H244252   3.363   1.664   2.870
14771TIP3   OH244253   2.858   6.913   5.852
14771TIP3    H144254   2.916   6.879   5.784
14771TIP3    H244255   2.821   6.993   5.814
14772TIP3   OH244256   0.808   7.646   5.877
14772TIP3    H144257   0.879   7.592   5.844
14772TIP3    H244258   0.780   7.698   5.801
14773TIP3   OH244259   1.557   5.986   4.761
14773TIP3    H144260   1.632   5.929   4.746
14773TIP3    H244261   1.559   6.048   4.688
14774TIP3   OH244262   5.058   2.754   6.327
14774TIP3    H144263   5.016   2.703   6.397
14774TIP3    H244264   4.989   2.814   6.297
14775TIP3   OH244265   0.272   5.536   2.783
14775TIP3    H144266   0.334   5.595   2.826
14775TIP3    H244267   0.287   5.451   2.824
14776TIP3   OH244268   8.043   7.040   6.014
14776TIP3    H144269   8.111   6.991   5.967
14776TIP3    H244270   8.024   7.114   5.957
14777TIP3   OH244271   5.626   1.814   4.914
14777TIP3    H144272   5.550   1.857   4.874
14777TIP3    H244273   5.611   1.720   4.898
14778TIP3   OH244274   0.929   6.670   5.180
14778TIP3    H144275   0.924   6.574   5.187
14778TIP3    H244276   0.959   6.698   5.266
14779TIP3   OH244277   1.066   2.685   2.673
14779TIP3    H144278   1.113   2.651   2.749
14779TIP3    H244279   1.054   2.778   2.692
14780TIP3   OH244280   2.214   7.201   0.170
14780TIP3    H144281   2.266   7.248   0.235
14780TIP3    H244282   2.263   7.212   0.088
14781TIP3   OH244283   5.957   6.296   2.356
14781TIP3    H144284   5.893   6.350   2.309
14781TIP3    H244285   5.928   6.299   2.448
14782TIP3   OH244286   0.740   4.243   0.108
14782TIP3    H144287   0.827   4.219   0.138
14782TIP3    H244288   0.734   4.337   0.125
14783TIP3   OH244289   2.756   5.612   2.856
14783TIP3    H144290   2.750   5.552   2.930
14783TIP3    H244291   2.666   5.639   2.840
14784TIP3   OH244292   4.585   5.178   5.175
14784TIP3    H144293   4.663   5.146   5.219
14784TIP3    H244294   4.537   5.099   5.150
14785TIP3   OH244295   4.703   5.201   1.574
14785TIP3    H144296   4.670   5.179   1.661
14785TIP3    H244297   4.666   5.134   1.516
14786TIP3   OH244298   3.974   1.267   6.285
14786TIP3    H144299   4.029   1.304   6.354
14786TIP3    H244300   3.969   1.335   6.218
14787TIP3   OH244301   2.487   1.091   1.509
14787TIP3    H144302   2.446   1.163   1.461
14787TIP3    H244303   2.469   1.109   1.601
14788TIP3   OH244304   6.248   5.073   0.763
14788TIP3    H144305   6.343   5.072   0.753
14788TIP3    H244306   6.233   5.081   0.857
14789TIP3   OH244307   4.222   6.344   0.930
14789TIP3    H144308   4.252   6.341   1.021
14789TIP3    H244309   4.261   6.266   0.890
14790TIP3   OH244310   1.328   7.450   5.185
14790TIP3    H144311   1.253   7.510   5.187
14790TIP3    H244312   1.362   7.452   5.274
14791TIP3   OH244313   6.813   7.759   4.647
14791TIP3    H144314   6.892   7.759   4.594
14791TIP3    H244315   6.743   7.788   4.587
14792TIP3   OH244316   4.234   5.859   3.170
14792TIP3    H144317   4.283   5.940   3.182
14792TIP3    H244318   4.213   5.856   3.077
14793TIP3   OH244319   7.476   5.601   1.772
14793TIP3    H144320   7.538   5.667   1.740
14793TIP3    H244321   7.392   5.646   1.775
14794TIP3   OH244322   6.867   5.522   6.751
14794TIP3    H144323   6.960   5.512   6.769
14794TIP3    H244324   6.854   5.479   6.667
14795TIP3   OH244325   3.287   7.307   3.722
14795TIP3    H144326   3.233   7.285   3.798
14795TIP3    H244327   3.243   7.381   3.682
14796TIP3   OH244328   8.149   4.001   1.186
14796TIP3    H144329   8.154   4.037   1.275
14796TIP3    H244330   8.153   3.907   1.198
14797TIP3   OH244331   2.679   2.245   6.270
14797TIP3    H144332   2.751   2.182   6.275
14797TIP3    H244333   2.647   2.240   6.180
14798TIP3   OH244334   3.624   7.472   4.205
14798TIP3    H144335   3.561   7.412   4.165
14798TIP3    H244336   3.576   7.513   4.277
14799TIP3   OH244337   8.015   3.686   3.922
14799TIP3    H144338   8.069   3.611   3.899
14799TIP3    H244339   7.966   3.657   3.999
14800TIP3   OH244340   2.882   3.349   5.280
14800TIP3    H144341   2.853   3.294   5.353
14800TIP3    H244342   2.876   3.294   5.203
14801TIP3   OH244343   0.533   7.285   0.522
14801TIP3    H144344   0.465   7.344   0.491
14801TIP3    H244345   0.492   7.235   0.593
14802TIP3   OH244346   2.072   4.800   5.358
14802TIP3    H144347   2.118   4.738   5.415
14802TIP3    H244348   2.039   4.867   5.418
14803TIP3   OH244349   5.648   6.469   5.626
14803TIP3    H144350   5.645   6.508   5.713
14803TIP3    H244351   5.581   6.515   5.575
14804TIP3   OH244352   4.656   3.299   3.065
14804TIP3    H144353   4.620   3.214   3.090
14804TIP3    H244354   4.652   3.352   3.144
14805TIP3   OH244355   1.750   0.327   0.324
14805TIP3    H144356   1.794   0.385   0.386
14805TIP3    H244357   1.744   0.378   0.243
14806TIP3   OH244358   3.017   2.038   0.603
14806TIP3    H144359   2.987   1.952   0.634
14806TIP3    H244360   3.060   2.077   0.679
14807TIP3   OH244361   8.031   0.427   2.090
14807TIP3    H144362   8.046   0.425   1.995
14807TIP3    H244363   8.050   0.337   2.118
14808TIP3   OH244364   0.027   7.166   1.289
14808TIP3    H144365   0.108   7.184   1.336
14808TIP3    H244366  -0.013   7.252   1.277
14809TIP3   OH244367   2.795   6.036   1.621
14809TIP3    H144368   2.786   6.124   1.584
14809TIP3    H244369   2.774   5.978   1.548
14810TIP3   OH244370   0.511   2.760   6.102
14810TIP3    H144371   0.547   2.844   6.073
14810TIP3    H244372   0.508   2.767   6.198
14811TIP3   OH244373   6.039   0.076   5.095
14811TIP3    H144374   6.054   0.069   5.189
14811TIP3    H244375   6.081  -0.001   5.058
14812TIP3   OH244376   2.002   0.106   6.568
14812TIP3    H144377   2.009   0.164   6.493
14812TIP3    H244378   2.090   0.068   6.577
14813TIP3   OH244379   8.027   0.519   3.756
14813TIP3    H144380   7.951   0.518   3.698
14813TIP3    H244381   8.061   0.429   3.753
14814TIP3   OH244382   1.049   0.162   4.876
14814TIP3    H144383   0.953   0.162   4.868
14814TIP3    H244384   1.071   0.070   4.892
14815TIP3   OH244385   1.209   5.644   1.108
14815TIP3    H144386   1.205   5.673   1.017
14815TIP3    H244387   1.130   5.680   1.148
14816TIP3   OH244388   4.106   4.465   5.414
14816TIP3    H144389   4.105   4.483   5.321
14816TIP3    H244390   4.057   4.383   5.424
14817TIP3   OH244391   3.652   7.793   3.775
14817TIP3    H144392   3.701   7.866   3.737
14817TIP3    H244393   3.712   7.753   3.837
14818TIP3   OH244394   1.903   3.255   5.165
14818TIP3    H144395   1.835   3.240   5.231
14818TIP3    H244396   1.927   3.168   5.134
14819TIP3   OH244397   1.293   3.190   0.946
14819TIP3    H144398   1.281   3.285   0.952
14819TIP3    H244399   1.206   3.156   0.924
14820TIP3   OH244400   7.359   7.370   3.628
14820TIP3    H144401   7.331   7.461   3.631
14820TIP3    H244402   7.345   7.337   3.717
14821TIP3   OH244403   3.175   7.178   5.126
14821TIP3    H144404   3.193   7.272   5.117
14821TIP3    H244405   3.205   7.156   5.214
14822TIP3   OH244406   6.371   1.648   4.502
14822TIP3    H144407   6.284   1.643   4.462
14822TIP3    H244408   6.362   1.599   4.584
14823TIP3   OH244409   1.563   7.607   1.706
14823TIP3    H144410   1.495   7.630   1.770
14823TIP3    H244411   1.579   7.688   1.658
14824TIP3   OH244412   8.202   1.932   1.488
14824TIP3    H144413   8.167   1.844   1.473
14824TIP3    H244414   8.171   1.984   1.414
14825TIP3   OH244415   2.135   7.100   5.986
14825TIP3    H144416   2.230   7.105   5.996
14825TIP3    H244417   2.101   7.138   6.067
14826TIP3   OH244418   1.529   0.513   3.187
14826TIP3    H144419   1.499   0.555   3.267
14826TIP3    H244420   1.455   0.461   3.157
14827TIP3   OH244421   6.327   2.113   6.793
14827TIP3    H144422   6.280   2.159   6.863
14827TIP3    H244423   6.407   2.165   6.780
14828TIP3   OH244424   6.520   1.363   2.494
14828TIP3    H144425   6.577   1.339   2.422
14828TIP3    H244426   6.483   1.280   2.524
14829TIP3   OH244427   3.862   2.212   5.693
14829TIP3    H144428   3.951   2.233   5.721
14829TIP3    H244429   3.874   2.153   5.618
14830TIP3   OH244430   2.488   2.303   0.141
14830TIP3    H144431   2.511   2.269   0.055
14830TIP3    H244432   2.509   2.396   0.137
14831TIP3   OH244433   4.872   0.742   6.701
14831TIP3    H144434   4.887   0.755   6.607
14831TIP3    H244435   4.901   0.652   6.717
14832TIP3   OH244436   6.358   4.357   5.091
14832TIP3    H144437   6.267   4.373   5.066
14832TIP3    H244438   6.376   4.268   5.061
14833TIP3   OH244439   4.017   4.719   6.588
14833TIP3    H144440   3.964   4.792   6.557
14833TIP3    H244441   4.064   4.753   6.663
14834TIP3   OH244442   5.752   4.991   1.210
14834TIP3    H144443   5.709   4.927   1.153
14834TIP3    H244444   5.682   5.050   1.236
14835TIP3   OH244445   3.422   6.265   3.904
14835TIP3    H144446   3.358   6.316   3.954
14835TIP3    H244447   3.466   6.329   3.848
14836TIP3   OH244448   6.834   3.043   0.233
14836TIP3    H144449   6.900   3.077   0.293
14836TIP3    H244450   6.756   3.096   0.251
14837TIP3   OH244451   6.875   3.483   1.004
14837TIP3    H144452   6.821   3.404   0.991
14837TIP3    H244453   6.840   3.523   1.083
14838TIP3   OH244454   2.159   6.381   3.833
14838TIP3    H144455   2.136   6.292   3.804
14838TIP3    H244456   2.081   6.433   3.813
14839TIP3   OH244457   2.668   4.829   5.857
14839TIP3    H144458   2.755   4.797   5.878
14839TIP3    H244459   2.625   4.841   5.941
14840TIP3   OH244460   5.517   1.171   2.572
14840TIP3    H144461   5.556   1.258   2.581
14840TIP3    H244462   5.481   1.170   2.483
14841TIP3   OH244463   3.607   2.143   5.405
14841TIP3    H144464   3.549   2.128   5.480
14841TIP3    H244465   3.661   2.064   5.401
14842TIP3   OH244466   7.435   7.254   3.202
14842TIP3    H144467   7.468   7.187   3.143
14842TIP3    H244468   7.437   7.335   3.150
14843TIP3   OH244469   2.426   2.464   3.891
14843TIP3    H144470   2.419   2.370   3.908
14843TIP3    H244471   2.482   2.497   3.962
14844TIP3   OH244472   6.193   5.616   3.185
14844TIP3    H144473   6.099   5.620   3.163
14844TIP3    H244474   6.204   5.681   3.254
14845TIP3   OH244475   1.678   3.926   2.471
14845TIP3    H144476   1.656   3.833   2.463
14845TIP3    H244477   1.765   3.927   2.512
14846TIP3   OH244478   1.378   4.260   0.043
14846TIP3    H144479   1.325   4.287   0.119
14846TIP3    H244480   1.356   4.168   0.031
14847TIP3   OH244481   4.633   4.637   3.084
14847TIP3    H144482   4.722   4.661   3.059
14847TIP3    H244483   4.596   4.595   3.006
14848TIP3   OH244484   8.370   2.471   0.270
14848TIP3    H144485   8.410   2.398   0.223
14848TIP3    H244486   8.359   2.438   0.359
14849TIP3   OH244487   1.770   7.513   0.395
14849TIP3    H144488   1.816   7.447   0.343
14849TIP3    H244489   1.677   7.498   0.377
14850TIP3   OH244490   1.410   4.349   6.014
14850TIP3    H144491   1.445   4.402   6.086
14850TIP3    H244492   1.476   4.282   5.999
14851TIP3   OH244493   2.486   1.653   2.079
14851TIP3    H144494   2.419   1.588   2.060
14851TIP3    H244495   2.548   1.608   2.135
14852TIP3   OH244496   3.398   2.371   1.990
14852TIP3    H144497   3.354   2.446   1.950
14852TIP3    H244498   3.401   2.391   2.083
14853TIP3   OH244499   0.068   3.529   5.631
14853TIP3    H144500  -0.027   3.537   5.623
14853TIP3    H244501   0.089   3.578   5.710
14854TIP3   OH244502   5.941   6.924   0.901
14854TIP3    H144503   5.928   6.841   0.856
14854TIP3    H244504   5.918   6.990   0.837
14855TIP3   OH244505   5.243   3.935   0.423
14855TIP3    H144506   5.253   3.922   0.329
14855TIP3    H244507   5.264   3.850   0.462
14856TIP3   OH244508   4.189   6.779   0.686
14856TIP3    H144509   4.186   6.685   0.703
14856TIP3    H244510   4.235   6.787   0.603
14857TIP3   OH244511   1.236   7.719   1.602
14857TIP3    H144512   1.296   7.785   1.567
14857TIP3    H244513   1.151   7.741   1.563
14858TIP3   OH244514   0.308   1.025   3.757
14858TIP3    H144515   0.398   0.999   3.777
14858TIP3    H244516   0.314   1.071   3.673
14859TIP3   OH244517   5.408   0.749   1.394
14859TIP3    H144518   5.446   0.814   1.453
14859TIP3    H244519   5.321   0.783   1.373
14860TIP3   OH244520   5.133   2.678   4.715
14860TIP3    H144521   5.143   2.704   4.623
14860TIP3    H244522   5.218   2.643   4.739
14861TIP3   OH244523   1.997   0.469   6.076
14861TIP3    H144524   1.917   0.479   6.128
14861TIP3    H244525   1.966   0.438   5.990
14862TIP3   OH244526   2.464   0.602   4.450
14862TIP3    H144527   2.374   0.615   4.481
14862TIP3    H244528   2.454   0.556   4.367
14863TIP3   OH244529   2.995   0.641   1.488
14863TIP3    H144530   2.924   0.678   1.436
14863TIP3    H244531   2.984   0.546   1.479
14864TIP3   OH244532   2.832   3.185   5.533
14864TIP3    H144533   2.927   3.178   5.549
14864TIP3    H244534   2.801   3.094   5.532
14865TIP3   OH244535   2.295   4.666   0.034
14865TIP3    H144536   2.386   4.639   0.037
14865TIP3    H244537   2.274   4.689   0.125
14866TIP3   OH244538   2.698   2.283   5.689
14866TIP3    H144539   2.726   2.354   5.631
14866TIP3    H244540   2.607   2.303   5.708
14867TIP3   OH244541   5.700   0.826   5.860
14867TIP3    H144542   5.630   0.803   5.799
14867TIP3    H244543   5.781   0.798   5.816
14868TIP3   OH244544   8.059   0.191   5.979
14868TIP3    H144545   7.991   0.128   5.958
14868TIP3    H244546   8.065   0.191   6.074
14869TIP3   OH244547   3.595   6.707   1.105
14869TIP3    H144548   3.644   6.721   1.186
14869TIP3    H244549   3.614   6.617   1.080
14870TIP3   OH244550   6.409   2.584   2.245
14870TIP3    H144551   6.387   2.580   2.338
14870TIP3    H244552   6.325   2.587   2.200
14871TIP3   OH244553   6.979   2.411   5.668
14871TIP3    H144554   6.897   2.364   5.656
14871TIP3    H244555   7.000   2.401   5.761
14872TIP3   OH244556   2.383   2.663   3.267
14872TIP3    H144557   2.316   2.638   3.331
14872TIP3    H244558   2.333   2.699   3.194
14873TIP3   OH244559   3.322   5.757   3.238
14873TIP3    H144560   3.335   5.663   3.251
14873TIP3    H244561   3.388   5.781   3.173
14874TIP3   OH244562   2.049   2.782   4.186
14874TIP3    H144563   2.098   2.734   4.252
14874TIP3    H244564   2.092   2.867   4.181
14875TIP3   OH244565   5.876   7.003   2.455
14875TIP3    H144566   5.825   6.931   2.418
14875TIP3    H244567   5.955   7.006   2.403
14876TIP3   OH244568   6.654   1.603   1.338
14876TIP3    H144569   6.650   1.576   1.430
14876TIP3    H244570   6.586   1.670   1.329
14877TIP3   OH244571   2.427   1.443   1.803
14877TIP3    H144572   2.511   1.397   1.806
14877TIP3    H244573   2.430   1.492   1.721
14878TIP3   OH244574   5.568   2.718   2.428
14878TIP3    H144575   5.656   2.730   2.392
14878TIP3    H244576   5.540   2.806   2.452
14879TIP3   OH244577   8.336   0.055   0.586
14879TIP3    H144578   8.391   0.129   0.610
14879TIP3    H244579   8.247   0.090   0.589
14880TIP3   OH244580   5.997   4.367   5.411
14880TIP3    H144581   5.935   4.375   5.484
14880TIP3    H244582   6.067   4.428   5.432
14881TIP3   OH244583   3.380   7.142   4.641
14881TIP3    H144584   3.372   7.190   4.724
14881TIP3    H244585   3.303   7.085   4.639
14882TIP3   OH244586   3.465   1.419   0.205
14882TIP3    H144587   3.405   1.489   0.231
14882TIP3    H244588   3.505   1.450   0.124
14883TIP3   OH244589   7.011   7.597   0.106
14883TIP3    H144590   7.021   7.689   0.082
14883TIP3    H244591   6.916   7.585   0.112
14884TIP3   OH244592   5.821   0.390   3.302
14884TIP3    H144593   5.903   0.405   3.255
14884TIP3    H244594   5.757   0.444   3.256
14885TIP3   OH244595   3.391   2.482   0.499
14885TIP3    H144596   3.418   2.506   0.411
14885TIP3    H244597   3.310   2.433   0.487
14886TIP3   OH244598   0.289   2.401   2.944
14886TIP3    H144599   0.295   2.412   2.849
14886TIP3    H244600   0.241   2.319   2.956
14887TIP3   OH244601   8.349   2.212   3.616
14887TIP3    H144602   8.266   2.163   3.616
14887TIP3    H244603   8.324   2.303   3.600
14888TIP3   OH244604   2.531   2.652   5.664
14888TIP3    H144605   2.499   2.742   5.673
14888TIP3    H244606   2.575   2.634   5.747
14889TIP3   OH244607   6.353   3.899   6.784
14889TIP3    H144608   6.344   3.974   6.843
14889TIP3    H244609   6.263   3.875   6.762
14890TIP3   OH244610   0.566   4.774   3.620
14890TIP3    H144611   0.507   4.844   3.648
14890TIP3    H244612   0.622   4.815   3.554
14891TIP3   OH244613   3.408   1.669   3.251
14891TIP3    H144614   3.367   1.751   3.224
14891TIP3    H244615   3.448   1.688   3.335
14892TIP3   OH244616   8.248   6.086   2.397
14892TIP3    H144617   8.318   6.025   2.421
14892TIP3    H244618   8.182   6.030   2.355
14893TIP3   OH244619   6.759   4.474   2.733
14893TIP3    H144620   6.743   4.566   2.755
14893TIP3    H244621   6.673   4.439   2.710
14894TIP3   OH244622   6.238   5.492   5.062
14894TIP3    H144623   6.302   5.501   5.133
14894TIP3    H244624   6.156   5.521   5.101
14895TIP3   OH244625   5.948   4.561   6.736
14895TIP3    H144626   6.031   4.531   6.773
14895TIP3    H244627   5.911   4.483   6.694
14896TIP3   OH244628   4.955   1.445   6.263
14896TIP3    H144629   4.874   1.474   6.220
14896TIP3    H244630   5.009   1.524   6.267
14897TIP3   OH244631   2.828   0.747   5.402
14897TIP3    H144632   2.851   0.789   5.485
14897TIP3    H244633   2.897   0.774   5.341
14898TIP3   OH244634   2.163   2.008   0.889
14898TIP3    H144635   2.208   1.926   0.869
14898TIP3    H244636   2.079   1.981   0.926
14899TIP3   OH244637   2.200   6.538   4.407
14899TIP3    H144638   2.236   6.601   4.344
14899TIP3    H244639   2.149   6.592   4.468
14900TIP3   OH244640   1.425   4.577   1.480
14900TIP3    H144641   1.468   4.661   1.462
14900TIP3    H244642   1.454   4.520   1.409
14901TIP3   OH244643   4.872   5.073   1.164
14901TIP3    H144644   4.810   5.137   1.198
14901TIP3    H244645   4.958   5.103   1.195
14902TIP3   OH244646   3.298   4.125   1.414
14902TIP3    H144647   3.390   4.129   1.441
14902TIP3    H244648   3.292   4.184   1.339
14903TIP3   OH244649   6.373   6.427   1.269
14903TIP3    H144650   6.434   6.468   1.207
14903TIP3    H244651   6.427   6.406   1.345
14904TIP3   OH244652   5.426   4.101   1.930
14904TIP3    H144653   5.459   4.131   2.015
14904TIP3    H244654   5.427   4.178   1.874
14905TIP3   OH244655   7.896   6.175   3.326
14905TIP3    H144656   7.821   6.140   3.374
14905TIP3    H244657   7.868   6.178   3.235
14906TIP3   OH244658   1.718   3.552   2.675
14906TIP3    H144659   1.711   3.457   2.660
14906TIP3    H244660   1.631   3.585   2.654
14907TIP3   OH244661   6.815   6.205   0.114
14907TIP3    H144662   6.743   6.166   0.065
14907TIP3    H244663   6.788   6.199   0.206
14908TIP3   OH244664   7.988   7.778   0.613
14908TIP3    H144665   8.040   7.804   0.689
14908TIP3    H244666   7.982   7.857   0.559
14909TIP3   OH244667   5.150   1.135   4.772
14909TIP3    H144668   5.154   1.039   4.769
14909TIP3    H244669   5.098   1.159   4.696
14910TIP3   OH244670   4.883   2.021   3.375
14910TIP3    H144671   4.960   1.973   3.403
14910TIP3    H244672   4.917   2.102   3.338
14911TIP3   OH244673   6.987   5.030   0.433
14911TIP3    H144674   6.976   4.936   0.417
14911TIP3    H244675   7.077   5.038   0.464
14912TIP3   OH244676   8.019   4.105   3.977
14912TIP3    H144677   7.936   4.125   3.934
14912TIP3    H244678   8.058   4.191   3.995
14913TIP3   OH244679   7.452   4.431   1.813
14913TIP3    H144680   7.381   4.495   1.808
14913TIP3    H244681   7.485   4.424   1.724
14914TIP3   OH244682   2.426   4.690   6.477
14914TIP3    H144683   2.440   4.735   6.560
14914TIP3    H244684   2.342   4.723   6.446
14915TIP3   OH244685   5.129   4.617   5.221
14915TIP3    H144686   5.096   4.571   5.298
14915TIP3    H244687   5.173   4.694   5.256
14916TIP3   OH244688   4.724   3.813   1.004
14916TIP3    H144689   4.796   3.808   0.942
14916TIP3    H244690   4.765   3.834   1.088
14917TIP3   OH244691   0.792   6.063   6.067
14917TIP3    H144692   0.739   5.990   6.099
14917TIP3    H244693   0.868   6.065   6.126
14918TIP3   OH244694   8.408   5.695   0.541
14918TIP3    H144695   8.329   5.671   0.493
14918TIP3    H244696   8.398   5.652   0.626
14919TIP3   OH244697   0.810   2.801   6.693
14919TIP3    H144698   0.725   2.835   6.667
14919TIP3    H244699   0.797   2.770   6.783
14920TIP3   OH244700   4.757   3.425   2.472
14920TIP3    H144701   4.821   3.473   2.420
14920TIP3    H244702   4.771   3.333   2.449
14921TIP3   OH244703   4.805   4.512   4.880
14921TIP3    H144704   4.840   4.439   4.830
14921TIP3    H244705   4.717   4.526   4.844
14922TIP3   OH244706   1.815   1.427   0.250
14922TIP3    H144707   1.848   1.337   0.258
14922TIP3    H244708   1.864   1.465   0.177
14923TIP3   OH244709   6.115   4.823   6.741
14923TIP3    H144710   6.108   4.917   6.722
14923TIP3    H244711   6.030   4.787   6.717
14924TIP3   OH244712   5.799   5.977   2.310
14924TIP3    H144713   5.734   5.956   2.243
14924TIP3    H244714   5.756   6.040   2.367
14925TIP3   OH244715   1.024   3.163   0.892
14925TIP3    H144716   0.972   3.131   0.818
14925TIP3    H244717   0.971   3.234   0.929
14926TIP3   OH244718   4.368   4.724   3.245
14926TIP3    H144719   4.317   4.665   3.300
14926TIP3    H244720   4.457   4.691   3.251
14927TIP3   OH244721   5.994   6.530   1.933
14927TIP3    H144722   6.039   6.451   1.963
14927TIP3    H244723   5.949   6.503   1.853
14928TIP3   OH244724   4.634   3.003   2.807
14928TIP3    H144725   4.585   2.945   2.864
14928TIP3    H244726   4.718   3.016   2.852
14929TIP3   OH244727   0.140   0.567   6.606
14929TIP3    H144728   0.165   0.486   6.561
14929TIP3    H244729   0.045   0.562   6.613
14930TIP3   OH244730   7.630   1.164   4.426
14930TIP3    H144731   7.563   1.109   4.385
14930TIP3    H244732   7.711   1.115   4.416
14931TIP3   OH244733   1.932   7.380   0.194
14931TIP3    H144734   1.878   7.369   0.116
14931TIP3    H244735   2.003   7.438   0.167
14932TIP3   OH244736   0.516   4.116   3.768
14932TIP3    H144737   0.571   4.193   3.753
14932TIP3    H244738   0.426   4.149   3.765
14933TIP3   OH244739   2.051   4.417   6.820
14933TIP3    H144740   1.974   4.455   6.863
14933TIP3    H244741   2.126   4.451   6.871
14934TIP3   OH244742   0.710   5.300   6.030
14934TIP3    H144743   0.706   5.238   6.102
14934TIP3    H244744   0.635   5.277   5.974
14935TIP3   OH244745   3.216   0.225   5.403
14935TIP3    H144746   3.127   0.258   5.389
14935TIP3    H244747   3.208   0.130   5.390
14936TIP3   OH244748   1.040   2.189   2.920
14936TIP3    H144749   1.115   2.179   2.979
14936TIP3    H244750   0.964   2.189   2.978
14937TIP3   OH244751   7.357   3.304   5.462
14937TIP3    H144752   7.354   3.396   5.434
14937TIP3    H244753   7.291   3.298   5.531
14938TIP3   OH244754   4.674   7.617   1.733
14938TIP3    H144755   4.638   7.537   1.695
14938TIP3    H244756   4.722   7.587   1.810
14939TIP3   OH244757   1.273   6.140   3.539
14939TIP3    H144758   1.311   6.054   3.521
14939TIP3    H244759   1.210   6.153   3.468
14940TIP3   OH244760   1.451   1.072   1.944
14940TIP3    H144761   1.420   1.161   1.927
14940TIP3    H244762   1.393   1.040   2.013
14941TIP3   OH244763   7.637   1.971   2.351
14941TIP3    H144764   7.631   1.916   2.429
14941TIP3    H244765   7.712   1.936   2.303
14942TIP3   OH244766   5.438   4.554   0.457
14942TIP3    H144767   5.352   4.542   0.497
14942TIP3    H244768   5.419   4.592   0.371
14943TIP3   OH244769   0.287   1.573   5.170
14943TIP3    H144770   0.326   1.656   5.196
14943TIP3    H244771   0.216   1.597   5.110
14944TIP3   OH244772   2.975   1.959   3.190
14944TIP3    H144773   2.996   1.866   3.194
14944TIP3    H244774   2.890   1.967   3.233
14945TIP3   OH244775   4.021   7.200   4.859
14945TIP3    H144776   3.939   7.239   4.830
14945TIP3    H244777   3.995   7.132   4.921
14946TIP3   OH244778   1.190   5.532   3.929
14946TIP3    H144779   1.281   5.555   3.908
14946TIP3    H244780   1.191   5.518   4.024
14947TIP3   OH244781   0.068   6.710   0.951
14947TIP3    H144782   0.104   6.628   0.984
14947TIP3    H244783   0.035   6.755   1.029
14948TIP3   OH244784   0.845   1.821   1.978
14948TIP3    H144785   0.823   1.886   2.045
14948TIP3    H244786   0.797   1.742   2.005
14949TIP3   OH244787   1.232   2.568   1.641
14949TIP3    H144788   1.173   2.576   1.716
14949TIP3    H244789   1.176   2.542   1.569
14950TIP3   OH244790   4.992   6.911   1.817
14950TIP3    H144791   5.050   6.941   1.746
14950TIP3    H244792   4.936   6.846   1.775
14951TIP3   OH244793   7.576   3.533   5.208
14951TIP3    H144794   7.547   3.618   5.176
14951TIP3    H244795   7.495   3.483   5.220
14952TIP3   OH244796   0.270   4.442   3.373
14952TIP3    H144797   0.350   4.473   3.330
14952TIP3    H244798   0.199   4.484   3.325
14953TIP3   OH244799   0.432   3.494   5.277
14953TIP3    H144800   0.343   3.461   5.264
14953TIP3    H244801   0.432   3.528   5.366
14954TIP3   OH244802   3.561   5.429   4.199
14954TIP3    H144803   3.530   5.473   4.278
14954TIP3    H244804   3.494   5.448   4.133
14955TIP3   OH244805   2.268   4.921   1.590
14955TIP3    H144806   2.339   4.908   1.652
14955TIP3    H244807   2.266   4.841   1.538
14956TIP3   OH244808   1.936   4.997   4.696
14956TIP3    H144809   1.930   4.916   4.646
14956TIP3    H244810   1.860   5.048   4.668
14957TIP3   OH244811   0.491   4.184   5.691
14957TIP3    H144812   0.418   4.194   5.629
14957TIP3    H244813   0.554   4.128   5.646
14958TIP3   OH244814   1.296   6.444   0.396
14958TIP3    H144815   1.330   6.433   0.485
14958TIP3    H244816   1.319   6.362   0.352
14959TIP3   OH244817   7.274   1.161   3.491
14959TIP3    H144818   7.222   1.240   3.476
14959TIP3    H244819   7.214   1.100   3.534
14960TIP3   OH244820   2.636   5.767   4.711
14960TIP3    H144821   2.710   5.724   4.753
14960TIP3    H244822   2.567   5.702   4.710
14961TIP3   OH244823   1.985   1.388   6.528
14961TIP3    H144824   1.944   1.387   6.442
14961TIP3    H244825   1.913   1.400   6.590
14962TIP3   OH244826   6.660   2.474   6.409
14962TIP3    H144827   6.695   2.403   6.463
14962TIP3    H244828   6.675   2.553   6.461
14963TIP3   OH244829   4.606   0.760   6.374
14963TIP3    H144830   4.572   0.814   6.446
14963TIP3    H244831   4.642   0.683   6.418
14964TIP3   OH244832   5.857   0.287   0.210
14964TIP3    H144833   5.848   0.306   0.303
14964TIP3    H244834   5.923   0.218   0.206
14965TIP3   OH244835   2.042   1.987   3.588
14965TIP3    H144836   2.085   2.064   3.624
14965TIP3    H244837   1.964   1.975   3.642
14966TIP3   OH244838   4.366   2.752   1.995
14966TIP3    H144839   4.291   2.734   2.052
14966TIP3    H244840   4.327   2.780   1.912
14967TIP3   OH244841   5.831   7.611   6.770
14967TIP3    H144842   5.820   7.543   6.703
14967TIP3    H244843   5.775   7.583   6.842
14968TIP3   OH244844   7.692   0.890   0.807
14968TIP3    H144845   7.694   0.795   0.794
14968TIP3    H244846   7.599   0.913   0.811
14969TIP3   OH244847   5.929   6.122   4.501
14969TIP3    H144848   5.960   6.104   4.590
14969TIP3    H244849   5.918   6.035   4.462
14970TIP3   OH244850   7.851   6.462   4.194
14970TIP3    H144851   7.821   6.502   4.276
14970TIP3    H244852   7.902   6.387   4.221
14971TIP3   OH244853   4.960   7.535   4.847
14971TIP3    H144854   4.893   7.552   4.913
14971TIP3    H244855   4.969   7.617   4.799
14972TIP3   OH244856   5.531   3.502   2.784
14972TIP3    H144857   5.439   3.477   2.791
14972TIP3    H244858   5.576   3.421   2.760
14973TIP3   OH244859   0.403   2.024   3.202
14973TIP3    H144860   0.475   1.993   3.256
14973TIP3    H244861   0.324   1.996   3.248
14974TIP3   OH244862   4.540   0.934   1.637
14974TIP3    H144863   4.454   0.955   1.602
14974TIP3    H244864   4.547   0.989   1.716
14975TIP3   OH244865   3.413   1.275   1.490
14975TIP3    H144866   3.433   1.343   1.425
14975TIP3    H244867   3.410   1.194   1.440
14976TIP3   OH244868   1.090   7.081   4.334
14976TIP3    H144869   1.014   7.136   4.353
14976TIP3    H244870   1.062   7.025   4.262
14977TIP3   OH244871   5.741   1.130   3.909
14977TIP3    H144872   5.826   1.102   3.944
14977TIP3    H244873   5.736   1.088   3.823
14978TIP3   OH244874   4.678   5.760   0.871
14978TIP3    H144875   4.730   5.801   0.940
14978TIP3    H244876   4.737   5.758   0.795
14979TIP3   OH244877   6.430   6.299   6.141
14979TIP3    H144878   6.337   6.303   6.120
14979TIP3    H244879   6.474   6.336   6.065
14980TIP3   OH244880   1.148   7.127   3.177
14980TIP3    H144881   1.126   7.220   3.173
14980TIP3    H244882   1.112   7.091   3.096
14981TIP3   OH244883   0.912   5.873   0.368
14981TIP3    H144884   0.865   5.880   0.285
14981TIP3    H244885   0.899   5.957   0.411
14982TIP3   OH244886   7.753   7.672   2.723
14982TIP3    H144887   7.761   7.766   2.707
14982TIP3    H244888   7.809   7.656   2.799
14983TIP3   OH244889   6.429   3.243   4.746
14983TIP3    H144890   6.371   3.169   4.763
14983TIP3    H244891   6.511   3.219   4.789
14984TIP3   OH244892   7.957   1.094   6.568
14984TIP3    H144893   7.915   1.042   6.636
14984TIP3    H244894   7.958   1.037   6.491
14985TIP3   OH244895   4.792   4.299   4.088
14985TIP3    H144896   4.873   4.300   4.037
14985TIP3    H244897   4.723   4.316   4.023
14986TIP3   OH244898   7.333   3.953   6.865
14986TIP3    H144899   7.381   4.029   6.897
14986TIP3    H244900   7.289   3.985   6.786
14987TIP3   OH244901   7.395   1.801   1.459
14987TIP3    H144902   7.382   1.714   1.421
14987TIP3    H244903   7.309   1.825   1.494
14988TIP3   OH244904   4.434   4.960   5.140
14988TIP3    H144905   4.430   4.895   5.070
14988TIP3    H244906   4.363   4.935   5.200
14989TIP3   OH244907   3.689   6.229   3.056
14989TIP3    H144908   3.633   6.216   2.979
14989TIP3    H244909   3.678   6.149   3.108
14990TIP3   OH244910   5.091   7.928   2.739
14990TIP3    H144911   5.001   7.921   2.707
14990TIP3    H244912   5.126   7.840   2.729
14991TIP3   OH244913   8.109   0.926   6.375
14991TIP3    H144914   8.190   0.931   6.324
14991TIP3    H244915   8.084   0.834   6.372
14992TIP3   OH244916   2.332   6.870   2.887
14992TIP3    H144917   2.280   6.791   2.902
14992TIP3    H244918   2.402   6.865   2.952
14993TIP3   OH244919   7.358   3.677   1.866
14993TIP3    H144920   7.449   3.706   1.863
14993TIP3    H244921   7.358   3.591   1.824
14994TIP3   OH244922   6.943   0.688   3.849
14994TIP3    H144923   6.990   0.632   3.787
14994TIP3    H244924   6.851   0.664   3.836
14995TIP3   OH244925   1.775   5.858   4.789
14995TIP3    H144926   1.837   5.889   4.723
14995TIP3    H244927   1.826   5.801   4.845
14996TIP3   OH244928   1.007   6.019   0.929
14996TIP3    H144929   1.069   5.949   0.909
14996TIP3    H244930   0.926   5.974   0.953
14997TIP3   OH244931   7.473   5.745   6.105
14997TIP3    H144932   7.501   5.675   6.164
14997TIP3    H244933   7.550   5.800   6.094
14998TIP3   OH244934   1.595   2.397   5.424
14998TIP3    H144935   1.600   2.482   5.381
14998TIP3    H244936   1.554   2.340   5.359
14999TIP3   OH244937   7.399   0.102   1.487
14999TIP3    H144938   7.434   0.024   1.444
14999TIP3    H244939   7.439   0.101   1.574
15000TIP3   OH244940   6.785   0.726   3.186
15000TIP3    H144941   6.731   0.780   3.129
15000TIP3    H244942   6.837   0.672   3.126
15001TIP3   OH244943   4.717   1.969   2.059
15001TIP3    H144944   4.708   2.064   2.071
15001TIP3    H244945   4.683   1.953   1.971
15002TIP3   OH244946   0.280   2.597   1.203
15002TIP3    H144947   0.306   2.617   1.293
15002TIP3    H244948   0.303   2.505   1.191
15003TIP3   OH244949   3.774   1.732   0.977
15003TIP3    H144950   3.748   1.732   0.885
15003TIP3    H244951   3.870   1.740   0.975
15004TIP3   OH244952   4.364   1.199   0.030
15004TIP3    H144953   4.277   1.173   0.000
15004TIP3    H244954   4.425   1.154  -0.028
15005TIP3   OH244955   2.608   0.846   1.605
15005TIP3    H144956   2.689   0.811   1.569
15005TIP3    H244957   2.584   0.918   1.547
15006TIP3   OH244958   6.581   6.614   3.650
15006TIP3    H144959   6.547   6.530   3.619
15006TIP3    H244960   6.507   6.656   3.693
15007TIP3   OH244961   0.482   5.504   0.461
15007TIP3    H144962   0.392   5.505   0.494
15007TIP3    H244963   0.473   5.498   0.366
15008TIP3   OH244964   7.532   5.402   4.322
15008TIP3    H144965   7.466   5.444   4.378
15008TIP3    H244966   7.607   5.461   4.324
15009TIP3   OH244967   7.211   2.758   5.727
15009TIP3    H144968   7.198   2.709   5.808
15009TIP3    H244969   7.262   2.700   5.671
15010TIP3   OH244970   1.006   6.324   3.804
15010TIP3    H144971   1.048   6.307   3.889
15010TIP3    H244972   0.946   6.250   3.791
15011TIP3   OH244973   6.050   4.780   1.636
15011TIP3    H144974   6.097   4.855   1.599
15011TIP3    H244975   5.986   4.756   1.569
15012TIP3   OH244976   4.988   7.211   1.695
15012TIP3    H144977   4.915   7.241   1.751
15012TIP3    H244978   5.064   7.214   1.752
15013TIP3   OH244979   1.323   1.011   2.185
15013TIP3    H144980   1.234   0.990   2.214
15013TIP3    H244981   1.367   1.042   2.264
15014TIP3   OH244982   7.330   0.183   0.526
15014TIP3    H144983   7.386   0.223   0.458
15014TIP3    H244984   7.352   0.231   0.606
15015TIP3   OH244985   6.606   0.172   6.386
15015TIP3    H144986   6.695   0.202   6.404
15015TIP3    H244987   6.618   0.096   6.329
15016TIP3   OH244988   0.760   5.594   6.449
15016TIP3    H144989   0.703   5.568   6.377
15016TIP3    H244990   0.700   5.609   6.523
15017TIP3   OH244991   1.551   1.134   3.807
15017TIP3    H144992   1.593   1.123   3.722
15017TIP3    H244993   1.622   1.158   3.866
15018TIP3   OH244994   1.448   1.816   1.247
15018TIP3    H144995   1.513   1.817   1.317
15018TIP3    H244996   1.425   1.724   1.237
15019TIP3   OH244997   6.717   0.256   3.269
15019TIP3    H144998   6.650   0.298   3.323
15019TIP3    H244999   6.668   0.205   3.204
15020TIP3   OH245000   5.016   1.862   0.271
15020TIP3    H145001   5.043   1.780   0.312
15020TIP3    H245002   4.926   1.847   0.243
15021TIP3   OH245003   3.102   4.668   4.887
15021TIP3    H145004   3.103   4.572   4.889
15021TIP3    H245005   3.065   4.692   4.972
15022TIP3   OH245006   0.163   6.491   6.483
15022TIP3    H145007   0.213   6.410   6.476
15022TIP3    H245008   0.071   6.463   6.475
15023TIP3   OH245009   5.062   5.322   0.282
15023TIP3    H145010   5.140   5.265   0.280
15023TIP3    H245011   4.989   5.261   0.293
15024TIP3   OH245012   7.229   6.383   4.593
15024TIP3    H145013   7.148   6.362   4.547
15024TIP3    H245014   7.289   6.312   4.570
15025TIP3   OH245015   5.485   6.277   4.867
15025TIP3    H145016   5.537   6.203   4.837
15025TIP3    H245017   5.402   6.269   4.820
15026TIP3   OH245018   2.238   6.838   6.612
15026TIP3    H145019   2.224   6.926   6.646
15026TIP3    H245020   2.276   6.790   6.686
15027TIP3   OH245021   8.070   3.404   3.466
15027TIP3    H145022   7.996   3.459   3.489
15027TIP3    H245023   8.129   3.462   3.418
15028TIP3   OH245024   5.429   2.321   3.232
15028TIP3    H145025   5.380   2.242   3.210
15028TIP3    H245026   5.389   2.390   3.180
15029TIP3   OH245027   7.327   1.248   6.418
15029TIP3    H145028   7.307   1.337   6.388
15029TIP3    H245029   7.402   1.259   6.477
15030TIP3   OH245030   2.831   7.360   4.198
15030TIP3    H145031   2.817   7.356   4.103
15030TIP3    H245032   2.754   7.318   4.235
15031TIP3   OH245033   7.439   2.365   2.272
15031TIP3    H145034   7.420   2.309   2.347
15031TIP3    H245035   7.456   2.305   2.200
15032TIP3   OH245036   5.808   3.965   6.539
15032TIP3    H145037   5.874   4.006   6.483
15032TIP3    H245038   5.731   3.957   6.483
15033TIP3   OH245039   1.724   1.420   2.072
15033TIP3    H145040   1.666   1.471   2.016
15033TIP3    H245041   1.764   1.356   2.014
15034TIP3   OH245042   4.842   5.822   0.429
15034TIP3    H145043   4.769   5.820   0.367
15034TIP3    H245044   4.919   5.801   0.376
15035TIP3   OH245045   3.400   6.141   0.414
15035TIP3    H145046   3.334   6.198   0.375
15035TIP3    H245047   3.458   6.118   0.341
15036TIP3   OH245048   2.490   3.665   4.518
15036TIP3    H145049   2.562   3.680   4.579
15036TIP3    H245050   2.527   3.681   4.431
15037TIP3   OH245051   7.737   6.881   0.032
15037TIP3    H145052   7.787   6.836   0.100
15037TIP3    H245053   7.761   6.974   0.042
15038TIP3   OH245054   0.714   0.103   5.353
15038TIP3    H145055   0.747   0.013   5.361
15038TIP3    H245056   0.749   0.148   5.431
15039TIP3   OH245057   7.829   4.993   4.241
15039TIP3    H145058   7.846   5.059   4.173
15039TIP3    H245059   7.825   5.043   4.322
15040TIP3   OH245060   7.034   0.544   3.487
15040TIP3    H145061   7.059   0.634   3.465
15040TIP3    H245062   7.014   0.504   3.403
15041TIP3   OH245063   3.794   0.645   5.349
15041TIP3    H145064   3.720   0.588   5.330
15041TIP3    H245065   3.866   0.585   5.368
15042TIP3   OH245066   4.654   0.870   5.936
15042TIP3    H145067   4.668   0.925   6.012
15042TIP3    H245068   4.574   0.821   5.955
15043TIP3   OH245069   5.573   5.924   1.591
15043TIP3    H145070   5.512   5.970   1.648
15043TIP3    H245071   5.540   5.939   1.503
15044TIP3   OH245072   2.882   7.142   5.096
15044TIP3    H145073   2.814   7.169   5.158
15044TIP3    H245074   2.964   7.171   5.136
15045TIP3   OH245075   0.941   3.799   3.860
15045TIP3    H145076   0.869   3.860   3.872
15045TIP3    H245077   1.006   3.826   3.926
15046TIP3   OH245078   3.782   7.562   5.284
15046TIP3    H145079   3.864   7.533   5.245
15046TIP3    H245080   3.764   7.646   5.242
15047TIP3   OH245081   7.129   7.504   2.065
15047TIP3    H145082   7.175   7.468   2.141
15047TIP3    H245083   7.166   7.458   1.990
15048TIP3   OH245084   3.890   1.147   2.268
15048TIP3    H145085   3.924   1.211   2.205
15048TIP3    H245086   3.812   1.111   2.225
15049TIP3   OH245087   5.395   4.282   0.994
15049TIP3    H145088   5.318   4.317   1.039
15049TIP3    H245089   5.445   4.238   1.063
15050TIP3   OH245090   4.540   2.771   2.938
15050TIP3    H145091   4.571   2.691   2.896
15050TIP3    H245092   4.454   2.787   2.898
15051TIP3   OH245093   2.298   3.694   5.447
15051TIP3    H145094   2.332   3.618   5.401
15051TIP3    H245095   2.367   3.720   5.507
15052TIP3   OH245096   2.746   7.633   5.414
15052TIP3    H145097   2.756   7.611   5.321
15052TIP3    H245098   2.657   7.607   5.435
15053TIP3   OH245099   5.120   5.611   0.612
15053TIP3    H145100   5.167   5.686   0.649
15053TIP3    H245101   5.154   5.602   0.523
15054TIP3   OH245102   3.308   6.018   1.588
15054TIP3    H145103   3.253   6.081   1.541
15054TIP3    H245104   3.368   5.985   1.521
15055TIP3   OH245105   1.309   2.849   2.916
15055TIP3    H145106   1.370   2.803   2.974
15055TIP3    H245107   1.300   2.936   2.955
15056TIP3   OH245108   5.742   3.989   5.239
15056TIP3    H145109   5.708   4.031   5.317
15056TIP3    H245110   5.729   3.895   5.254
15057TIP3   OH245111   4.237   0.447   1.435
15057TIP3    H145112   4.153   0.420   1.473
15057TIP3    H245113   4.293   0.464   1.511
15058TIP3   OH245114   2.484   6.418   2.964
15058TIP3    H145115   2.522   6.382   2.884
15058TIP3    H245116   2.558   6.457   3.010
15059TIP3   OH245117   5.299   6.709   1.562
15059TIP3    H145118   5.368   6.776   1.560
15059TIP3    H245119   5.302   6.669   1.475
15060TIP3   OH245120   1.339   6.690   0.260
15060TIP3    H145121   1.260   6.722   0.216
15060TIP3    H245122   1.321   6.597   0.276
15061TIP3   OH245123   4.506   3.642   3.912
15061TIP3    H145124   4.599   3.659   3.906
15061TIP3    H245125   4.469   3.723   3.948
15062TIP3   OH245126   0.478   5.257   3.428
15062TIP3    H145127   0.552   5.317   3.441
15062TIP3    H245128   0.428   5.296   3.356
15063TIP3   OH245129   2.744   5.509   0.165
15063TIP3    H145130   2.799   5.433   0.142
15063TIP3    H245131   2.804   5.569   0.209
15064TIP3   OH245132   0.302   6.801   2.263
15064TIP3    H145133   0.213   6.833   2.276
15064TIP3    H245134   0.291   6.711   2.230
15065TIP3   OH245135   4.436   1.761   2.958
15065TIP3    H145136   4.431   1.842   2.907
15065TIP3    H245137   4.490   1.783   3.033
15066TIP3   OH245138   1.656   7.391   2.254
15066TIP3    H145139   1.735   7.358   2.212
15066TIP3    H245140   1.629   7.466   2.200
15067TIP3   OH245141   1.356   0.976   4.132
15067TIP3    H145142   1.335   1.041   4.065
15067TIP3    H245143   1.273   0.959   4.176
15068TIP3   OH245144   2.575   6.627   3.196
15068TIP3    H145145   2.565   6.705   3.250
15068TIP3    H245146   2.613   6.658   3.114
15069TIP3   OH245147   8.256   5.709   4.384
15069TIP3    H145148   8.256   5.783   4.323
15069TIP3    H245149   8.271   5.748   4.470
15070TIP3   OH245150   0.421   7.555   1.132
15070TIP3    H145151   0.414   7.648   1.110
15070TIP3    H245152   0.496   7.524   1.081
15071TIP3   OH245153   6.978   1.089   5.202
15071TIP3    H145154   6.904   1.150   5.208
15071TIP3    H245155   7.037   1.130   5.139
15072TIP3   OH245156   3.000   6.726   1.257
15072TIP3    H145157   2.972   6.712   1.347
15072TIP3    H245158   2.944   6.796   1.225
15073TIP3   OH245159   5.506   4.514   5.553
15073TIP3    H145160   5.596   4.503   5.521
15073TIP3    H245161   5.515   4.521   5.648
15074TIP3   OH245162   3.181   3.982   0.751
15074TIP3    H145163   3.102   4.011   0.797
15074TIP3    H245164   3.156   3.898   0.712
15075TIP3   OH245165   3.119   2.483   3.488
15075TIP3    H145166   3.120   2.540   3.565
15075TIP3    H245167   3.027   2.466   3.471
15076TIP3   OH245168   3.313   0.906   4.972
15076TIP3    H145169   3.308   0.884   5.065
15076TIP3    H245170   3.396   0.868   4.943
15077TIP3   OH245171   3.979   3.200   0.565
15077TIP3    H145172   4.066   3.200   0.605
15077TIP3    H245173   3.919   3.190   0.638
15078TIP3   OH245174   0.938   1.647   0.330
15078TIP3    H145175   0.980   1.664   0.245
15078TIP3    H245176   0.851   1.615   0.308
15079TIP3   OH245177   2.764   6.818   5.057
15079TIP3    H145178   2.750   6.772   4.974
15079TIP3    H245179   2.685   6.871   5.069
15080TIP3   OH245180   5.243   6.066   5.753
15080TIP3    H145181   5.272   6.157   5.746
15080TIP3    H245182   5.320   6.015   5.730
15081TIP3   OH245183   1.106   7.042   4.918
15081TIP3    H145184   1.047   7.107   4.879
15081TIP3    H245185   1.193   7.066   4.887
15082TIP3   OH245186   3.714   1.441   0.425
15082TIP3    H145187   3.680   1.356   0.397
15082TIP3    H245188   3.641   1.481   0.473
15083TIP3   OH245189   4.774   7.085   6.026
15083TIP3    H145190   4.807   7.147   6.092
15083TIP3    H245191   4.766   7.138   5.947
15084TIP3   OH245192   6.837   6.756   4.771
15084TIP3    H145193   6.862   6.815   4.842
15084TIP3    H245194   6.750   6.786   4.745
15085TIP3   OH245195   7.721   3.458   1.252
15085TIP3    H145196   7.796   3.486   1.304
15085TIP3    H245197   7.658   3.424   1.315
15086TIP3   OH245198   7.573   5.398   6.084
15086TIP3    H145199   7.608   5.375   5.998
15086TIP3    H245200   7.595   5.324   6.140
15087TIP3   OH245201   0.146   4.982   3.785
15087TIP3    H145202   0.137   4.946   3.697
15087TIP3    H245203   0.119   4.912   3.844
15088TIP3   OH245204   2.918   0.192   0.883
15088TIP3    H145205   2.967   0.112   0.900
15088TIP3    H245206   2.982   0.263   0.891
15089TIP3   OH245207   4.012   0.958   2.437
15089TIP3    H145208   3.946   0.921   2.495
15089TIP3    H245209   3.965   1.023   2.385
15090TIP3   OH245210   0.173   3.965   3.873
15090TIP3    H145211   0.198   4.057   3.861
15090TIP3    H245212   0.080   3.963   3.852
15091TIP3   OH245213   5.754   1.373   0.448
15091TIP3    H145214   5.683   1.436   0.460
15091TIP3    H245215   5.721   1.311   0.383
15092TIP3   OH245216   6.134   3.354   6.060
15092TIP3    H145217   6.117   3.412   5.987
15092TIP3    H245218   6.181   3.280   6.021
15093TIP3   OH245219   5.824   2.508   5.544
15093TIP3    H145220   5.802   2.480   5.633
15093TIP3    H245221   5.748   2.483   5.491
15094TIP3   OH245222   4.310   7.165   4.940
15094TIP3    H145223   4.248   7.112   4.989
15094TIP3    H245224   4.295   7.142   4.849
15095TIP3   OH245225   1.039   6.184   5.157
15095TIP3    H145226   1.091   6.190   5.237
15095TIP3    H245227   0.982   6.261   5.160
15096TIP3   OH245228   3.789   7.075   1.343
15096TIP3    H145229   3.858   7.033   1.394
15096TIP3    H245230   3.708   7.031   1.370
15097TIP3   OH245231   4.616   6.617   4.180
15097TIP3    H145232   4.598   6.615   4.274
15097TIP3    H245233   4.529   6.620   4.139
15098TIP3   OH245234   6.763   4.849   4.045
15098TIP3    H145235   6.717   4.766   4.046
15098TIP3    H245236   6.703   4.911   4.086
15099TIP3   OH245237   2.842   1.452   4.383
15099TIP3    H145238   2.854   1.480   4.473
15099TIP3    H245239   2.898   1.510   4.332
15100TIP3   OH245240   3.318   2.198   1.322
15100TIP3    H145241   3.282   2.120   1.364
15100TIP3    H245242   3.390   2.164   1.269
15101TIP3   OH245243   4.321   6.822   0.462
15101TIP3    H145244   4.412   6.850   0.451
15101TIP3    H245245   4.319   6.733   0.426
15102TIP3   OH245246   0.986   7.322   5.131
15102TIP3    H145247   0.921   7.348   5.066
15102TIP3    H245248   0.999   7.401   5.184
15103TIP3   OH245249   0.835   0.899   3.812
15103TIP3    H145250   0.911   0.896   3.870
15103TIP3    H245251   0.864   0.855   3.732
15104TIP3   OH245252   1.615   2.781   2.031
15104TIP3    H145253   1.522   2.798   2.044
15104TIP3    H245254   1.619   2.713   1.964
15105TIP3   OH245255   3.542   4.183   6.310
15105TIP3    H145256   3.471   4.213   6.253
15105TIP3    H245257   3.581   4.109   6.263
15106TIP3   OH245258   3.691   7.635   2.598
15106TIP3    H145259   3.724   7.721   2.572
15106TIP3    H245260   3.597   7.647   2.606
15107TIP3   OH245261   4.584   3.288   0.357
15107TIP3    H145262   4.528   3.306   0.281
15107TIP3    H245263   4.672   3.287   0.321
15108TIP3   OH245264   4.055   2.623   1.527
15108TIP3    H145265   4.085   2.714   1.532
15108TIP3    H245266   3.965   2.626   1.559
15109TIP3   OH245267   0.811   1.847   1.455
15109TIP3    H145268   0.903   1.823   1.467
15109TIP3    H245269   0.789   1.895   1.535
15110TIP3   OH245270  -0.005   3.753   0.198
15110TIP3    H145271   0.084   3.721   0.186
15110TIP3    H245272  -0.030   3.788   0.112
15111TIP3   OH245273   0.879   1.369   5.905
15111TIP3    H145274   0.878   1.373   5.810
15111TIP3    H245275   0.905   1.456   5.934
15112TIP3   OH245276   4.357   1.923   5.444
15112TIP3    H145277   4.355   1.842   5.393
15112TIP3    H245278   4.450   1.943   5.453
15113TIP3   OH245279   5.461   5.415   5.864
15113TIP3    H145280   5.535   5.475   5.850
15113TIP3    H245281   5.385   5.462   5.830
15114TIP3   OH245282   1.092   1.870   1.079
15114TIP3    H145283   1.143   1.947   1.103
15114TIP3    H245284   1.035   1.900   1.008
15115TIP3   OH245285   4.298   2.516   2.578
15115TIP3    H145286   4.218   2.528   2.628
15115TIP3    H245287   4.273   2.460   2.504
15116TIP3   OH245288   1.364   2.934   1.186
15116TIP3    H145289   1.306   3.001   1.149
15116TIP3    H245290   1.307   2.882   1.242
15117TIP3   OH245291   3.801   4.801   2.524
15117TIP3    H145292   3.757   4.720   2.550
15117TIP3    H245293   3.843   4.780   2.440
15118TIP3   OH245294   7.698   2.764   0.882
15118TIP3    H145295   7.666   2.674   0.878
15118TIP3    H245296   7.787   2.756   0.917
15119TIP3   OH245297   5.628   6.447   3.255
15119TIP3    H145298   5.535   6.462   3.274
15119TIP3    H245299   5.629   6.373   3.195
15120TIP3   OH245300   4.036   7.514   1.134
15120TIP3    H145301   3.947   7.544   1.153
15120TIP3    H245302   4.062   7.466   1.213
15121TIP3   OH245303   0.335   6.877   3.847
15121TIP3    H145304   0.257   6.873   3.791
15121TIP3    H245305   0.307   6.928   3.923
15122TIP3   OH245306   5.706   3.081   4.776
15122TIP3    H145307   5.610   3.080   4.778
15122TIP3    H245308   5.728   3.158   4.725
15123TIP3   OH245309   3.681   5.236   2.478
15123TIP3    H145310   3.766   5.276   2.498
15123TIP3    H245311   3.640   5.296   2.416
15124TIP3   OH245312   1.857   7.847   4.845
15124TIP3    H145313   1.934   7.902   4.859
15124TIP3    H245314   1.808   7.853   4.927
15125TIP3   OH245315   0.696   3.405   3.463
15125TIP3    H145316   0.701   3.313   3.490
15125TIP3    H245317   0.688   3.454   3.544
15126TIP3   OH245318   2.175   4.808   6.467
15126TIP3    H145319   2.143   4.718   6.470
15126TIP3    H245320   2.100   4.862   6.491
15127TIP3   OH245321   6.476   0.392   1.049
15127TIP3    H145322   6.550   0.443   1.079
15127TIP3    H245323   6.403   0.454   1.046
15128TIP3   OH245324   1.106   3.465   5.091
15128TIP3    H145325   1.088   3.400   5.159
15128TIP3    H245326   1.148   3.415   5.021
15129TIP3   OH245327   4.558   7.790   4.070
15129TIP3    H145328   4.533   7.760   4.157
15129TIP3    H245329   4.485   7.763   4.014
15130TIP3   OH245330   5.844   3.552   2.689
15130TIP3    H145331   5.912   3.620   2.695
15130TIP3    H245332   5.850   3.521   2.599
15131TIP3   OH245333   6.151   3.969   0.909
15131TIP3    H145334   6.084   3.931   0.966
15131TIP3    H245335   6.114   3.962   0.821
15132TIP3   OH245336   6.632   2.403   1.664
15132TIP3    H145337   6.599   2.471   1.723
15132TIP3    H245338   6.614   2.321   1.708
15133TIP3   OH245339   6.095   2.764   6.740
15133TIP3    H145340   6.051   2.680   6.724
15133TIP3    H245341   6.128   2.756   6.830
15134TIP3   OH245342   4.485   7.455   6.515
15134TIP3    H145343   4.394   7.438   6.492
15134TIP3    H245344   4.495   7.550   6.505
15135TIP3   OH245345   4.433   0.077   0.338
15135TIP3    H145346   4.370   0.077   0.411
15135TIP3    H245347   4.380   0.100   0.261
15136TIP3   OH245348   1.449   6.919   3.525
15136TIP3    H145349   1.416   6.951   3.441
15136TIP3    H245350   1.423   6.827   3.527
15137TIP3   OH245351   7.318   3.681   4.621
15137TIP3    H145352   7.296   3.669   4.713
15137TIP3    H245353   7.335   3.775   4.612
15138TIP3   OH245354   4.525   1.636   1.619
15138TIP3    H145355   4.467   1.666   1.689
15138TIP3    H245356   4.607   1.613   1.664
15139TIP3   OH245357   5.215   7.344   6.288
15139TIP3    H145358   5.135   7.311   6.330
15139TIP3    H245359   5.191   7.352   6.195
15140TIP3   OH245360   6.600   1.791   1.924
15140TIP3    H145361   6.554   1.839   1.993
15140TIP3    H245362   6.546   1.714   1.908
15141TIP3   OH245363   4.929   3.600   5.595
15141TIP3    H145364   4.845   3.554   5.590
15141TIP3    H245365   4.925   3.665   5.524
15142TIP3   OH245366   1.064   5.859   2.032
15142TIP3    H145367   0.994   5.924   2.024
15142TIP3    H245368   1.091   5.863   2.124
15143TIP3   OH245369   5.406   0.860   6.485
15143TIP3    H145370   5.411   0.907   6.401
15143TIP3    H245371   5.313   0.843   6.497
15144TIP3   OH245372   2.777   3.793   0.867
15144TIP3    H145373   2.797   3.717   0.813
15144TIP3    H245374   2.810   3.770   0.954
15145TIP3   OH245375   4.737   2.838   3.281
15145TIP3    H145376   4.763   2.859   3.371
15145TIP3    H245377   4.769   2.749   3.267
15146TIP3   OH245378   2.015   6.031   1.382
15146TIP3    H145379   1.976   5.985   1.457
15146TIP3    H245380   1.949   6.096   1.359
15147TIP3   OH245381   1.574   0.809   1.506
15147TIP3    H145382   1.594   0.855   1.588
15147TIP3    H245383   1.503   0.860   1.467
15148TIP3   OH245384   1.671   2.416   4.587
15148TIP3    H145385   1.747   2.458   4.626
15148TIP3    H245386   1.608   2.487   4.574
15149TIP3   OH245387   5.569   6.196   0.149
15149TIP3    H145388   5.474   6.201   0.163
15149TIP3    H245389   5.580   6.206   0.054
15150TIP3   OH245390   5.327   3.914   3.696
15150TIP3    H145391   5.296   3.885   3.610
15150TIP3    H245392   5.415   3.949   3.679
15151TIP3   OH245393   3.906   2.782   4.248
15151TIP3    H145394   3.862   2.719   4.192
15151TIP3    H245395   3.929   2.732   4.327
15152TIP3   OH245396   3.660   5.469   3.309
15152TIP3    H145397   3.690   5.406   3.375
15152TIP3    H245398   3.614   5.416   3.244
15153TIP3   OH245399   3.671   0.880   2.027
15153TIP3    H145400   3.723   0.906   1.951
15153TIP3    H245401   3.617   0.808   1.996
15154TIP3   OH245402   5.216   4.330   4.668
15154TIP3    H145403   5.258   4.352   4.585
15154TIP3    H245404   5.208   4.414   4.713
15155TIP3   OH245405   0.893   3.516   4.039
15155TIP3    H145406   0.818   3.456   4.038
15155TIP3    H245407   0.854   3.603   4.032
15156TIP3   OH245408   5.539   6.715   3.576
15156TIP3    H145409   5.482   6.676   3.642
15156TIP3    H245410   5.489   6.711   3.495
15157TIP3   OH245411   3.918   6.561   5.014
15157TIP3    H145412   3.950   6.474   4.991
15157TIP3    H245413   3.823   6.552   5.014
15158TIP3   OH245414   7.002   2.151   1.085
15158TIP3    H145415   6.995   2.244   1.106
15158TIP3    H245416   7.092   2.128   1.107
15159TIP3   OH245417   5.543   2.124   5.281
15159TIP3    H145418   5.469   2.154   5.227
15159TIP3    H245419   5.556   2.033   5.256
15160TIP3   OH245420   5.368   3.726   1.306
15160TIP3    H145421   5.425   3.655   1.334
15160TIP3    H245422   5.281   3.701   1.337
15161TIP3   OH245423   2.968   1.082   3.659
15161TIP3    H145424   2.942   1.167   3.625
15161TIP3    H245425   3.044   1.058   3.606
15162TIP3   OH245426   7.990   2.908   1.851
15162TIP3    H145427   8.082   2.931   1.864
15162TIP3    H245428   7.990   2.850   1.775
15163TIP3   OH245429   1.750   4.435   2.064
15163TIP3    H145430   1.744   4.447   2.159
15163TIP3    H245431   1.708   4.351   2.047
15164TIP3   OH245432   5.381   4.809   1.711
15164TIP3    H145433   5.327   4.856   1.774
15164TIP3    H245434   5.370   4.857   1.629
15165TIP3   OH245435   7.211   4.154   5.072
15165TIP3    H145436   7.189   4.067   5.038
15165TIP3    H245437   7.214   4.210   4.995
15166TIP3   OH245438   6.994   5.083   5.097
15166TIP3    H145439   6.971   4.992   5.077
15166TIP3    H245440   6.987   5.129   5.014
15167TIP3   OH245441   4.638   5.650   3.330
15167TIP3    H145442   4.733   5.647   3.323
15167TIP3    H245443   4.608   5.566   3.295
15168TIP3   OH245444   1.892   1.521   2.265
15168TIP3    H145445   1.830   1.498   2.196
15168TIP3    H245446   1.901   1.616   2.258
15169TIP3   OH245447   6.397   1.766   3.532
15169TIP3    H145448   6.313   1.811   3.527
15169TIP3    H245449   6.456   1.830   3.572
15170TIP3   OH245450   1.111   5.832   4.687
15170TIP3    H145451   1.181   5.775   4.656
15170TIP3    H245452   1.138   5.920   4.661
15171TIP3   OH245453   4.416   3.697   6.687
15171TIP3    H145454   4.469   3.651   6.751
15171TIP3    H245455   4.381   3.773   6.734
15172TIP3   OH245456   0.766   6.485   1.167
15172TIP3    H145457   0.750   6.503   1.074
15172TIP3    H245458   0.835   6.546   1.191
15173TIP3   OH245459   2.131   6.177   2.809
15173TIP3    H145460   2.174   6.121   2.873
15173TIP3    H245461   2.194   6.248   2.793
15174TIP3   OH245462   3.188   0.049   6.125
15174TIP3    H145463   3.255   0.086   6.183
15174TIP3    H245464   3.234  -0.021   6.078
15175TIP3   OH245465   8.131   4.686   3.331
15175TIP3    H145466   8.157   4.778   3.320
15175TIP3    H245467   8.116   4.655   3.241
15176TIP3   OH245468   7.887   4.244   0.601
15176TIP3    H145469   7.857   4.153   0.605
15176TIP3    H245470   7.982   4.238   0.615
15177TIP3   OH245471   1.920   0.906   0.252
15177TIP3    H145472   2.001   0.902   0.303
15177TIP3    H245473   1.920   0.994   0.214
15178TIP3   OH245474   1.358   5.858   4.907
15178TIP3    H145475   1.425   5.906   4.859
15178TIP3    H245476   1.299   5.925   4.941
15179TIP3   OH245477   6.924   4.660   1.164
15179TIP3    H145478   6.898   4.599   1.094
15179TIP3    H245479   7.019   4.668   1.154
15180TIP3   OH245480   4.159   0.527   4.788
15180TIP3    H145481   4.173   0.435   4.764
15180TIP3    H245482   4.125   0.523   4.878
15181TIP3   OH245483   2.965   2.827   3.936
15181TIP3    H145484   3.022   2.877   3.993
15181TIP3    H245485   2.931   2.756   3.990
15182TIP3   OH245486   0.054   5.516   0.798
15182TIP3    H145487  -0.022   5.497   0.852
15182TIP3    H245488   0.129   5.499   0.855
15183TIP3   OH245489   4.570   0.369   2.583
15183TIP3    H145490   4.510   0.412   2.645
15183TIP3    H245491   4.519   0.364   2.501
15184TIP3   OH245492   4.180   0.040   1.663
15184TIP3    H145493   4.111   0.104   1.679
15184TIP3    H245494   4.252   0.091   1.625
15185TIP3   OH245495   2.702   0.308   5.528
15185TIP3    H145496   2.654   0.230   5.557
15185TIP3    H245497   2.678   0.376   5.591
15186TIP3   OH245498   5.697   3.493   2.250
15186TIP3    H145499   5.720   3.541   2.170
15186TIP3    H245500   5.648   3.556   2.303
15187TIP3   OH245501   4.197   3.192   2.661
15187TIP3    H145502   4.269   3.231   2.710
15187TIP3    H245503   4.151   3.137   2.724
15188TIP3   OH245504   6.741   0.010   6.000
15188TIP3    H145505   6.715   0.102   5.992
15188TIP3    H245506   6.708  -0.031   5.920
15189TIP3   OH245507   2.904   1.586   3.733
15189TIP3    H145508   2.836   1.532   3.772
15189TIP3    H245509   2.979   1.528   3.723
15190TIP3   OH245510   2.901   1.829   1.183
15190TIP3    H145511   2.967   1.760   1.185
15190TIP3    H245512   2.819   1.785   1.204
15191TIP3   OH245513   7.813   4.694   4.289
15191TIP3    H145514   7.805   4.678   4.195
15191TIP3    H245515   7.733   4.742   4.312
15192TIP3   OH245516   3.187   3.761   5.691
15192TIP3    H145517   3.256   3.770   5.625
15192TIP3    H245518   3.136   3.686   5.661
15193TIP3   OH245519   1.073   0.616   1.356
15193TIP3    H145520   1.090   0.710   1.348
15193TIP3    H245521   1.103   0.579   1.273
15194TIP3   OH245522   2.386   1.172   3.915
15194TIP3    H145523   2.325   1.144   3.847
15194TIP3    H245524   2.462   1.115   3.903
15195TIP3   OH245525   1.459   2.763   2.369
15195TIP3    H145526   1.534   2.710   2.344
15195TIP3    H245527   1.444   2.743   2.461
15196TIP3   OH245528   6.109   3.275   2.147
15196TIP3    H145529   6.017   3.288   2.171
15196TIP3    H245530   6.142   3.212   2.211
15197TIP3   OH245531   6.100   6.964   2.325
15197TIP3    H145532   6.181   7.002   2.292
15197TIP3    H245533   6.100   6.874   2.291
15198TIP3   OH245534   7.362   2.821   6.192
15198TIP3    H145535   7.318   2.739   6.170
15198TIP3    H245536   7.451   2.810   6.158
15199TIP3   OH245537   7.251   5.424   1.499
15199TIP3    H145538   7.307   5.499   1.477
15199TIP3    H245539   7.223   5.389   1.414
15200TIP3   OH245540   6.255   4.508   6.786
15200TIP3    H145541   6.189   4.480   6.850
15200TIP3    H245542   6.294   4.586   6.825
15201TIP3   OH245543   1.378   6.342   2.052
15201TIP3    H145544   1.371   6.248   2.032
15201TIP3    H245545   1.451   6.349   2.113
15202TIP3   OH245546   0.128   5.281   3.061
15202TIP3    H145547   0.216   5.320   3.059
15202TIP3    H245548   0.069   5.356   3.069
15203TIP3   OH245549   5.186   5.215   5.774
15203TIP3    H145550   5.281   5.206   5.766
15203TIP3    H245551   5.168   5.191   5.865
15204TIP3   OH245552   3.786   5.049   2.233
15204TIP3    H145553   3.834   4.974   2.267
15204TIP3    H245554   3.838   5.125   2.261
15205TIP3   OH245555   7.393   0.870   4.835
15205TIP3    H145556   7.412   0.963   4.830
15205TIP3    H245557   7.317   0.858   4.777
15206TIP3   OH245558   0.953   3.522   2.116
15206TIP3    H145559   0.916   3.549   2.200
15206TIP3    H245560   0.964   3.604   2.067
15207TIP3   OH245561   1.236   1.794   5.956
15207TIP3    H145562   1.227   1.741   6.035
15207TIP3    H245563   1.329   1.787   5.933
15208TIP3   OH245564   1.935   0.111   2.462
15208TIP3    H145565   1.896   0.029   2.494
15208TIP3    H245566   2.003   0.132   2.526
15209TIP3   OH245567   1.634   5.306   4.107
15209TIP3    H145568   1.579   5.238   4.144
15209TIP3    H245569   1.655   5.363   4.180
15210TIP3   OH245570   2.611   0.839   4.789
15210TIP3    H145571   2.645   0.827   4.878
15210TIP3    H245572   2.546   0.770   4.779
15211TIP3   OH245573   6.040   7.115   3.600
15211TIP3    H145574   6.039   7.106   3.695
15211TIP3    H245575   6.106   7.182   3.582
15212TIP3   OH245576   8.035   5.430   3.293
15212TIP3    H145577   8.082   5.438   3.210
15212TIP3    H245578   7.970   5.500   3.290
15213TIP3   OH245579   8.134   2.942   0.933
15213TIP3    H145580   8.149   2.858   0.975
15213TIP3    H245581   8.165   2.930   0.843
15214TIP3   OH245582   0.163   4.742   4.605
15214TIP3    H145583   0.073   4.715   4.626
15214TIP3    H245584   0.199   4.668   4.557
15215TIP3   OH245585   3.977   1.330   2.077
15215TIP3    H145586   3.938   1.399   2.131
15215TIP3    H245587   3.928   1.333   1.995
15216TIP3   OH245588   3.386   6.547  -0.028
15216TIP3    H145589   3.445   6.596   0.028
15216TIP3    H245590   3.311   6.527   0.029
15217TIP3   OH245591   6.282   3.366   5.601
15217TIP3    H145592   6.196   3.350   5.639
15217TIP3    H245593   6.274   3.452   5.560
15218TIP3   OH245594   2.284   6.437   5.167
15218TIP3    H145595   2.190   6.421   5.177
15218TIP3    H245596   2.301   6.424   5.074
15219TIP3   OH245597   5.496   5.116   1.204
15219TIP3    H145598   5.460   5.203   1.223
15219TIP3    H245599   5.421   5.064   1.174
15220TIP3   OH245600   0.935   2.321   2.328
15220TIP3    H145601   0.901   2.393   2.381
15220TIP3    H245602   0.910   2.242   2.376
15221TIP3   OH245603   6.646   7.615   6.433
15221TIP3    H145604   6.608   7.582   6.352
15221TIP3    H245605   6.671   7.537   6.482
15222TIP3   OH245606   5.065   4.077   4.695
15222TIP3    H145607   5.118   4.156   4.699
15222TIP3    H245608   5.005   4.092   4.622
15223TIP3   OH245609   2.635   4.449   0.423
15223TIP3    H145610   2.624   4.536   0.462
15223TIP3    H245611   2.689   4.464   0.346
15224TIP3   OH245612   0.455   4.211   3.250
15224TIP3    H145613   0.383   4.260   3.211
15224TIP3    H245614   0.436   4.211   3.344
15225TIP3   OH245615   1.897   5.558   0.632
15225TIP3    H145616   1.846   5.487   0.671
15225TIP3    H245617   1.910   5.532   0.541
15226TIP3   OH245618   7.586   1.240   1.459
15226TIP3    H145619   7.504   1.257   1.412
15226TIP3    H245620   7.560   1.236   1.551
15227TIP3   OH245621   5.380   4.714   4.601
15227TIP3    H145622   5.396   4.784   4.665
15227TIP3    H245623   5.298   4.674   4.630
15228TIP3   OH245624   7.346   7.205   1.024
15228TIP3    H145625   7.336   7.288   0.978
15228TIP3    H245626   7.357   7.230   1.116
15229TIP3   OH245627   4.648   2.232   4.403
15229TIP3    H145628   4.714   2.290   4.440
15229TIP3    H245629   4.697   2.166   4.354
15230TIP3   OH245630   7.667   2.402   6.513
15230TIP3    H145631   7.656   2.482   6.462
15230TIP3    H245632   7.694   2.432   6.600
15231TIP3   OH245633   2.919   1.773   2.006
15231TIP3    H145634   2.862   1.711   1.961
15231TIP3    H245635   2.860   1.825   2.060
15232TIP3   OH245636   5.162   0.860   4.748
15232TIP3    H145637   5.099   0.821   4.688
15232TIP3    H245638   5.130   0.837   4.835
15233TIP3   OH245639   7.937   3.191   4.793
15233TIP3    H145640   7.923   3.283   4.774
15233TIP3    H245641   7.970   3.154   4.711
15234TIP3   OH245642   1.885   1.830   1.466
15234TIP3    H145643   1.793   1.814   1.450
15234TIP3    H245644   1.887   1.900   1.531
15235TIP3   OH245645   6.490   4.615   5.024
15235TIP3    H145646   6.510   4.655   5.108
15235TIP3    H245647   6.471   4.524   5.044
15236TIP3   OH245648   2.679   4.868   2.023
15236TIP3    H145649   2.735   4.906   1.955
15236TIP3    H245650   2.718   4.783   2.042
15237TIP3   OH245651   2.632   2.268   2.988
15237TIP3    H145652   2.596   2.307   3.068
15237TIP3    H245653   2.573   2.296   2.919
15238TIP3   OH245654   4.762   6.827   6.134
15238TIP3    H145655   4.682   6.876   6.152
15238TIP3    H245656   4.822   6.893   6.097
15239TIP3   OH245657   3.873   0.170   1.936
15239TIP3    H145658   3.854   0.133   1.850
15239TIP3    H245659   3.801   0.231   1.952
15240TIP3   OH245660   8.224   2.238   1.531
15240TIP3    H145661   8.242   2.218   1.440
15240TIP3    H245662   8.310   2.241   1.573
15241TIP3   OH245663   7.877   0.238   6.818
15241TIP3    H145664   7.826   0.179   6.874
15241TIP3    H245665   7.852   0.326   6.847
15242TIP3   OH245666   5.382   1.686   2.063
15242TIP3    H145667   5.400   1.780   2.056
15242TIP3    H245668   5.346   1.662   1.978
15243TIP3   OH245669   5.758   6.225   2.080
15243TIP3    H145670   5.761   6.219   2.175
15243TIP3    H245671   5.834   6.174   2.051
15244TIP3   OH245672   7.881   4.049   6.393
15244TIP3    H145673   7.843   4.046   6.481
15244TIP3    H245674   7.947   4.119   6.399
15245TIP3   OH245675   6.443   7.078   6.597
15245TIP3    H145676   6.485   7.102   6.514
15245TIP3    H245677   6.364   7.133   6.601
15246TIP3   OH245678   0.117   1.772   1.087
15246TIP3    H145679   0.120   1.714   1.164
15246TIP3    H245680   0.127   1.713   1.012
15247TIP3   OH245681   2.698   2.596   5.870
15247TIP3    H145682   2.695   2.503   5.892
15247TIP3    H245683   2.791   2.617   5.866
15248TIP3   OH245684   2.713   0.806   2.343
15248TIP3    H145685   2.758   0.856   2.275
15248TIP3    H245686   2.711   0.716   2.310
15249TIP3   OH245687   1.955   7.198   1.943
15249TIP3    H145688   2.023   7.225   1.881
15249TIP3    H245689   1.874   7.236   1.909
15250TIP3   OH245690   0.337   3.935   1.196
15250TIP3    H145691   0.378   3.859   1.238
15250TIP3    H245692   0.410   3.988   1.167
15251TIP3   OH245693   0.775   0.413   1.200
15251TIP3    H145694   0.869   0.397   1.211
15251TIP3    H245695   0.750   0.355   1.127
15252TIP3   OH245696   6.984   4.290   2.763
15252TIP3    H145697   7.053   4.350   2.790
15252TIP3    H245698   6.924   4.287   2.838
15253TIP3   OH245699   7.316   6.609   3.599
15253TIP3    H145700   7.359   6.585   3.681
15253TIP3    H245701   7.223   6.589   3.614
15254TIP3   OH245702   3.660   7.525   3.066
15254TIP3    H145703   3.739   7.578   3.062
15254TIP3    H245704   3.667   7.467   2.990
15255TIP3   OH245705   5.948   3.988   2.877
15255TIP3    H145706   6.021   3.955   2.929
15255TIP3    H245707   5.871   3.945   2.913
15256TIP3   OH245708   4.369   3.273   5.255
15256TIP3    H145709   4.329   3.287   5.341
15256TIP3    H245710   4.448   3.326   5.256
15257TIP3   OH245711   6.364   0.208   4.310
15257TIP3    H145712   6.326   0.148   4.374
15257TIP3    H245713   6.374   0.290   4.357
15258TIP3   OH245714   3.606   4.153   5.448
15258TIP3    H145715   3.650   4.097   5.512
15258TIP3    H245716   3.522   4.173   5.490
15259TIP3   OH245717   4.812   6.829   4.080
15259TIP3    H145718   4.734   6.789   4.120
15259TIP3    H245719   4.861   6.865   4.153
15260TIP3   OH245720   3.974   3.514   2.067
15260TIP3    H145721   4.022   3.586   2.108
15260TIP3    H245722   3.985   3.527   1.973
15261TIP3   OH245723   3.826   6.307   2.682
15261TIP3    H145724   3.843   6.248   2.609
15261TIP3    H245725   3.743   6.278   2.718
15262TIP3   OH245726   1.379   6.981   1.702
15262TIP3    H145727   1.369   7.024   1.617
15262TIP3    H245728   1.463   6.936   1.696
15263TIP3   OH245729   6.795   6.127   1.291
15263TIP3    H145730   6.733   6.152   1.221
15263TIP3    H245731   6.783   6.194   1.358
15264TIP3   OH245732   1.779   2.360   2.570
15264TIP3    H145733   1.777   2.310   2.488
15264TIP3    H245734   1.815   2.299   2.634
15265TIP3   OH245735   7.827   0.709   4.445
15265TIP3    H145736   7.738   0.687   4.415
15265TIP3    H245737   7.883   0.693   4.369
15266TIP3   OH245738   6.018   5.081   6.666
15266TIP3    H145739   5.950   5.021   6.635
15266TIP3    H245740   5.986   5.111   6.751
15267TIP3   OH245741   3.641   6.276   5.849
15267TIP3    H145742   3.641   6.184   5.823
15267TIP3    H245743   3.626   6.274   5.943
15268TIP3   OH245744   2.494   1.864   0.600
15268TIP3    H145745   2.463   1.793   0.545
15268TIP3    H245746   2.416   1.917   0.616
15269TIP3   OH245747   5.399   0.523   1.052
15269TIP3    H145748   5.440   0.520   1.138
15269TIP3    H245749   5.341   0.599   1.056
15270TIP3   OH245750   0.048   0.658   0.208
15270TIP3    H145751   0.015   0.713   0.136
15270TIP3    H245752   0.094   0.720   0.265
15271TIP3   OH245753   4.937   2.040   4.093
15271TIP3    H145754   4.852   2.019   4.132
15271TIP3    H245755   4.983   1.956   4.089
15272TIP3   OH245756   7.376   5.092   6.683
15272TIP3    H145757   7.455   5.143   6.701
15272TIP3    H245758   7.328   5.145   6.619
15273TIP3   OH245759   4.153   7.506   4.889
15273TIP3    H145760   4.085   7.529   4.953
15273TIP3    H245761   4.130   7.557   4.811
15274TIP3   OH245762   0.336   1.811   2.055
15274TIP3    H145763   0.352   1.906   2.059
15274TIP3    H245764   0.374   1.777   2.136
15275TIP3   OH245765   2.863   4.822   0.985
15275TIP3    H145766   2.897   4.854   0.901
15275TIP3    H245767   2.924   4.752   1.010
15276TIP3   OH245768   4.334   3.902   2.539
15276TIP3    H145769   4.312   3.839   2.470
15276TIP3    H245770   4.395   3.963   2.498
15277TIP3   OH245771   1.348   6.118   5.174
15277TIP3    H145772   1.357   6.205   5.213
15277TIP3    H245773   1.255   6.096   5.187
15278TIP3   OH245774   4.132   1.418   2.954
15278TIP3    H145775   4.113   1.379   2.868
15278TIP3    H245776   4.135   1.512   2.937
15279TIP3   OH245777   2.469   0.812   0.362
15279TIP3    H145778   2.564   0.813   0.351
15279TIP3    H245779   2.454   0.745   0.430
15280TIP3   OH245780   7.933   2.822   0.034
15280TIP3    H145781   7.903   2.893   0.091
15280TIP3    H245782   7.870   2.751   0.048
15281TIP3   OH245783   0.925   0.202   1.515
15281TIP3    H145784   0.856   0.137   1.501
15281TIP3    H245785   0.948   0.232   1.427
15282TIP3   OH245786   2.867   3.542   0.122
15282TIP3    H145787   2.799   3.474   0.125
15282TIP3    H245788   2.821   3.622   0.147
15283TIP3   OH245789   7.216   1.613   2.293
15283TIP3    H145790   7.160   1.645   2.363
15283TIP3    H245791   7.294   1.581   2.337
15284TIP3   OH245792   0.188   0.467   0.076
15284TIP3    H145793   0.136   0.528   0.129
15284TIP3    H245794   0.171   0.381   0.115
15285TIP3   OH245795   3.627   1.077   5.238
15285TIP3    H145796   3.668   1.106   5.156
15285TIP3    H245797   3.539   1.049   5.212
15286TIP3   OH245798   6.274   6.849   6.571
15286TIP3    H145799   6.351   6.905   6.570
15286TIP3    H245800   6.247   6.847   6.663
15287TIP3   OH245801   2.269   6.088   4.380
15287TIP3    H145802   2.222   6.095   4.463
15287TIP3    H245803   2.273   5.994   4.363
15288TIP3   OH245804   7.065   3.853   5.457
15288TIP3    H145805   7.033   3.933   5.414
15288TIP3    H245806   7.114   3.808   5.389
15289TIP3   OH245807   5.665   5.160   3.507
15289TIP3    H145808   5.705   5.233   3.461
15289TIP3    H245809   5.730   5.090   3.505
15290TIP3   OH245810   4.587   4.333   4.559
15290TIP3    H145811   4.509   4.387   4.569
15290TIP3    H245812   4.600   4.328   4.464
15291TIP3   OH245813   1.869   3.198   2.883
15291TIP3    H145814   1.794   3.175   2.937
15291TIP3    H245815   1.921   3.258   2.936
15292TIP3   OH245816   2.540   6.254   1.275
15292TIP3    H145817   2.478   6.247   1.202
15292TIP3    H245818   2.621   6.284   1.234
15293TIP3   OH245819   4.297   4.929   3.705
15293TIP3    H145820   4.246   4.849   3.687
15293TIP3    H245821   4.386   4.907   3.679
15294TIP3   OH245822   4.345   5.123   1.629
15294TIP3    H145823   4.402   5.064   1.677
15294TIP3    H245824   4.313   5.185   1.695
15295TIP3   OH245825   2.219   7.206   3.855
15295TIP3    H145826   2.232   7.295   3.888
15295TIP3    H245827   2.130   7.207   3.819
15296TIP3   OH245828   8.310   7.376   2.935
15296TIP3    H145829   8.276   7.463   2.911
15296TIP3    H245830   8.396   7.394   2.974
15297TIP3   OH245831   4.201   4.831   2.337
15297TIP3    H145832   4.199   4.830   2.433
15297TIP3    H245833   4.282   4.786   2.314
15298TIP3   OH245834   8.053   3.527   2.163
15298TIP3    H145835   8.035   3.461   2.096
15298TIP3    H245836   8.121   3.582   2.125
15299TIP3   OH245837   5.195   4.729   3.769
15299TIP3    H145838   5.159   4.815   3.790
15299TIP3    H245839   5.177   4.676   3.847
15300TIP3   OH245840   2.675   2.098   3.920
15300TIP3    H145841   2.673   2.168   3.986
15300TIP3    H245842   2.765   2.067   3.921
15301TIP3   OH245843   1.144   6.569   6.133
15301TIP3    H145844   1.079   6.499   6.132
15301TIP3    H245845   1.098   6.645   6.097
15302TIP3   OH245846   8.329   1.342   6.770
15302TIP3    H145847   8.337   1.401   6.696
15302TIP3    H245848   8.293   1.261   6.733
15303TIP3   OH245849   6.686   1.552   0.045
15303TIP3    H145850   6.752   1.607   0.088
15303TIP3    H245851   6.661   1.602  -0.033
15304TIP3   OH245852   1.957   1.361   5.349
15304TIP3    H145853   1.953   1.407   5.265
15304TIP3    H245854   2.009   1.283   5.332
15305TIP3   OH245855   4.629   0.915   3.143
15305TIP3    H145856   4.646   0.992   3.198
15305TIP3    H245857   4.543   0.932   3.104
15306TIP3   OH245858   4.469   0.853   5.057
15306TIP3    H145859   4.539   0.797   5.023
15306TIP3    H245860   4.509   0.903   5.127
15307TIP3   OH245861   8.069   2.286   0.494
15307TIP3    H145862   8.039   2.229   0.565
15307TIP3    H245863   8.069   2.230   0.417
15308TIP3   OH245864   4.537   4.221   1.881
15308TIP3    H145865   4.509   4.202   1.791
15308TIP3    H245866   4.503   4.148   1.933
15309TIP3   OH245867   0.982   3.360   5.780
15309TIP3    H145868   1.077   3.369   5.788
15309TIP3    H245869   0.949   3.449   5.790
15310TIP3   OH245870   1.440   1.695   6.452
15310TIP3    H145871   1.500   1.728   6.519
15310TIP3    H245872   1.363   1.666   6.501
15311TIP3   OH245873   1.420   2.847   5.069
15311TIP3    H145874   1.338   2.895   5.055
15311TIP3    H245875   1.395   2.755   5.065
15312TIP3   OH245876   5.155   7.672   2.689
15312TIP3    H145877   5.229   7.613   2.675
15312TIP3    H245878   5.084   7.634   2.638
15313TIP3   OH245879   5.498   5.378   2.955
15313TIP3    H145880   5.577   5.366   3.007
15313TIP3    H245881   5.426   5.376   3.019
15314TIP3   OH245882   2.722   3.513   2.552
15314TIP3    H145883   2.769   3.542   2.631
15314TIP3    H245884   2.743   3.579   2.486
15315TIP3   OH245885   5.636   0.358   0.887
15315TIP3    H145886   5.727   0.373   0.859
15315TIP3    H245887   5.625   0.414   0.963
15316TIP3   OH245888   6.923   5.794   4.079
15316TIP3    H145889   6.936   5.699   4.078
15316TIP3    H245890   6.855   5.809   4.013
15317TIP3   OH245891   1.370   2.204   6.722
15317TIP3    H145892   1.454   2.243   6.750
15317TIP3    H245893   1.384   2.110   6.728
15318TIP3   OH245894   1.140   0.880   6.101
15318TIP3    H145895   1.197   0.812   6.138
15318TIP3    H245896   1.172   0.962   6.139
15319TIP3   OH245897   7.747   0.492   1.195
15319TIP3    H145898   7.692   0.417   1.219
15319TIP3    H245899   7.832   0.473   1.236
15320TIP3   OH245900   5.594   1.318   4.059
15320TIP3    H145901   5.635   1.402   4.039
15320TIP3    H245902   5.651   1.253   4.018
15321TIP3   OH245903   3.046   7.671   5.010
15321TIP3    H145904   3.054   7.766   5.017
15321TIP3    H245905   3.045   7.654   4.915
15322TIP3   OH245906   4.278   7.842   3.621
15322TIP3    H145907   4.224   7.778   3.575
15322TIP3    H245908   4.228   7.924   3.616
15323TIP3   OH245909   1.371   5.815   6.327
15323TIP3    H145910   1.393   5.850   6.241
15323TIP3    H245911   1.360   5.892   6.383
15324TIP3   OH245912   6.645   4.980   2.769
15324TIP3    H145913   6.587   5.043   2.813
15324TIP3    H245914   6.700   5.034   2.712
15325TIP3   OH245915   1.845   4.432   4.091
15325TIP3    H145916   1.890   4.355   4.058
15325TIP3    H245917   1.884   4.505   4.043
15326TIP3   OH245918   1.700   3.774   3.604
15326TIP3    H145919   1.688   3.799   3.696
15326TIP3    H245920   1.636   3.704   3.590
15327TIP3   OH245921   2.181   0.910   6.719
15327TIP3    H145922   2.202   0.956   6.801
15327TIP3    H245923   2.262   0.863   6.697
15328TIP3   OH245924   4.905   3.530   2.704
15328TIP3    H145925   4.931   3.621   2.696
15328TIP3    H245926   4.866   3.508   2.620
15329TIP3   OH245927   4.661   3.748   6.244
15329TIP3    H145928   4.700   3.833   6.261
15329TIP3    H245929   4.566   3.764   6.244
15330TIP3   OH245930   6.176   4.846   0.321
15330TIP3    H145931   6.267   4.869   0.339
15330TIP3    H245932   6.134   4.849   0.407
15331TIP3   OH245933   7.625   6.406   3.927
15331TIP3    H145934   7.645   6.442   4.013
15331TIP3    H245935   7.629   6.311   3.939
15332TIP3   OH245936   2.069   2.072   6.393
15332TIP3    H145937   2.152   2.119   6.393
15332TIP3    H245938   2.047   2.060   6.485
15333TIP3   OH245939   5.233   6.542   5.653
15333TIP3    H145940   5.297   6.588   5.599
15333TIP3    H245941   5.148   6.569   5.619
15334TIP3   OH245942   4.892   5.487   2.094
15334TIP3    H145943   4.956   5.428   2.054
15334TIP3    H245944   4.935   5.572   2.095
15335TIP3   OH245945   4.304   1.531   5.862
15335TIP3    H145946   4.332   1.451   5.907
15335TIP3    H245947   4.385   1.572   5.833
15336TIP3   OH245948   0.280   7.385   1.977
15336TIP3    H145949   0.300   7.318   2.042
15336TIP3    H245950   0.258   7.463   2.029
15337TIP3   OH245951   1.378   1.345   1.972
15337TIP3    H145952   1.290   1.324   2.001
15337TIP3    H245953   1.419   1.390   2.046
15338TIP3   OH245954   2.771   2.276   4.184
15338TIP3    H145955   2.742   2.358   4.224
15338TIP3    H245956   2.837   2.302   4.120
15339TIP3   OH245957   8.145   1.338   0.642
15339TIP3    H145958   8.092   1.265   0.612
15339TIP3    H245959   8.099   1.416   0.611
15340TIP3   OH245960   0.652   3.018   4.747
15340TIP3    H145961   0.595   2.973   4.810
15340TIP3    H245962   0.740   2.984   4.765
15341TIP3   OH245963   3.807   2.302   4.013
15341TIP3    H145964   3.782   2.262   3.930
15341TIP3    H245965   3.727   2.298   4.066
15342TIP3   OH245966   2.472   2.917   5.972
15342TIP3    H145967   2.554   2.934   5.926
15342TIP3    H245968   2.406   2.912   5.903
15343TIP3   OH245969   7.603   5.997   4.579
15343TIP3    H145970   7.659   6.016   4.504
15343TIP3    H245971   7.652   5.933   4.630
15344TIP3   OH245972   0.300   5.695   3.928
15344TIP3    H145973   0.272   5.751   4.001
15344TIP3    H245974   0.378   5.738   3.893
15345TIP3   OH245975   2.181   1.648   4.817
15345TIP3    H145976   2.159   1.572   4.764
15345TIP3    H245977   2.259   1.685   4.776
15346TIP3   OH245978   3.120   2.479   0.276
15346TIP3    H145979   3.129   2.574   0.287
15346TIP3    H245980   3.086   2.448   0.360
15347TIP3   OH245981   4.280   2.547   1.692
15347TIP3    H145982   4.347   2.614   1.680
15347TIP3    H245983   4.211   2.570   1.630
15348TIP3   OH245984   7.859   5.305   0.588
15348TIP3    H145985   7.900   5.219   0.584
15348TIP3    H245986   7.781   5.297   0.532
15349TIP3   OH245987   1.194   7.533   2.458
15349TIP3    H145988   1.182   7.561   2.367
15349TIP3    H245989   1.285   7.504   2.462
15350TIP3   OH245990   4.613   5.254   0.521
15350TIP3    H145991   4.601   5.234   0.429
15350TIP3    H245992   4.611   5.350   0.525
15351TIP3   OH245993   4.239   5.275   0.651
15351TIP3    H145994   4.229   5.366   0.624
15351TIP3    H245995   4.181   5.226   0.593
15352TIP3   OH245996   0.249   3.070   1.125
15352TIP3    H145997   0.273   3.009   1.195
15352TIP3    H245998   0.245   3.156   1.168
15353TIP3   OH245999   2.865   5.492   0.582
15353TIP3    H146000   2.875   5.494   0.677
15353TIP3    H246001   2.786   5.441   0.567
15354TIP3   OH246002   5.952   0.388   1.571
15354TIP3    H146003   5.924   0.399   1.480
15354TIP3    H246004   6.045   0.409   1.570
15355TIP3   OH246005   7.083   0.985   3.639
15355TIP3    H146006   7.023   0.974   3.565
15355TIP3    H246007   7.028   0.977   3.717
15356TIP3   OH246008   7.740   1.206   6.383
15356TIP3    H146009   7.669   1.154   6.343
15356TIP3    H246010   7.775   1.150   6.452
15357TIP3   OH246011   5.828   4.936   3.370
15357TIP3    H146012   5.892   4.985   3.422
15357TIP3    H246013   5.840   4.968   3.281
15358TIP3   OH246014   4.311   2.958   1.799
15358TIP3    H146015   4.390   3.005   1.826
15358TIP3    H246016   4.257   2.955   1.878
15359TIP3   OH246017   7.900   5.192   4.033
15359TIP3    H146018   7.840   5.249   3.985
15359TIP3    H246019   7.900   5.110   3.984
15360TIP3   OH246020   4.003   2.625   4.455
15360TIP3    H146021   3.985   2.593   4.544
15360TIP3    H246022   4.000   2.547   4.400
15361TIP3   OH246023   6.244   3.431   3.983
15361TIP3    H146024   6.169   3.461   4.035
15361TIP3    H246025   6.319   3.477   4.019
15362TIP3   OH246026   6.819   6.308   3.562
15362TIP3    H146027   6.864   6.364   3.500
15362TIP3    H246028   6.729   6.342   3.565
15363TIP3   OH246029   3.698   4.946   1.771
15363TIP3    H146030   3.704   5.040   1.789
15363TIP3    H246031   3.633   4.914   1.834
15364TIP3   OH246032   2.637   2.189   1.453
15364TIP3    H146033   2.685   2.271   1.466
15364TIP3    H246034   2.629   2.180   1.358
15365TIP3   OH246035   1.256   4.373   3.138
15365TIP3    H146036   1.323   4.360   3.071
15365TIP3    H246037   1.289   4.326   3.215
15366TIP3   OH246038   7.320   6.728   5.690
15366TIP3    H146039   7.317   6.709   5.596
15366TIP3    H246040   7.296   6.820   5.696
15367TIP3   OH246041   0.398   0.673   6.467
15367TIP3    H146042   0.429   0.747   6.414
15367TIP3    H246043   0.468   0.660   6.531
15368TIP3   OH246044   2.415   2.234   4.514
15368TIP3    H146045   2.474   2.249   4.588
15368TIP3    H246046   2.429   2.142   4.491
15369TIP3   OH246047   1.981   7.002   4.764
15369TIP3    H146048   2.071   7.033   4.775
15369TIP3    H246049   1.933   7.041   4.837
15370TIP3   OH246050   4.145   5.778   4.468
15370TIP3    H146051   4.188   5.741   4.392
15370TIP3    H246052   4.208   5.842   4.502
15371TIP3   OH246053   1.582   5.677   3.208
15371TIP3    H146054   1.638   5.671   3.131
15371TIP3    H246055   1.588   5.769   3.234
   8.39643   7.91623   6.85566   0.00000   0.00000  -2.79881   0.00000  -2.79881  -3.95812
