Title
29212
    1ASP      N    1   2.078   2.767   3.101  0.1856  0.4045 -0.1270
    1ASP    HT1    2   2.104   2.814   3.012  1.9809 -0.8653 -0.3413
    1ASP    HT2    3   2.101   2.830   3.180 -2.8033  3.8927 -1.7541
    1ASP    HT3    4   1.980   2.734   3.114  0.0690  0.3920 -0.9635
    1ASP     CA    5   2.161   2.642   3.121 -0.2253 -0.3929  0.2969
    1ASP     HA    6   2.137   2.613   3.222  0.5367  0.3315  0.6962
    1ASP     CB    7   2.112   2.528   3.022 -0.1859 -1.1841  0.0835
    1ASP    HB1    8   2.170   2.434   3.034  0.6577 -0.5928  0.7501
    1ASP    HB2    9   2.125   2.553   2.915  0.3240 -1.7072  0.0154
    1ASP     CG   10   1.971   2.491   3.049  0.3128  0.7466 -0.3454
    1ASP    OD1   11   1.937   2.375   3.000  0.2849 -0.5657  0.3358
    1ASP    OD2   12   1.899   2.554   3.133 -0.0029  0.1151 -0.0343
    1ASP      C   13   2.309   2.665   3.110 -0.0561  0.1035 -0.6785
    1ASP      O   14   2.357   2.777   3.086 -0.1342  0.5855 -0.0955
    2GLY      N   15   2.390   2.563   3.139 -0.5474 -0.2859  0.0190
    2GLY     HN   16   2.343   2.477   3.152 -0.0048 -0.4895  0.7079
    2GLY     CA   17   2.535   2.564   3.138  0.4625 -0.2641 -0.2632
    2GLY    HA1   18   2.572   2.621   3.054 -0.3114 -0.3240 -0.6608
    2GLY    HA2   19   2.558   2.462   3.111 -1.5098 -0.9595  0.5068
    2GLY      C   20   2.598   2.603   3.263 -0.0229  0.2362 -0.0187
    2GLY      O   21   2.542   2.659   3.356  0.0071  0.4741 -0.2079
    3ASP      N   22   2.723   2.563   3.274  0.3094 -0.3523 -0.3356
    3ASP     HN   23   2.772   2.511   3.205  1.4403  2.6745 -2.0456
    3ASP     CA   24   2.790   2.573   3.404  0.3041 -0.0318 -0.4993
    3ASP     HA   25   2.718   2.549   3.481 -1.1924  0.4531 -1.6988
    3ASP     CB   26   2.913   2.475   3.422 -0.5157 -0.5945  0.0032
    3ASP    HB1   27   2.954   2.486   3.525  0.8526 -3.3423 -0.1481
    3ASP    HB2   28   2.993   2.481   3.345 -0.0387 -1.4051  0.4196
    3ASP     CG   29   2.874   2.332   3.425  0.3280 -0.4406 -0.4781
    3ASP    OD1   30   2.777   2.294   3.497 -0.0705  0.2617  0.4266
    3ASP    OD2   31   2.948   2.251   3.366  0.1001  0.6126  0.4931
    3ASP      C   32   2.838   2.714   3.424 -1.0059  0.5786 -0.1206
    3ASP      O   33   2.916   2.776   3.348  0.0578 -0.0219 -0.6442
    4GLY      N   34   2.793   2.780   3.532 -0.2227  0.5277  0.3059
    4GLY     HN   35   2.722   2.737   3.586 -1.5160 -0.6266 -2.1770
    4GLY     CA   36   2.843   2.906   3.571 -0.2389 -0.0029 -1.3782
    4GLY    HA1   37   2.797   2.914   3.669  1.0743  1.3026 -0.8155
    4GLY    HA2   38   2.822   2.985   3.501  1.3706  1.3815 -0.3745
    4GLY      C   39   2.991   2.916   3.603  0.6781 -0.0414 -0.1778
    4GLY      O   40   3.079   2.833   3.572  0.5451 -0.6936  0.2337
    5PRO      N   41   3.031   3.030   3.663  0.1603  0.2691 -0.2466
    5PRO     CD   42   2.937   3.129   3.712 -0.8282 -0.5346  0.5555
    5PRO    HD1   43   2.871   3.093   3.793 -0.2150 -1.0469  0.8299
    5PRO    HD2   44   2.884   3.174   3.625  0.7568 -0.9226 -0.6530
    5PRO     CA   45   3.148   3.032   3.743 -0.4312 -0.7206  0.7922
    5PRO     HA   46   3.231   3.058   3.679 -0.7025  2.0693  1.4441
    5PRO     CB   47   3.128   3.152   3.837  0.5382  0.2404  0.2836
    5PRO    HB1   48   3.221   3.213   3.831 -0.1590  1.1839 -2.3358
    5PRO    HB2   49   3.085   3.123   3.935 -2.0433  2.6976  0.0276
    5PRO     CG   50   3.023   3.239   3.768  0.0189 -0.3719  0.2924
    5PRO    HG1   51   2.967   3.305   3.837 -1.8553 -1.6628  0.0652
    5PRO    HG2   52   3.066   3.285   3.677 -2.2768 -0.4704 -0.9102
    5PRO      C   53   3.191   2.908   3.828 -0.3049 -0.8462  0.3697
    5PRO      O   54   3.102   2.855   3.897 -0.0831  0.2630 -0.2907
    6GLY      N   55   3.320   2.872   3.827  0.8913 -0.0782  0.2475
    6GLY     HN   56   3.385   2.929   3.778 -0.6217  0.8331 -0.8173
    6GLY     CA   57   3.380   2.759   3.907 -0.5905  0.0175  0.0122
    6GLY    HA1   58   3.485   2.776   3.894 -0.9776  3.1396  0.1422
    6GLY    HA2   59   3.337   2.666   3.873  3.5936 -2.1711  0.1562
    6GLY      C   60   3.350   2.767   4.057  0.5439 -0.6132  0.0005
    6GLY      O   61   3.334   2.880   4.113  0.8766 -0.5227  0.3226
    7ASP      N   62   3.345   2.651   4.122  0.0876 -0.5300  0.2064
    7ASP     HN   63   3.371   2.570   4.071 -1.5011  0.5630 -2.5679
    7ASP     CA   64   3.305   2.635   4.259 -0.8524 -0.1757 -0.0625
    7ASP     HA   65   3.215   2.695   4.257 -0.2582  0.7069 -0.7381
    7ASP     CB   66   3.274   2.488   4.292  0.0891 -0.8145  0.5296
    7ASP    HB1   67   3.275   2.466   4.401  0.2008 -3.4513  0.0770
    7ASP    HB2   68   3.359   2.421   4.264  0.3240 -0.3284  0.0730
    7ASP     CG   69   3.149   2.439   4.228  0.5241 -0.1042 -0.0075
    7ASP    OD1   70   3.125   2.316   4.241  0.0487  0.3761 -0.1727
    7ASP    OD2   71   3.073   2.517   4.164 -0.4547  0.1822  0.0104
    7ASP      C   72   3.409   2.694   4.354  0.1065 -0.1677 -0.3841
    7ASP      O   73   3.530   2.693   4.320  0.0395  0.2342  0.2763
    8PRO      N   74   3.372   2.766   4.472  0.1312  0.3466 -0.0269
    8PRO     CD   75   3.237   2.776   4.523 -0.4475 -0.9798 -0.3836
    8PRO    HD1   76   3.178   2.682   4.515 -0.3987 -1.0487  0.0132
    8PRO    HD2   77   3.182   2.860   4.477  1.4360 -0.1111 -1.1337
    8PRO     CA   78   3.467   2.813   4.571  0.1246  0.7744 -0.1574
    8PRO     HA   79   3.532   2.876   4.512 -0.1418 -0.2378 -1.5614
    8PRO     CB   80   3.384   2.885   4.684  0.5579 -0.2708 -0.4059
    8PRO    HB1   81   3.363   2.992   4.664 -1.5170 -0.8124 -1.3657
    8PRO    HB2   82   3.439   2.879   4.781  1.4761  0.8139 -0.8316
    8PRO     CG   83   3.253   2.807   4.677 -0.0669 -0.3313 -0.7792
    8PRO    HG1   84   3.260   2.720   4.745  2.2260  2.2415  2.5707
    8PRO    HG2   85   3.168   2.872   4.708  0.0231  0.3463 -1.8966
    8PRO      C   86   3.553   2.700   4.627 -0.0443 -0.4143  0.4980
    8PRO      O   87   3.506   2.593   4.662 -0.1960  0.2045  0.0568
    9GLY      N   88   3.685   2.719   4.657 -0.0459 -0.2273 -0.3292
    9GLY     HN   89   3.728   2.800   4.618 -1.0532  0.1745 -0.6480
    9GLY     CA   90   3.776   2.636   4.734 -0.1619 -0.0839 -0.8515
    9GLY    HA1   91   3.873   2.682   4.725 -0.8018  1.7281  0.8089
    9GLY    HA2   92   3.766   2.533   4.703  1.8882 -1.4575  2.5721
    9GLY      C   93   3.740   2.641   4.884  0.8865  0.1413 -0.3116
    9GLY      O   94   3.632   2.671   4.937 -0.0977  0.4381 -0.4602
   10ASP      N   95   3.841   2.616   4.965 -0.4917 -0.4202 -0.4375
   10ASP     HN   96   3.934   2.597   4.935 -0.0147 -0.5392  0.9930
   10ASP     CA   97   3.820   2.582   5.100  0.5896  0.5064  0.2135
   10ASP     HA   98   3.728   2.526   5.105  0.3114  0.8551 -0.7215
   10ASP     CB   99   3.932   2.486   5.153 -0.6741 -0.3711 -0.5318
   10ASP    HB1  100   3.913   2.478   5.262  0.6423  0.9101 -0.1886
   10ASP    HB2  101   4.033   2.527   5.135  0.5194 -2.9880 -0.2632
   10ASP     CG  102   3.915   2.347   5.102  0.1762 -0.2595  0.9515
   10ASP    OD1  103   3.803   2.297   5.065  0.2684 -0.3388  0.0387
   10ASP    OD2  104   4.016   2.271   5.098  0.8605 -0.0335 -0.3224
   10ASP      C  105   3.810   2.706   5.189  0.0082 -0.4900 -0.3246
   10ASP      O  106   3.900   2.792   5.194 -0.0718  0.0428 -0.1005
   11GLY      N  107   3.708   2.723   5.277 -0.2123 -0.3856  0.6005
   11GLY     HN  108   3.632   2.659   5.269 -1.6233  1.3867 -1.9133
   11GLY     CA  109   3.699   2.842   5.360  0.0258  1.0835  0.0033
   11GLY    HA1  110   3.728   2.931   5.306 -0.9356  0.8530 -0.9172
   11GLY    HA2  111   3.757   2.814   5.447  0.3985 -0.1587 -0.6170
   11GLY      C  112   3.562   2.865   5.415  0.2245  0.6722  0.4575
   11GLY    OT1  113   3.458   2.811   5.362 -0.1307  0.3744 -0.1040
   11GLY    OT2  114   3.555   2.949   5.509 -0.2532 -0.2648 -0.3245
   12SOD    SOD  115   7.029   3.768   0.846  0.2624  0.1111  0.6151
   13SOD    SOD  116   2.565   0.916   1.018 -0.4892 -0.6089  0.5554
   14SOD    SOD  117   2.009   4.715   3.488  0.2637 -0.1155 -0.4653
   15SOD    SOD  118   1.672   1.612   5.151  0.1071 -0.3397  0.2347
   16SOD    SOD  119   3.876   1.026   1.958  0.2310  0.0415 -0.0585
   17SOD    SOD  120   1.695   0.952   2.392 -0.1809  0.0170  0.4960
   18SOD    SOD  121   2.761   4.979   3.618 -0.3166 -0.1550 -0.0848
   19SOD    SOD  122   5.918   4.325   5.235  0.5735 -0.0798 -0.3361
   20SOD    SOD  123   4.126   5.613   0.582 -0.0659 -0.1096  0.1024
   21SOD    SOD  124   2.702   4.434   4.280 -0.3770 -0.1500  0.2877
   22SOD    SOD  125   0.321   6.648   5.431  0.0545 -0.5981  0.0710
   23SOD    SOD  126   4.238   2.109   3.020 -0.1038  0.4155 -0.0294
   24SOD    SOD  127   0.267   4.918   0.724 -0.0380 -0.0845 -0.3089
   25SOD    SOD  128   5.475   1.954   4.282 -0.0236 -0.0291  0.1219
   26SOD    SOD  129   0.880   1.822   3.118  0.0164 -0.1186 -0.5077
   27SOD    SOD  130   0.484   0.361   2.326 -0.6850  0.0910 -0.3956
   28SOD    SOD  131   0.455   5.105   1.751  0.0568 -0.4052  0.3758
   29SOD    SOD  132   6.741   6.756   0.272  0.1860  0.2448 -0.0654
   30SOD    SOD  133   7.139   0.307   3.248  0.0974 -0.0801 -0.2094
   31SOD    SOD  134   4.325   0.376   1.732  0.0366 -0.0239  0.4710
   32SOD    SOD  135   2.783   3.154   3.180 -0.7219 -0.1542  0.0514
   33SOD    SOD  136   7.088   4.465   2.637  0.1395  0.2628 -0.0356
   34SOD    SOD  137   0.204   0.366   1.739 -0.2668  0.3080  0.1282
   35SOD    SOD  138   4.636   6.001   4.414 -0.0330 -0.1915  0.3673
   36SOD    SOD  139   4.250   4.301   0.516  0.1032 -0.0315 -0.2595
   37SOD    SOD  140   5.348   4.767   3.496  0.2767  0.2613 -0.5830
   38SOD    SOD  141   5.098   4.899   2.951 -0.2600 -0.3856  0.0546
   39SOD    SOD  142   3.376   3.677   1.622  0.0771 -0.3529 -0.0460
   40SOD    SOD  143   3.937   2.416   2.517  0.2545  0.8941 -0.2509
   41SOD    SOD  144   6.505   5.235   2.273 -0.1099  0.3662  0.3508
   42SOD    SOD  145   5.910   6.120   0.551  1.1197 -0.0312  0.4509
   43CLA    CLA  146   3.830   6.045   2.616 -0.0984  0.2161  0.0342
   44CLA    CLA  147   1.345   3.752   2.145  0.4084 -0.1908 -0.0701
   45CLA    CLA  148   4.356   5.246   4.806 -0.1275 -0.3133  0.1380
   46CLA    CLA  149   4.265   6.012   5.875  0.0518  0.0036  0.2187
   47CLA    CLA  150   0.235   6.785   0.469 -0.2937 -0.2552 -0.1432
   48CLA    CLA  151   1.177   6.319   0.932 -0.0279  0.3374  0.0365
   49CLA    CLA  152   5.715   4.130   3.686 -0.1572  0.3522 -0.0726
   50CLA    CLA  153   6.526   3.466   3.019  0.2592  0.0558 -0.0912
   51CLA    CLA  154   0.138   1.829   5.251 -0.1880 -0.3791  0.0776
   52CLA    CLA  155   5.903   3.269   1.045  0.4095 -0.0015 -0.0976
   53CLA    CLA  156   4.573   1.575   0.390  0.2473  0.0299 -0.0500
   54CLA    CLA  157   3.639   5.717   0.873 -0.0208  0.5260 -0.1335
   55CLA    CLA  158   2.804   0.313   0.094  0.1127 -0.2052  0.2790
   56CLA    CLA  159   2.470   4.928   1.980  0.4113  0.2846  0.2834
   57CLA    CLA  160   5.651   6.556   0.816 -0.3498  0.1407 -0.3531
   58CLA    CLA  161   6.834   6.371   2.857 -0.0256  0.4628  0.1304
   59CLA    CLA  162   3.404   2.654   0.543 -0.5738  0.2686  0.2535
   60CLA    CLA  163   5.897   5.782   1.565 -0.0108  0.1081  0.3517
   61CLA    CLA  164   0.449   1.015   2.546  0.0266 -0.2683 -0.1547
   62CLA    CLA  165   3.309   3.911   0.764  0.0049  0.3808 -0.2268
   63CLA    CLA  166   4.113   5.363   3.231  0.3941  0.0159 -0.1641
   64CLA    CLA  167   6.838   5.122   2.662 -0.0415  0.0325 -0.3106
   65CLA    CLA  168   3.849   0.542   2.388 -0.1242 -0.0089  0.0922
   66CLA    CLA  169   4.836   4.842   2.959  0.0845 -0.0267  0.1229
   67CLA    CLA  170   4.150   1.406   1.595  0.3163  0.0347  0.3547
   68CLA    CLA  171   1.188   3.040   3.896 -0.4072 -0.1089 -0.0453
   69CLA    CLA  172   4.923   3.657   2.145 -0.2402 -0.0194 -0.1557
   70TIP3   OH2  173   6.296   1.881   0.279 -0.3843 -0.0983 -0.0954
   70TIP3    H1  174   6.271   1.892   0.370 -1.2436 -2.0863 -0.0582
   70TIP3    H2  175   6.218   1.844   0.237  0.7116 -1.3129 -1.1421
   71TIP3   OH2  176   6.831   4.163   0.714  0.0824  0.1313  0.5119
   71TIP3    H1  177   6.800   4.226   0.778 -0.9989 -0.4436  0.5734
   71TIP3    H2  178   6.858   4.216   0.639 -0.1163  0.7111  0.8464
   72TIP3   OH2  179   4.590   3.928  -0.013  0.4217  0.1408  0.0416
   72TIP3    H1  180   4.657   3.962   0.046 -0.5405  2.0973  0.0791
   72TIP3    H2  181   4.521   3.896   0.045 -0.2166  1.4198  0.0133
   73TIP3   OH2  182   4.787   2.931   3.972  0.1333  0.4015  0.2723
   73TIP3    H1  183   4.783   3.024   3.951  0.3989  0.4097  0.2568
   73TIP3    H2  184   4.712   2.916   4.030 -1.1404  0.1978 -1.3586
   74TIP3   OH2  185   3.649   0.739   4.071  0.0615  0.1567  0.1197
   74TIP3    H1  186   3.694   0.778   4.145  1.6246  2.6689 -1.9691
   74TIP3    H2  187   3.718   0.696   4.020 -0.7034 -0.1792 -0.6775
   75TIP3   OH2  188   1.835   5.023   5.241  0.7631 -0.2283 -0.2156
   75TIP3    H1  189   1.828   5.097   5.302 -2.5097  0.0283 -0.7286
   75TIP3    H2  190   1.855   5.064   5.157 -0.8738  0.1486 -0.4657
   76TIP3   OH2  191   3.923   5.737   4.016 -0.1266  0.2843 -0.0825
   76TIP3    H1  192   3.981   5.667   4.046 -0.2048  0.3243  0.1614
   76TIP3    H2  193   3.983   5.804   3.983  0.0468  0.9740  1.5384
   77TIP3   OH2  194   5.136   1.631   1.660  0.5454  0.2720  0.2486
   77TIP3    H1  195   5.140   1.697   1.590  3.0127 -0.0422 -0.0012
   77TIP3    H2  196   5.117   1.549   1.614  3.1602 -0.1146 -0.2996
   78TIP3   OH2  197   3.093   2.580   0.026  0.2688  0.5760 -0.9339
   78TIP3    H1  198   3.014   2.587   0.079 -0.3970 -0.1783 -1.7961
   78TIP3    H2  199   3.165   2.584   0.090 -0.4841  0.3968 -0.0505
   79TIP3   OH2  200   6.048   2.282   2.927 -0.2255  0.3139 -0.3682
   79TIP3    H1  201   5.977   2.247   2.982 -0.3994  0.0643 -0.7466
   79TIP3    H2  202   6.112   2.211   2.922 -0.0185  0.4843 -0.1540
   80TIP3   OH2  203   4.293   0.614   4.801 -0.3910 -0.5162  0.5243
   80TIP3    H1  204   4.382   0.625   4.767 -0.4686  0.2743  0.5495
   80TIP3    H2  205   4.239   0.670   4.744 -0.7548 -0.3911  0.9908
   81TIP3   OH2  206   4.314   1.447   5.628  0.0405 -0.6587  0.2688
   81TIP3    H1  207   4.262   1.410   5.699 -1.0617  0.1081 -0.1168
   81TIP3    H2  208   4.260   1.518   5.592  1.5331  0.4816  0.1541
   82TIP3   OH2  209   1.098   2.539   1.573  0.1274  0.0599 -0.0767
   82TIP3    H1  210   1.042   2.489   1.515  2.3574  0.0325 -2.4005
   82TIP3    H2  211   1.182   2.493   1.570  0.5820  0.5514  2.5889
   83TIP3   OH2  212   0.392   6.263   1.003 -0.4229 -0.5112  0.4630
   83TIP3    H1  213   0.436   6.333   1.052 -0.9674 -0.7977  1.3963
   83TIP3    H2  214   0.455   6.238   0.936 -0.5187  1.3846 -0.3856
   84TIP3   OH2  215   2.708   0.201   5.096 -0.1118  0.1688  0.3398
   84TIP3    H1  216   2.787   0.245   5.065 -0.7077  1.3251  0.4330
   84TIP3    H2  217   2.637   0.241   5.047 -0.6263 -1.1266 -0.0189
   85TIP3   OH2  218   0.660   4.926   3.089 -0.4800 -0.7693  0.5669
   85TIP3    H1  219   0.605   4.920   3.010 -0.4617  2.0320  0.2547
   85TIP3    H2  220   0.600   4.958   3.157  0.4491  1.2752  0.4893
   86TIP3   OH2  221   4.142   5.829   1.924 -0.1272  0.3383  0.4480
   86TIP3    H1  222   4.206   5.887   1.882 -0.0660  0.1432  0.2679
   86TIP3    H2  223   4.165   5.741   1.892 -0.2355  0.2169  0.6959
   87TIP3   OH2  224   2.357   0.840   5.436 -0.8211  0.3524 -0.7410
   87TIP3    H1  225   2.274   0.795   5.425 -0.3286 -0.5786 -0.7374
   87TIP3    H2  226   2.424   0.774   5.417 -0.0779  1.2511 -1.3939
   88TIP3   OH2  227   0.307   0.151   1.739 -0.1852 -0.0272 -0.2703
   88TIP3    H1  228   0.266   0.111   1.816 -0.2818  0.6929  0.0691
   88TIP3    H2  229   0.275   0.100   1.665  0.8729 -1.5012  0.2488
   89TIP3   OH2  230   6.953   0.163   1.659 -0.1265  0.0058 -0.7244
   89TIP3    H1  231   6.974   0.105   1.586  0.7079 -0.2893 -0.2767
   89TIP3    H2  232   6.933   0.103   1.731  1.8193  0.2011  0.0557
   90TIP3   OH2  233   4.148   1.384   3.779 -0.6562  0.1947  0.0649
   90TIP3    H1  234   4.091   1.345   3.844  0.4846 -2.4795 -0.3878
   90TIP3    H2  235   4.236   1.379   3.818 -0.0289 -0.9779 -1.4087
   91TIP3   OH2  236   4.596   4.195   2.497  0.5634 -0.8144 -0.6232
   91TIP3    H1  237   4.691   4.187   2.502  0.5020 -1.3113 -0.2192
   91TIP3    H2  238   4.569   4.216   2.587 -0.0470 -4.4864  0.2203
   92TIP3   OH2  239   0.471   2.370   3.307 -0.4347  0.3292  0.2104
   92TIP3    H1  240   0.538   2.304   3.325  0.0751  0.6951 -0.3081
   92TIP3    H2  241   0.495   2.445   3.361  1.5559  1.7287 -2.4077
   93TIP3   OH2  242   4.952   0.732   0.321  0.5183  0.0597  0.3071
   93TIP3    H1  243   4.894   0.761   0.251  0.9273  0.2596  0.0506
   93TIP3    H2  244   4.895   0.729   0.399 -0.1407 -0.9936 -0.1886
   94TIP3   OH2  245   0.113   2.196   4.429  0.7344  0.4204 -0.4927
   94TIP3    H1  246   0.056   2.184   4.504  0.9398  0.6228 -0.3008
   94TIP3    H2  247   0.105   2.290   4.408  0.7736  0.3904 -0.6443
   95TIP3   OH2  248   5.633   3.990   3.979 -0.0376  0.3224 -0.0037
   95TIP3    H1  249   5.650   4.029   3.894  0.7188 -0.0942 -0.0492
   95TIP3    H2  250   5.543   4.016   4.000  0.5672  2.4455  0.1709
   96TIP3   OH2  251   6.194   1.195   2.814 -0.0358  0.3510 -0.4637
   96TIP3    H1  252   6.247   1.138   2.760 -1.4819 -0.8956 -0.6471
   96TIP3    H2  253   6.254   1.262   2.846  1.9868 -1.8708  0.6617
   97TIP3   OH2  254   6.572   6.409   0.533  0.0983 -0.2263 -0.4844
   97TIP3    H1  255   6.562   6.378   0.623 -0.6672 -2.8742 -1.4023
   97TIP3    H2  256   6.667   6.407   0.518  0.1544 -0.9520 -0.1075
   98TIP3   OH2  257   1.361   5.106   3.414 -0.4651 -0.4283 -0.1379
   98TIP3    H1  258   1.276   5.095   3.373  0.0491  0.9581 -1.6977
   98TIP3    H2  259   1.366   5.199   3.434 -0.4429 -0.9463  2.6334
   99TIP3   OH2  260   3.813   0.997   2.720 -0.2861 -0.0392 -0.0403
   99TIP3    H1  261   3.787   0.913   2.683  1.2629 -0.6643  0.1861
   99TIP3    H2  262   3.861   1.040   2.650 -0.9182  0.5839 -0.0943
  100TIP3   OH2  263   4.166   1.084   1.655  0.0556 -0.0937 -0.0628
  100TIP3    H1  264   4.116   1.164   1.636 -0.4725 -0.8077 -1.9480
  100TIP3    H2  265   4.193   1.053   1.569 -0.7244 -2.5711  0.5267
  101TIP3   OH2  266   2.739   6.611   3.088 -0.2467  0.1146 -0.5981
  101TIP3    H1  267   2.652   6.651   3.092  0.1874  1.0290  0.1283
  101TIP3    H2  268   2.789   6.656   3.156  0.8459 -0.2655 -1.1308
  102TIP3   OH2  269   4.464   3.076   0.887 -0.1158 -0.2346 -0.2819
  102TIP3    H1  270   4.475   3.000   0.830  1.7407  1.5269 -2.4809
  102TIP3    H2  271   4.372   3.099   0.878 -0.0595 -0.5330 -1.9438
  103TIP3   OH2  272   0.670   5.247   3.873 -0.0938  0.4173 -0.1994
  103TIP3    H1  273   0.688   5.338   3.896 -2.0499  0.7028  0.4175
  103TIP3    H2  274   0.591   5.251   3.820 -2.9879 -1.1141  3.5382
  104TIP3   OH2  275   5.693   2.165   0.840  0.3579 -0.2419 -0.1031
  104TIP3    H1  276   5.632   2.161   0.766 -0.3854 -0.4978  0.5093
  104TIP3    H2  277   5.778   2.147   0.801  0.0384  0.0120 -0.9621
  105TIP3   OH2  278   0.965   2.337   1.961  0.1979 -0.1017 -0.5741
  105TIP3    H1  279   0.970   2.424   1.920  0.5201 -0.0310 -0.3909
  105TIP3    H2  280   0.939   2.278   1.890 -1.7888  0.4110 -0.3353
  106TIP3   OH2  281   6.206   0.942   3.983 -0.3028  0.0423  0.0435
  106TIP3    H1  282   6.297   0.956   3.956 -0.5338 -1.0080 -1.4290
  106TIP3    H2  283   6.210   0.927   4.077  0.9268  0.9467  0.1516
  107TIP3   OH2  284   6.296   6.090   4.161  0.0078 -0.8062 -0.2590
  107TIP3    H1  285   6.277   6.130   4.076 -0.7802  1.1414  0.7603
  107TIP3    H2  286   6.232   6.020   4.170 -2.2448  1.1568  0.1000
  108TIP3   OH2  287   2.594   6.339   4.163  0.5492 -0.6911 -0.2342
  108TIP3    H1  288   2.529   6.273   4.138  1.8317 -1.6409 -1.1904
  108TIP3    H2  289   2.676   6.308   4.125  1.5561  0.5480  0.8196
  109TIP3   OH2  290   4.421   1.295   2.321  0.2523  0.4226 -0.5242
  109TIP3    H1  291   4.365   1.363   2.284  0.0448  0.8829  0.5991
  109TIP3    H2  292   4.361   1.234   2.363  0.5822  1.0128  0.8476
  110TIP3   OH2  293   3.939   1.797   1.148  0.4275 -0.1148  0.4390
  110TIP3    H1  294   3.987   1.832   1.073  0.9533 -0.2671  0.7032
  110TIP3    H2  295   3.989   1.720   1.174  1.2965  0.9580  2.0957
  111TIP3   OH2  296   3.273   6.606   4.196 -0.2498 -0.1820 -0.2481
  111TIP3    H1  297   3.197   6.663   4.202  0.2964  0.6756 -1.1385
  111TIP3    H2  298   3.237   6.518   4.186 -1.1970  0.4573 -3.3890
  112TIP3   OH2  299   1.834   3.168   5.095  0.2552  0.6080  0.2890
  112TIP3    H1  300   1.889   3.101   5.052  1.0965  0.3224  1.7570
  112TIP3    H2  301   1.877   3.184   5.179 -1.5659  0.8753  1.2049
  113TIP3   OH2  302   5.068   2.968   2.279  0.1515 -0.0761  0.5035
  113TIP3    H1  303   5.122   3.034   2.235  1.1994  0.4482  2.4217
  113TIP3    H2  304   5.022   2.923   2.209  1.6899  0.7188 -1.0980
  114TIP3   OH2  305   6.607   1.304   2.344 -0.3586  0.0825 -0.1291
  114TIP3    H1  306   6.662   1.229   2.321 -0.5439 -0.4879  1.2026
  114TIP3    H2  307   6.667   1.369   2.380 -0.3246  0.1884 -0.3760
  115TIP3   OH2  308   1.943   3.051   1.428  0.0652 -0.2689 -0.0141
  115TIP3    H1  309   1.921   3.080   1.340 -2.6471  1.3375  1.0659
  115TIP3    H2  310   2.037   3.067   1.436 -0.0385  1.6835 -1.8557
  116TIP3   OH2  311   0.226   2.097   0.756 -0.4636 -0.0401 -0.0511
  116TIP3    H1  312   0.201   2.139   0.838  2.5953  2.9071 -0.3884
  116TIP3    H2  313   0.304   2.046   0.777 -1.0658 -1.3133 -0.7347
  117TIP3   OH2  314   1.547   5.089   0.527 -1.0946 -0.3426  0.1270
  117TIP3    H1  315   1.455   5.070   0.548 -1.9382  0.1300 -2.7399
  117TIP3    H2  316   1.585   5.003   0.508 -1.4724 -0.3651 -0.5459
  118TIP3   OH2  317   0.323   1.373   5.679  0.0192  0.1237  0.2310
  118TIP3    H1  318   0.282   1.297   5.721 -2.0136  1.6862  1.2542
  118TIP3    H2  319   0.250   1.431   5.657  1.4772  1.7027 -0.7261
  119TIP3   OH2  320   7.015   2.491   5.743 -0.0861 -0.5676 -0.4686
  119TIP3    H1  321   6.935   2.504   5.794  0.1191  0.4763 -0.3842
  119TIP3    H2  322   7.001   2.409   5.697 -0.7391 -0.9670  0.4092
  120TIP3   OH2  323   6.834   6.139   3.803  0.2954  0.0314 -0.2562
  120TIP3    H1  324   6.748   6.147   3.844  0.6606  2.1947  0.2090
  120TIP3    H2  325   6.888   6.094   3.868 -0.0148  0.3547  0.2331
  121TIP3   OH2  326   5.993   5.323   3.646 -0.3640 -0.3526 -0.2886
  121TIP3    H1  327   6.054   5.395   3.663  1.9106 -1.9003 -1.3973
  121TIP3    H2  328   5.973   5.287   3.733  1.6593 -0.8125  0.0270
  122TIP3   OH2  329   4.574   2.422   2.094 -0.4290 -0.1389  0.4568
  122TIP3    H1  330   4.499   2.411   2.036 -1.4348  0.0072  1.6848
  122TIP3    H2  331   4.608   2.334   2.107 -0.5917 -0.2452  0.1606
  123TIP3   OH2  332   7.122   1.288   5.620 -0.0877  0.5385 -0.0733
  123TIP3    H1  333   7.118   1.198   5.653 -0.4680  0.7249  0.4167
  123TIP3    H2  334   7.210   1.318   5.640 -0.3250  0.6628  0.8459
  124TIP3   OH2  335   3.425   4.101   1.042 -0.4159 -0.1746 -0.5583
  124TIP3    H1  336   3.341   4.092   1.088 -0.3249  1.4591 -0.0084
  124TIP3    H2  337   3.410   4.058   0.958 -2.0113  0.5557 -0.6998
  125TIP3   OH2  338   1.655   0.451   3.842  0.6246 -0.3102 -0.1903
  125TIP3    H1  339   1.626   0.512   3.774 -0.0437 -0.0047  0.3500
  125TIP3    H2  340   1.658   0.504   3.922  2.1031 -0.4968 -0.1082
  126TIP3   OH2  341   3.483   6.630   4.020  0.0609 -0.1376  0.3619
  126TIP3    H1  342   3.435   6.655   3.941  1.0169 -0.1266 -0.2190
  126TIP3    H2  343   3.417   6.636   4.090 -0.5824  0.6632 -0.2923
  127TIP3   OH2  344   4.847   6.806   3.432  0.5301 -0.2174  0.1070
  127TIP3    H1  345   4.898   6.725   3.433  0.4335 -0.3469 -1.9150
  127TIP3    H2  346   4.769   6.785   3.484  1.0921 -0.9917  0.6746
  128TIP3   OH2  347   5.345   5.496   4.937 -0.0674  0.4147  0.0034
  128TIP3    H1  348   5.431   5.501   4.895 -0.4025 -2.9117 -1.4205
  128TIP3    H2  349   5.359   5.529   5.026  2.1001  2.0194 -0.8591
  129TIP3   OH2  350   2.634   3.644   4.429  0.3793 -0.3005  0.4537
  129TIP3    H1  351   2.623   3.562   4.381 -1.0735  0.4167 -0.4899
  129TIP3    H2  352   2.556   3.650   4.484 -1.1851  1.9109 -1.7902
  130TIP3   OH2  353   5.405   6.448   5.572 -0.4405 -0.0498  0.0165
  130TIP3    H1  354   5.480   6.497   5.539 -0.8608 -0.0040 -0.8973
  130TIP3    H2  355   5.431   6.420   5.660  0.5638  0.1408 -0.2106
  131TIP3   OH2  356   0.807   5.120   1.433  0.2401  0.2000 -0.5541
  131TIP3    H1  357   0.748   5.045   1.421 -0.0111  0.2285  0.4068
  131TIP3    H2  358   0.820   5.154   1.345 -0.8978 -0.0351 -0.8397
  132TIP3   OH2  359   0.683   5.072   1.905 -0.3271  0.2373 -0.3385
  132TIP3    H1  360   0.692   5.088   1.999 -0.4355 -2.5218  0.2260
  132TIP3    H2  361   0.733   4.992   1.890 -1.3795 -0.0938 -2.3978
  133TIP3   OH2  362   1.487   2.082   1.016 -0.3806  0.5277  0.1196
  133TIP3    H1  363   1.507   1.994   1.050 -0.1028  0.2277 -0.7910
  133TIP3    H2  364   1.425   2.118   1.080 -2.3861 -1.2471 -0.6688
  134TIP3   OH2  365   6.728   5.282   3.549  0.3586 -0.4565 -0.2639
  134TIP3    H1  366   6.713   5.229   3.471  0.2449  0.5996 -0.9786
  134TIP3    H2  367   6.712   5.372   3.521 -0.1435 -0.0889  1.0955
  135TIP3   OH2  368   2.279   2.079   0.929 -0.6727  0.1133  0.2936
  135TIP3    H1  369   2.212   2.060   0.863 -0.4351 -0.7885  0.2865
  135TIP3    H2  370   2.310   2.166   0.908 -0.8827 -0.0058 -0.5499
  136TIP3   OH2  371   1.269   1.432   0.874  0.0363  0.0945  0.4016
  136TIP3    H1  372   1.234   1.463   0.958  1.2591  2.4204  0.1227
  136TIP3    H2  373   1.331   1.364   0.898 -0.0572  0.3189  1.3403
  137TIP3   OH2  374   2.804   3.776   1.053 -0.1657  0.3822 -0.0708
  137TIP3    H1  375   2.807   3.872   1.045 -2.2035  0.4443 -0.4643
  137TIP3    H2  376   2.804   3.760   1.147  0.3593  0.7508 -0.0034
  138TIP3   OH2  377   1.690   6.741   4.722 -0.1717  0.5299 -0.0456
  138TIP3    H1  378   1.740   6.661   4.708 -0.1631  0.5667 -0.2377
  138TIP3    H2  379   1.646   6.729   4.806 -0.1049  0.3587 -0.0363
  139TIP3   OH2  380   6.160   2.973   3.905 -0.4937 -0.5159 -0.2017
  139TIP3    H1  381   6.147   2.884   3.939  1.3142 -0.9138 -0.4277
  139TIP3    H2  382   6.155   2.963   3.809 -2.0017 -0.0420 -0.1925
  140TIP3   OH2  383   0.834   2.243   2.879  0.2832  0.4748 -0.3124
  140TIP3    H1  384   0.810   2.283   2.795 -0.4028 -0.4791 -0.5963
  140TIP3    H2  385   0.762   2.266   2.937  0.6620  0.9689 -0.0363
  141TIP3   OH2  386   1.913   1.062   4.684  0.1406  0.2241  0.5994
  141TIP3    H1  387   1.983   1.002   4.660 -1.0100 -0.2335 -2.0469
  141TIP3    H2  388   1.856   1.011   4.741  1.0610  0.0501  1.3832
  142TIP3   OH2  389   1.407   5.900   1.621  0.1742  0.0921  0.1634
  142TIP3    H1  390   1.427   5.863   1.707 -0.5286  0.4633  0.4970
  142TIP3    H2  391   1.465   5.976   1.614 -0.0029  0.2601  0.4612
  143TIP3   OH2  392   0.413   5.732   1.455  0.3139  0.1273 -0.2243
  143TIP3    H1  393   0.413   5.815   1.502  0.7782  1.1804 -2.0180
  143TIP3    H2  394   0.506   5.713   1.441  0.1759 -0.1339 -0.7959
  144TIP3   OH2  395   1.804   4.358   1.587  0.0599 -0.8135 -0.0300
  144TIP3    H1  396   1.765   4.333   1.671  0.5760  0.6523  0.6833
  144TIP3    H2  397   1.754   4.435   1.560  1.9570  0.7331  0.6006
  145TIP3   OH2  398   6.529   4.869   2.454  1.0937  0.2167  0.0412
  145TIP3    H1  399   6.541   4.914   2.537 -2.4158 -0.8498  1.3434
  145TIP3    H2  400   6.478   4.930   2.401 -0.8912 -0.8307  0.6157
  146TIP3   OH2  401   5.627   5.229   2.730  0.7821  0.5852  0.0139
  146TIP3    H1  402   5.665   5.302   2.777 -0.1344 -0.1741  2.0391
  146TIP3    H2  403   5.536   5.226   2.759  0.2011 -0.0139 -1.7331
  147TIP3   OH2  404   5.866   2.558   3.332  0.2982 -0.0338 -0.3993
  147TIP3    H1  405   5.929   2.511   3.278  0.3631  0.7552 -1.0247
  147TIP3    H2  406   5.792   2.574   3.273 -0.1907 -0.3388  0.1289
  148TIP3   OH2  407   2.599   4.183   5.007  0.4579  0.0651 -0.0496
  148TIP3    H1  408   2.635   4.246   4.945 -0.5754  1.1204  0.3925
  148TIP3    H2  409   2.566   4.236   5.079 -0.0930 -1.0043  0.5090
  149TIP3   OH2  410   3.452   6.337   1.243  0.4302  0.1811 -0.6082
  149TIP3    H1  411   3.457   6.332   1.148 -1.9561 -0.0113 -0.7742
  149TIP3    H2  412   3.367   6.376   1.261  0.7545  0.0684  1.4644
  150TIP3   OH2  413   5.126   6.014   2.886  0.1341 -0.0468 -0.3411
  150TIP3    H1  414   5.073   6.093   2.881  0.0165 -0.0918  0.1079
  150TIP3    H2  415   5.080   5.950   2.831  0.4579  0.3130 -1.0507
  151TIP3   OH2  416   0.193   1.035   3.370 -0.1417  0.5005 -0.4036
  151TIP3    H1  417   0.161   1.031   3.460  2.7445 -1.6056  0.6971
  151TIP3    H2  418   0.268   1.095   3.375  0.4504 -0.1484 -1.1831
  152TIP3   OH2  419   0.162   3.595   2.164  0.1881  0.0405  0.3157
  152TIP3    H1  420   0.136   3.504   2.153  1.3781 -0.5010  1.8257
  152TIP3    H2  421   0.108   3.642   2.100  0.1240 -1.7846 -1.0574
  153TIP3   OH2  422   5.241   4.232   4.833  0.3153 -0.5408 -0.5870
  153TIP3    H1  423   5.173   4.165   4.822 -1.5454  1.3339 -1.2093
  153TIP3    H2  424   5.264   4.257   4.744 -1.3823  1.8107 -0.4635
  154TIP3   OH2  425   2.720   2.820   2.527  0.5258  0.1060 -0.2434
  154TIP3    H1  426   2.624   2.825   2.523  0.5071 -0.3376 -0.4509
  154TIP3    H2  427   2.745   2.891   2.586  0.0714  0.2483 -0.2134
  155TIP3   OH2  428   3.891   0.165   5.195 -0.0073 -0.1191  0.2542
  155TIP3    H1  429   3.812   0.218   5.186  0.2265  0.0124 -1.1788
  155TIP3    H2  430   3.871   0.106   5.268 -0.9656  0.6958  0.6779
  156TIP3   OH2  431   6.751   2.930   3.455  0.3891  0.0583  0.0741
  156TIP3    H1  432   6.771   2.921   3.548 -0.0976  1.7088  0.3674
  156TIP3    H2  433   6.831   2.967   3.417  0.5249 -0.4497 -0.1443
  157TIP3   OH2  434   6.174   4.379   3.955 -0.3723 -0.3884 -0.5151
  157TIP3    H1  435   6.103   4.420   4.004  0.2148 -0.1027  0.1110
  157TIP3    H2  436   6.179   4.429   3.874  0.3671  0.8509  0.2576
  158TIP3   OH2  437   4.418   2.612   3.080  0.3717 -0.4440 -0.1248
  158TIP3    H1  438   4.331   2.626   3.042  0.4470  0.8323  0.1150
  158TIP3    H2  439   4.402   2.561   3.159 -0.0240 -1.2109 -0.6860
  159TIP3   OH2  440   6.937   5.508   1.571  0.0452  0.1957 -0.1745
  159TIP3    H1  441   6.951   5.424   1.615  3.9266  0.6302 -0.2289
  159TIP3    H2  442   6.899   5.564   1.639  0.8954 -0.6134  1.0214
  160TIP3   OH2  443   5.139   3.411   2.028 -0.5466  0.2960 -0.3425
  160TIP3    H1  444   5.119   3.323   2.058  0.2455 -0.2552 -1.3586
  160TIP3    H2  445   5.172   3.457   2.105  3.1077 -1.5823 -0.5977
  161TIP3   OH2  446   3.947   1.611   4.669  0.3945  0.0034  0.1353
  161TIP3    H1  447   3.928   1.606   4.575 -1.7791 -0.2907  0.5437
  161TIP3    H2  448   3.973   1.522   4.692  1.3165  0.1644 -0.2479
  162TIP3   OH2  449   5.997   3.625   2.742 -0.2115 -0.4176  0.1168
  162TIP3    H1  450   6.043   3.581   2.813 -0.2534 -0.2982  0.2169
  162TIP3    H2  451   5.965   3.554   2.687 -1.4725 -0.5675  1.0074
  163TIP3   OH2  452   4.586   6.171   1.892  0.4014 -0.2687 -0.0807
  163TIP3    H1  453   4.590   6.226   1.814  1.9975 -0.8301 -0.4305
  163TIP3    H2  454   4.496   6.183   1.925  0.8520  3.1186  0.3162
  164TIP3   OH2  455   4.417   6.623   3.484 -0.2267 -0.0873  0.6687
  164TIP3    H1  456   4.467   6.588   3.410  0.3850 -1.4528  1.6750
  164TIP3    H2  457   4.344   6.671   3.444  0.3324 -0.4145 -0.8043
  165TIP3   OH2  458   4.929   1.941   2.591  0.0238 -0.3214 -0.2026
  165TIP3    H1  459   4.920   1.866   2.531 -0.1616 -1.2691  0.9722
  165TIP3    H2  460   5.023   1.951   2.603  0.0224 -1.1590  0.5837
  166TIP3   OH2  461   5.361   6.265   0.419  0.2024  0.0472 -0.5085
  166TIP3    H1  462   5.438   6.307   0.381  0.7845  0.3030  0.8920
  166TIP3    H2  463   5.391   6.232   0.504 -1.1778 -0.0028 -0.0111
  167TIP3   OH2  464   6.073   6.686   0.690 -0.4205  0.4027  0.5908
  167TIP3    H1  465   6.043   6.777   0.697  0.2710  0.7896 -1.0020
  167TIP3    H2  466   5.993   6.637   0.670 -0.4318  1.0937 -1.3068
  168TIP3   OH2  467   6.584   0.190   1.956  0.0619 -0.0455 -0.4530
  168TIP3    H1  468   6.593   0.281   1.931 -1.6998  0.3486  0.2024
  168TIP3    H2  469   6.577   0.142   1.874  0.7622  0.4170 -0.7897
  169TIP3   OH2  470   1.433   5.336   3.999  0.4997  0.2955 -0.2065
  169TIP3    H1  471   1.342   5.328   3.971  1.1560 -1.3579 -2.0855
  169TIP3    H2  472   1.434   5.304   4.089 -0.7037 -0.0980 -0.3243
  170TIP3   OH2  473   4.693   2.889   4.456  0.5833  0.1016 -0.3030
  170TIP3    H1  474   4.634   2.813   4.457  0.9593 -0.1917 -0.1356
  170TIP3    H2  475   4.779   2.853   4.479  0.7117  0.6201  0.0461
  171TIP3   OH2  476   4.254   2.879   5.270  0.4749  0.5096 -0.5369
  171TIP3    H1  477   4.198   2.944   5.314  0.0196  1.0474 -1.8621
  171TIP3    H2  478   4.335   2.878   5.322 -0.3646  0.4624  0.8201
  172TIP3   OH2  479   2.898   6.083   3.215  0.2322 -0.1061  0.1131
  172TIP3    H1  480   2.827   6.141   3.186 -0.9813 -1.6400 -0.1060
  172TIP3    H2  481   2.955   6.139   3.266  0.0312  1.6802 -1.4956
  173TIP3   OH2  482   2.516   3.961   0.449  0.1174  0.4922 -0.8378
  173TIP3    H1  483   2.548   3.930   0.534  0.8049  0.0797 -1.2279
  173TIP3    H2  484   2.448   3.898   0.425 -0.4689  0.9347 -0.3405
  174TIP3   OH2  485   5.332   2.868   2.779 -0.5521  0.6189  0.3431
  174TIP3    H1  486   5.349   2.805   2.709 -0.2120  2.0016 -0.8657
  174TIP3    H2  487   5.249   2.909   2.755 -0.1008  1.5854  0.3641
  175TIP3   OH2  488   4.765   6.689   0.956 -0.1374  0.1155 -0.3791
  175TIP3    H1  489   4.706   6.630   1.001 -0.9943  1.0427 -0.2443
  175TIP3    H2  490   4.709   6.760   0.924  0.9507  1.3149  0.2304
  176TIP3   OH2  491   2.003   2.524   1.532  0.2379 -0.2828 -0.2391
  176TIP3    H1  492   2.067   2.466   1.490 -0.3214 -0.9650 -0.1781
  176TIP3    H2  493   1.983   2.481   1.616 -0.5415 -0.2688 -0.4042
  177TIP3   OH2  494   5.026   2.933   5.465  0.2492 -0.3046 -0.0796
  177TIP3    H1  495   5.015   2.955   5.558 -1.6791  0.7044 -0.4889
  177TIP3    H2  496   5.094   2.993   5.434 -0.5539  0.8029  0.2359
  178TIP3   OH2  497   6.829   3.983   3.056 -0.1152  0.0462  0.2572
  178TIP3    H1  498   6.908   3.929   3.062 -0.1557  0.1400  1.9960
  178TIP3    H2  499   6.821   4.003   2.963  1.0731 -1.1971 -0.1439
  179TIP3   OH2  500   5.834   4.288   1.117  0.1597 -0.1602  0.2084
  179TIP3    H1  501   5.888   4.367   1.109  1.1328 -0.9620 -1.6586
  179TIP3    H2  502   5.870   4.243   1.194 -0.2669  1.0704  1.1668
  180TIP3   OH2  503   3.825   5.662   1.405 -0.4878  0.4481  0.9111
  180TIP3    H1  504   3.856   5.618   1.484 -3.2390 -0.6917  1.4947
  180TIP3    H2  505   3.780   5.740   1.437 -0.3568  0.7600  0.3368
  181TIP3   OH2  506   5.846   4.305   3.277 -0.0095 -0.4969 -0.5561
  181TIP3    H1  507   5.809   4.217   3.268 -3.5820  0.8164 -0.3544
  181TIP3    H2  508   5.833   4.326   3.369  1.0291  0.1849 -0.5554
  182TIP3   OH2  509   6.055   0.004   3.054 -0.4364 -0.0224 -0.0906
  182TIP3    H1  510   6.028   0.085   3.010  1.2714 -0.1700 -1.5309
  182TIP3    H2  511   5.989  -0.009   3.123 -0.6526  2.6774  0.3220
  183TIP3   OH2  512   0.478   2.345   1.392  0.2747 -1.0576  0.3076
  183TIP3    H1  513   0.539   2.299   1.336  0.5993  0.3111 -0.5210
  183TIP3    H2  514   0.500   2.317   1.481  0.8617 -1.9890 -0.1263
  184TIP3   OH2  515   3.509   1.082   1.667 -0.1694 -0.0439  0.0685
  184TIP3    H1  516   3.464   1.040   1.740  0.5401 -1.2253 -0.1411
  184TIP3    H2  517   3.504   1.019   1.596 -2.7438  1.9470 -1.6898
  185TIP3   OH2  518   0.594   2.109   3.279  0.3736  0.1025 -0.1457
  185TIP3    H1  519   0.559   2.080   3.364  1.1625 -0.2524  0.0641
  185TIP3    H2  520   0.681   2.069   3.274  0.0125 -0.5607 -1.4939
  186TIP3   OH2  521   6.029   1.150   2.047 -0.2157  0.2097 -0.1938
  186TIP3    H1  522   6.089   1.119   2.114 -2.3057  0.0084  1.6939
  186TIP3    H2  523   5.968   1.077   2.033 -1.5424  1.2659 -0.1553
  187TIP3   OH2  524   0.158   4.364   3.059 -0.1903 -0.1682 -0.8858
  187TIP3    H1  525   0.248   4.380   3.033 -0.1114  0.2117 -0.4098
  187TIP3    H2  526   0.123   4.452   3.077 -0.2253 -0.4081  0.3006
  188TIP3   OH2  527   5.218   1.477   4.451 -0.7570 -0.1751 -0.1898
  188TIP3    H1  528   5.310   1.493   4.469 -0.4404 -0.2230 -1.6514
  188TIP3    H2  529   5.171   1.533   4.514  0.2399 -0.5451  0.9117
  189TIP3   OH2  530   0.243   2.212   0.503 -0.0445  0.1851 -0.6341
  189TIP3    H1  531   0.329   2.185   0.473  0.5169  1.1237  0.0837
  189TIP3    H2  532   0.239   2.184   0.594 -0.8972 -0.7360 -0.9354
  190TIP3   OH2  533   5.402   0.890   2.494 -0.1654 -0.0867 -0.1502
  190TIP3    H1  534   5.469   0.872   2.428 -1.3288 -1.6562 -0.9668
  190TIP3    H2  535   5.391   0.985   2.490  0.4003 -0.0403 -1.6295
  191TIP3   OH2  536   6.977   1.523   5.519  0.1543  0.5018 -0.1929
  191TIP3    H1  537   6.973   1.566   5.604  0.4037  1.9662 -0.9072
  191TIP3    H2  538   7.056   1.469   5.523 -0.4004 -0.2672  0.8623
  192TIP3   OH2  539   4.582   3.232   1.609 -0.5102 -0.0659  0.2731
  192TIP3    H1  540   4.621   3.301   1.554 -2.0898  0.0070 -0.8357
  192TIP3    H2  541   4.507   3.275   1.651 -0.5149 -0.6785  0.9062
  193TIP3   OH2  542   1.912   3.023   2.134 -0.3038  0.1968  0.3211
  193TIP3    H1  543   1.999   3.027   2.093  0.0593 -3.9996  0.1668
  193TIP3    H2  544   1.851   3.038   2.063  0.3223  0.6444 -0.1320
  194TIP3   OH2  545   4.060   1.165   4.466  0.1254 -0.1557 -0.0180
  194TIP3    H1  546   3.983   1.216   4.442 -0.3476 -1.1876 -0.7709
  194TIP3    H2  547   4.025   1.087   4.510  0.7085 -0.7104 -0.5133
  195TIP3   OH2  548   2.971   5.157   4.593  0.0614 -0.0696 -0.1917
  195TIP3    H1  549   2.939   5.159   4.683  0.2294 -1.5997 -0.0690
  195TIP3    H2  550   3.055   5.112   4.599  0.4965  0.6165 -1.0040
  196TIP3   OH2  551   7.098   1.384   3.800  0.0425 -0.3672  0.2856
  196TIP3    H1  552   7.045   1.446   3.751  0.4238  1.6125  2.2418
  196TIP3    H2  553   7.184   1.385   3.757  0.0137  0.4009  0.2467
  197TIP3   OH2  554   7.139   1.376   3.165 -0.5427  0.4902 -0.1581
  197TIP3    H1  555   7.091   1.298   3.139  3.1793 -1.4254 -2.1077
  197TIP3    H2  556   7.142   1.371   3.261 -2.0600 -0.5935 -0.1341
  198TIP3   OH2  557   1.040   3.693   2.846  0.1725 -0.9069  0.8341
  198TIP3    H1  558   1.083   3.716   2.929  2.9096  1.1901 -1.0149
  198TIP3    H2  559   1.083   3.612   2.818  0.9332 -0.3608  0.3831
  199TIP3   OH2  560   3.008   1.566   2.721  0.3365 -0.7932  0.6245
  199TIP3    H1  561   2.994   1.610   2.805 -0.9438 -1.9009  1.0342
  199TIP3    H2  562   2.968   1.623   2.656 -0.3143 -0.8002  1.0108
  200TIP3   OH2  563   6.499   6.711   1.542  0.4926  0.1308  0.4377
  200TIP3    H1  564   6.444   6.756   1.606  1.7977  1.3748  0.7395
  200TIP3    H2  565   6.568   6.774   1.521  0.9676 -0.8230 -1.0446
  201TIP3   OH2  566   7.103   5.062   5.233 -0.3886 -0.0839 -0.2255
  201TIP3    H1  567   7.133   4.999   5.168  3.5208  0.9911  0.2606
  201TIP3    H2  568   7.181   5.113   5.254 -2.7910  3.4749  1.0471
  202TIP3   OH2  569   6.611   3.030   0.448  0.2454  0.1573  0.0961
  202TIP3    H1  570   6.625   3.039   0.542 -1.7132  1.7752  0.2956
  202TIP3    H2  571   6.540   2.968   0.440  0.5744 -0.1679 -0.3444
  203TIP3   OH2  572   2.950   6.695   5.401 -0.3730  0.1555  0.4724
  203TIP3    H1  573   2.930   6.753   5.327 -1.4506 -0.5649  0.1745
  203TIP3    H2  574   3.038   6.663   5.382 -0.7278 -0.2146 -0.6422
  204TIP3   OH2  575   4.038   5.508   5.400  0.3579 -0.4111 -0.0727
  204TIP3    H1  576   4.084   5.589   5.376  0.3248 -0.4184 -0.1637
  204TIP3    H2  577   3.964   5.503   5.339  0.3656 -0.5142 -0.0745
  205TIP3   OH2  578   1.297   2.816   5.045  0.7311 -0.2585  0.0251
  205TIP3    H1  579   1.386   2.809   5.079  0.4372  0.6952  1.0646
  205TIP3    H2  580   1.246   2.756   5.100  0.4501  0.4415  0.5380
  206TIP3   OH2  581   6.425   6.108   4.400 -0.1670 -0.0379  0.1461
  206TIP3    H1  582   6.405   6.144   4.314 -0.7903 -0.2895  0.1839
  206TIP3    H2  583   6.496   6.163   4.433 -0.4123  0.5082 -0.2273
  207TIP3   OH2  584   6.039   1.567   1.540  0.6394  0.1580 -0.1939
  207TIP3    H1  585   5.946   1.582   1.554  0.3984 -2.2736  1.5228
  207TIP3    H2  586   6.082   1.636   1.590 -0.2679  0.1728  0.5917
  208TIP3   OH2  587   0.958   2.086   1.783  0.0731 -0.1432  0.2543
  208TIP3    H1  588   1.046   2.047   1.785 -0.1202 -0.5692  0.5664
  208TIP3    H2  589   0.961   2.147   1.709  1.7382  2.4084  2.2413
  209TIP3   OH2  590   1.393   6.042   0.092  0.1489  0.1604  0.1365
  209TIP3    H1  591   1.298   6.028   0.090 -0.0702  0.6400  3.0269
  209TIP3    H2  592   1.430   5.954   0.086 -0.3638  0.0248 -1.9971
  210TIP3   OH2  593   3.121   1.700   3.716 -0.6790  0.5593  0.1421
  210TIP3    H1  594   3.188   1.769   3.721  1.4524 -1.2730 -1.3918
  210TIP3    H2  595   3.141   1.643   3.790  0.5688 -0.8515 -1.2161
  211TIP3   OH2  596   0.372   0.693   4.897 -0.0164 -0.0315 -0.0692
  211TIP3    H1  597   0.416   0.671   4.979 -0.2776  0.2333  0.1449
  211TIP3    H2  598   0.285   0.653   4.905  0.8053 -2.2464 -1.3053
  212TIP3   OH2  599   0.500   1.886   2.524  0.1879  0.2033 -0.4197
  212TIP3    H1  600   0.453   1.960   2.485  0.4620 -0.3351 -1.8119
  212TIP3    H2  601   0.487   1.814   2.463 -0.9309 -1.2319  1.4192
  213TIP3   OH2  602   0.396   5.962   4.842  0.2097  0.3345 -0.1103
  213TIP3    H1  603   0.365   6.043   4.882 -3.3046 -1.2168  0.6373
  213TIP3    H2  604   0.392   5.897   4.912 -0.6599 -1.2382 -1.5457
  214TIP3   OH2  605   0.212   6.625   2.705  0.4944 -0.0515 -0.1038
  214TIP3    H1  606   0.302   6.597   2.723  0.6371  0.9321  0.8401
  214TIP3    H2  607   0.172   6.631   2.791 -0.2958  0.1225 -0.4787
  215TIP3   OH2  608   1.304   4.213   2.817  0.3142 -0.1248  0.2610
  215TIP3    H1  609   1.265   4.126   2.814 -0.7619  0.2464  2.1099
  215TIP3    H2  610   1.253   4.264   2.754  1.0300 -0.8267 -0.9229
  216TIP3   OH2  611   5.359   6.061   1.195 -0.4940  0.4491 -0.6034
  216TIP3    H1  612   5.384   6.056   1.103 -1.4330  0.6836 -0.8804
  216TIP3    H2  613   5.264   6.052   1.194 -0.4093 -0.8281  0.4410
  217TIP3   OH2  614   1.480   1.646   5.252 -0.0727  0.3473 -0.5885
  217TIP3    H1  615   1.405   1.596   5.284  0.1701 -0.2054 -0.8641
  217TIP3    H2  616   1.454   1.738   5.263 -0.6979  0.1650 -0.4787
  218TIP3   OH2  617   3.480   1.886   5.123 -0.4835  0.4042 -0.2446
  218TIP3    H1  618   3.547   1.945   5.089  0.9684 -0.5513  0.8490
  218TIP3    H2  619   3.507   1.799   5.092 -1.4142  0.0415 -0.0675
  219TIP3   OH2  620   4.303   1.870   4.066  0.5315  0.7198 -0.7417
  219TIP3    H1  621   4.305   1.933   3.995 -0.4990  1.3216 -0.2670
  219TIP3    H2  622   4.375   1.810   4.048  1.2657  1.7853 -1.4271
  220TIP3   OH2  623   3.764   0.985   3.713  0.1537  0.8569  0.4549
  220TIP3    H1  624   3.740   1.030   3.632 -2.0166  0.9539  1.0722
  220TIP3    H2  625   3.756   0.892   3.693 -0.3367  0.8805  0.5152
  221TIP3   OH2  626   2.433   1.335   2.180 -0.0949  0.0189  0.8669
  221TIP3    H1  627   2.338   1.342   2.191 -0.0123  1.1743  0.9302
  221TIP3    H2  628   2.470   1.389   2.250  0.6066 -0.0488  0.5641
  222TIP3   OH2  629   5.751   1.038   3.473 -0.0896  0.2260 -0.1453
  222TIP3    H1  630   5.742   1.060   3.565 -0.7290 -1.1592  0.1524
  222TIP3    H2  631   5.663   1.010   3.446  0.6019 -1.8555 -0.4620
  223TIP3   OH2  632   2.571   3.587   0.956 -0.4254  0.1502 -0.0586
  223TIP3    H1  633   2.516   3.600   1.033  0.0508  0.0720  0.3013
  223TIP3    H2  634   2.629   3.663   0.955  2.2001 -1.6357  1.9172
  224TIP3   OH2  635   0.787   0.700   4.592 -0.2259 -0.6781 -0.2639
  224TIP3    H1  636   0.707   0.648   4.597  0.0351 -1.2531 -1.4967
  224TIP3    H2  637   0.773   0.774   4.651 -2.0779 -0.2408 -1.1877
  225TIP3   OH2  638   0.446   4.343   2.865  0.4378 -0.3939 -0.2196
  225TIP3    H1  639   0.537   4.337   2.894 -0.0191  0.0411  1.3875
  225TIP3    H2  640   0.429   4.437   2.859 -1.0357 -0.2837  3.4579
  226TIP3   OH2  641   0.682   4.571   0.812  0.2714 -0.5289  0.1577
  226TIP3    H1  642   0.740   4.641   0.782  0.6335 -0.2452  1.4267
  226TIP3    H2  643   0.738   4.519   0.871  0.1344 -2.1401 -1.0703
  227TIP3   OH2  644   2.980   1.999   2.718 -0.0619 -0.6593  0.4944
  227TIP3    H1  645   2.922   2.074   2.707 -2.0354 -2.3229 -1.4995
  227TIP3    H2  646   2.940   1.948   2.789  0.3943 -0.5856  0.8079
  228TIP3   OH2  647   7.024   4.050   5.415  0.0824 -0.0830 -0.2730
  228TIP3    H1  648   7.017   3.954   5.418 -2.5706 -0.0813 -2.2819
  228TIP3    H2  649   7.113   4.066   5.386 -0.0196 -2.0741 -1.9569
  229TIP3   OH2  650   1.048   2.408   2.960 -0.9076 -0.1894 -1.0635
  229TIP3    H1  651   1.099   2.367   2.890 -0.0605 -1.4900  0.2592
  229TIP3    H2  652   0.974   2.349   2.974  0.3783 -1.4462  0.9296
  230TIP3   OH2  653   1.054   0.411   3.523  0.0581  0.3204 -0.6017
  230TIP3    H1  654   0.981   0.374   3.474  0.2784 -0.1124 -0.6078
  230TIP3    H2  655   1.063   0.500   3.488 -0.6859  0.5039 -0.3564
  231TIP3   OH2  656   1.016   2.399   1.355  1.0660 -0.6636 -0.4848
  231TIP3    H1  657   1.041   2.354   1.274 -0.0102 -0.6484 -0.8444
  231TIP3    H2  658   0.964   2.474   1.326  1.0208 -0.4244  0.2002
  232TIP3   OH2  659   4.822   4.738   2.667 -0.2095 -0.1995  0.1774
  232TIP3    H1  660   4.877   4.801   2.621 -1.3286  1.2393  0.7493
  232TIP3    H2  661   4.811   4.774   2.755 -0.4940 -1.4454  0.6872
  233TIP3   OH2  662   4.001   4.490   3.939 -0.2835 -0.5211  0.2508
  233TIP3    H1  663   4.014   4.570   3.887  1.6589 -0.7860  0.2557
  233TIP3    H2  664   3.989   4.421   3.875  0.5092 -0.5966  0.1749
  234TIP3   OH2  665   6.030   4.831   4.761 -0.3129  0.2747 -0.5207
  234TIP3    H1  666   6.113   4.877   4.747 -0.1342  0.0273 -0.3065
  234TIP3    H2  667   5.964   4.886   4.720 -0.5095  2.1376  1.9957
  235TIP3   OH2  668   0.154   0.677   2.889 -0.9595  0.1628 -0.0784
  235TIP3    H1  669   0.067   0.683   2.849 -1.0455  2.1382  0.3283
  235TIP3    H2  670   0.200   0.755   2.859  0.7571 -0.9088 -0.3912
  236TIP3   OH2  671   6.308   3.737   4.146 -0.1459  0.5970  0.4471
  236TIP3    H1  672   6.250   3.713   4.218 -1.6577  1.3702 -0.4697
  236TIP3    H2  673   6.289   3.672   4.078 -0.1191  0.9992  0.0529
  237TIP3   OH2  674   4.122   6.467   5.092 -0.1965  0.3382 -0.3955
  237TIP3    H1  675   4.104   6.553   5.054  2.0513  1.7307  1.4658
  237TIP3    H2  676   4.191   6.430   5.038 -0.7769 -0.1078 -0.8571
  238TIP3   OH2  677   0.357   2.371   1.765 -0.6421 -0.2972 -0.0467
  238TIP3    H1  678   0.336   2.418   1.684  4.5922 -2.0966 -2.8930
  238TIP3    H2  679   0.342   2.279   1.744  0.6080 -0.7763  1.0563
  239TIP3   OH2  680   3.858   1.295   1.533  0.4954 -0.0410 -0.7982
  239TIP3    H1  681   3.800   1.366   1.506 -0.6983 -0.6020  0.1598
  239TIP3    H2  682   3.945   1.333   1.534  0.1359  0.8670 -2.1638
  240TIP3   OH2  683   3.637   3.289   2.158 -0.3054 -0.1372  0.3313
  240TIP3    H1  684   3.574   3.336   2.213 -1.7671 -1.2000 -0.3874
  240TIP3    H2  685   3.601   3.201   2.148  1.8558 -1.1592  0.8004
  241TIP3   OH2  686   1.443   5.535   0.104 -0.1510 -0.2781 -0.2120
  241TIP3    H1  687   1.395   5.455   0.124 -0.0130 -0.8457 -1.9787
  241TIP3    H2  688   1.466   5.527   0.012  1.9526  0.7013  0.1613
  242TIP3   OH2  689   4.905   4.767   5.737 -0.0547 -0.0427  0.1747
  242TIP3    H1  690   4.884   4.833   5.803  0.0382  1.5799 -1.3411
  242TIP3    H2  691   4.925   4.689   5.787 -0.8570  0.8743  2.0252
  243TIP3   OH2  692   3.259   5.944   3.881  0.3464  0.4148 -0.0360
  243TIP3    H1  693   3.206   5.994   3.818  2.3602  2.3420 -0.3576
  243TIP3    H2  694   3.204   5.937   3.959 -1.5733 -0.5467 -1.3935
  244TIP3   OH2  695   4.447   0.177   2.293  0.3666  0.1714 -0.7697
  244TIP3    H1  696   4.512   0.176   2.362 -0.2564  1.7432 -0.1135
  244TIP3    H2  697   4.385   0.108   2.317  0.6388  0.1052 -0.2511
  245TIP3   OH2  698   4.123   6.012   3.303 -0.1663  0.4679 -0.2515
  245TIP3    H1  699   4.144   5.958   3.227  0.1225  1.8345 -1.1818
  245TIP3    H2  700   4.198   6.003   3.361  0.1032  0.2712 -0.6294
  246TIP3   OH2  701   3.339   2.605   0.915  0.2117 -0.0215  0.2271
  246TIP3    H1  702   3.372   2.670   0.977  1.7801 -0.9528  0.4267
  246TIP3    H2  703   3.412   2.590   0.854 -0.7188 -0.3489 -0.8492
  247TIP3   OH2  704   3.350   1.671   0.432 -0.1850  0.5853  0.2556
  247TIP3    H1  705   3.276   1.680   0.491 -1.2533  0.0643 -0.9533
  247TIP3    H2  706   3.311   1.659   0.346  1.3001 -0.3929 -0.3294
  248TIP3   OH2  707   4.906   5.159   5.075  0.7030  0.3969  0.2487
  248TIP3    H1  708   4.852   5.236   5.091  0.3708  0.5427 -1.3957
  248TIP3    H2  709   4.972   5.161   5.144  1.3493  2.7505 -0.3586
  249TIP3   OH2  710   5.883   0.711   3.673  0.0600  0.4386  0.1107
  249TIP3    H1  711   5.911   0.800   3.696 -0.7584  0.6309  0.4108
  249TIP3    H2  712   5.939   0.655   3.726  0.7926  0.7621 -0.3099
  250TIP3   OH2  713   3.533   2.387   2.593 -0.1648  0.2618  0.0841
  250TIP3    H1  714   3.568   2.349   2.673 -0.9750  0.2429  0.4385
  250TIP3    H2  715   3.483   2.317   2.552 -1.7704  0.9392  0.8026
  251TIP3   OH2  716   5.018   1.475   2.928  0.4278  0.4973 -0.8550
  251TIP3    H1  717   5.045   1.414   2.858  1.0886  0.5975 -0.6965
  251TIP3    H2  718   5.100   1.502   2.968  0.0120 -1.9945  2.0554
  252TIP3   OH2  719   1.038   3.057   0.510  0.0028 -0.0631  0.3180
  252TIP3    H1  720   1.007   3.113   0.440 -0.1878 -0.3548  0.1683
  252TIP3    H2  721   1.106   3.003   0.469  1.2161  1.0252  0.7921
  253TIP3   OH2  722   7.005   1.177   3.421 -0.2053 -0.2268 -0.4839
  253TIP3    H1  723   7.074   1.169   3.355 -0.3166 -0.9497 -0.5158
  253TIP3    H2  724   6.943   1.107   3.400 -0.2136 -0.5001  0.4204
  254TIP3   OH2  725   0.070   5.706   0.832  0.2855  0.0638 -0.5163
  254TIP3    H1  726   0.121   5.782   0.805  0.2738  0.5048  0.6612
  254TIP3    H2  727  -0.022   5.733   0.823  0.2820  0.3285  0.2522
  255TIP3   OH2  728   5.160   3.824   4.469 -0.0965 -0.2415 -0.3490
  255TIP3    H1  729   5.237   3.769   4.483  0.2952 -0.0006 -1.4483
  255TIP3    H2  730   5.096   3.791   4.531 -0.0765 -2.3587 -1.3439
  256TIP3   OH2  731   3.916   2.186   4.603 -0.4309  0.4325  0.1584
  256TIP3    H1  732   3.848   2.223   4.659 -0.8511 -0.0058 -0.0524
  256TIP3    H2  733   3.914   2.092   4.622  0.1534  0.4236  0.1875
  257TIP3   OH2  734   3.462   5.259   3.127  0.0895  0.0483 -0.1717
  257TIP3    H1  735   3.492   5.326   3.065  1.1444 -0.6973 -0.4873
  257TIP3    H2  736   3.511   5.181   3.103  0.1176 -0.3937  1.2768
  258TIP3   OH2  737   6.960   5.448   1.305  0.5891  0.5530 -0.3714
  258TIP3    H1  738   6.976   5.526   1.253 -0.3386  0.8379 -0.2366
  258TIP3    H2  739   6.951   5.480   1.395 -1.3633  0.5025 -0.5177
  259TIP3   OH2  740   5.917   6.012   1.369 -0.2926  0.2438  0.5892
  259TIP3    H1  741   5.825   6.038   1.366 -0.1826  0.8393  1.6580
  259TIP3    H2  742   5.925   5.964   1.451  0.0189 -1.2034 -0.2618
  260TIP3   OH2  743   6.128   3.062   2.752  0.6599  0.2549  0.6498
  260TIP3    H1  744   6.117   2.991   2.815 -0.7276  1.5028  1.9139
  260TIP3    H2  745   6.063   3.044   2.684  2.4086 -1.2920 -0.6890
  261TIP3   OH2  746   2.646   3.796   0.177  0.0779 -0.5675 -0.2306
  261TIP3    H1  747   2.578   3.853   0.141  0.4358  0.1748  0.2629
  261TIP3    H2  748   2.684   3.753   0.100 -0.5356 -0.5346 -0.5617
  262TIP3   OH2  749   4.552   1.107   4.576  0.1003 -0.1955  0.4624
  262TIP3    H1  750   4.464   1.143   4.567  0.2093  0.5930  2.1822
  262TIP3    H2  751   4.601   1.174   4.624  1.5881 -0.7230 -0.2365
  263TIP3   OH2  752   5.490   6.808   4.481 -0.2141  0.5346 -0.2599
  263TIP3    H1  753   5.456   6.769   4.400 -2.1752  0.4268  0.5598
  263TIP3    H2  754   5.546   6.740   4.518 -0.9017 -0.2025 -0.5440
  264TIP3   OH2  755   4.684   4.765   2.264 -0.0277  0.0640 -0.0663
  264TIP3    H1  756   4.683   4.834   2.197  2.1624 -1.6430 -2.0363
  264TIP3    H2  757   4.593   4.736   2.271 -0.5429  1.3368 -1.1568
  265TIP3   OH2  758   6.486   5.348   4.970  0.3656  0.0718 -0.1587
  265TIP3    H1  759   6.549   5.305   5.028 -0.5471  1.9241  2.4317
  265TIP3    H2  760   6.528   5.430   4.946  0.1767 -0.0757 -1.0012
  266TIP3   OH2  761   1.655   3.395   1.278 -0.1467  0.3848 -0.0052
  266TIP3    H1  762   1.591   3.333   1.312 -1.8582  1.8987 -0.3280
  266TIP3    H2  763   1.622   3.481   1.304  0.3229  1.3903 -2.4342
  267TIP3   OH2  764   2.300   6.105   2.190  0.4195  0.6976 -0.0979
  267TIP3    H1  765   2.373   6.126   2.249  0.0982  1.9070 -0.1163
  267TIP3    H2  766   2.309   6.011   2.175 -0.4711 -0.0558  3.2251
  268TIP3   OH2  767   7.148   5.231   4.755 -0.0357  0.1553  0.0016
  268TIP3    H1  768   7.148   5.310   4.809  2.1133 -0.0039  0.2967
  268TIP3    H2  769   7.093   5.169   4.804  1.1847  0.2865  1.6050
  269TIP3   OH2  770   4.261   3.356   5.473  0.2609 -0.4253 -0.4505
  269TIP3    H1  771   4.207   3.426   5.436 -0.1779  0.9283  2.4572
  269TIP3    H2  772   4.305   3.397   5.547  2.5511 -2.4459 -0.5848
  270TIP3   OH2  773   3.532   4.684   0.921 -0.1008 -0.0789 -0.0102
  270TIP3    H1  774   3.529   4.721   1.009  0.4228  0.9039 -0.3847
  270TIP3    H2  775   3.595   4.612   0.927 -0.3353 -0.2448  0.4925
  271TIP3   OH2  776   0.268   5.471   1.735  0.2543  0.4022 -0.1448
  271TIP3    H1  777   0.196   5.476   1.797  0.5657  1.2236  0.1702
  271TIP3    H2  778   0.229   5.491   1.650  0.0546  0.5116 -0.0261
  272TIP3   OH2  779   1.499   5.654   0.388  0.0960 -0.4074  0.4634
  272TIP3    H1  780   1.587   5.621   0.407 -0.0790 -2.2125 -1.5640
  272TIP3    H2  781   1.467   5.599   0.317 -2.6725  0.2606  1.0739
  273TIP3   OH2  782   7.035   2.515   0.924  0.3736 -0.3862  0.1918
  273TIP3    H1  783   7.113   2.509   0.978  2.3673 -0.1331 -2.4891
  273TIP3    H2  784   7.014   2.608   0.921  1.6195 -0.1290 -1.2279
  274TIP3   OH2  785   0.865   4.021   5.404  0.0495 -0.1276  1.3038
  274TIP3    H1  786   0.892   3.940   5.360  2.4098  1.5062 -0.4351
  274TIP3    H2  787   0.770   4.022   5.395  0.1068 -1.9520 -0.0148
  275TIP3   OH2  788   0.830   0.937   2.471 -0.1326  0.2613 -0.3797
  275TIP3    H1  789   0.848   1.007   2.534 -1.4622 -1.3008  1.9321
  275TIP3    H2  790   0.761   0.972   2.415 -0.4428  0.9993  0.4369
  276TIP3   OH2  791   0.493   5.929   0.744 -0.1177  0.0084  0.4727
  276TIP3    H1  792   0.566   5.986   0.766  0.2341  0.5337 -1.7930
  276TIP3    H2  793   0.517   5.890   0.660 -2.2099 -0.1670 -0.1089
  277TIP3   OH2  794   4.561   6.285   2.720 -0.0863 -0.0101 -0.1384
  277TIP3    H1  795   4.603   6.301   2.635  1.0953  0.3089  0.4892
  277TIP3    H2  796   4.497   6.356   2.728  0.5138  0.5696 -0.3233
  278TIP3   OH2  797   3.589   6.750   2.715  0.0561 -0.3564  0.0081
  278TIP3    H1  798   3.678   6.775   2.740  0.3735 -0.6005 -0.8381
  278TIP3    H2  799   3.580   6.661   2.748  0.5377 -0.7430 -0.8509
  279TIP3   OH2  800   0.027   1.275   0.962 -0.3007  0.5158  0.0776
  279TIP3    H1  801   0.066   1.345   0.910  1.8905 -0.2625  0.5322
  279TIP3    H2  802   0.060   1.195   0.921  1.4862 -0.1203  2.5445
  280TIP3   OH2  803   1.034   4.494   1.696  0.6631  0.4753 -0.2786
  280TIP3    H1  804   0.989   4.467   1.776 -0.8907  2.0042 -0.5902
  280TIP3    H2  805   1.123   4.516   1.726 -0.0531  1.5991  1.1724
  281TIP3   OH2  806   4.894   3.013   5.060 -0.5355  0.0205 -0.1119
  281TIP3    H1  807   4.848   3.046   4.983  0.9591  3.0491  0.1470
  281TIP3    H2  808   4.915   3.091   5.111  0.2868 -1.6981  2.4104
  282TIP3   OH2  809   4.825   6.607   2.879  0.5633 -0.3261 -0.4274
  282TIP3    H1  810   4.745   6.640   2.920  0.3716 -0.2079 -0.8939
  282TIP3    H2  811   4.823   6.642   2.790  0.6395 -1.1359 -0.7570
  283TIP3   OH2  812   7.209   4.950   3.706 -0.0133 -0.3931 -0.0018
  283TIP3    H1  813   7.243   4.916   3.624  2.2994 -0.9045  1.0829
  283TIP3    H2  814   7.153   4.880   3.740  0.6436 -1.0209 -0.1965
  284TIP3   OH2  815   2.122   5.191   1.607 -0.2674 -0.4571  0.2981
  284TIP3    H1  816   2.087   5.102   1.618  0.1695 -1.0203 -2.1886
  284TIP3    H2  817   2.210   5.177   1.573  0.3249  0.9582  1.1906
  285TIP3   OH2  818   2.245   0.226   2.567  0.1263 -0.1513 -0.4036
  285TIP3    H1  819   2.190   0.149   2.552  0.8007 -1.0890  1.6609
  285TIP3    H2  820   2.335   0.193   2.561  0.4640  0.8290 -1.0715
  286TIP3   OH2  821   0.778   6.405   4.893 -0.7968  0.1771 -0.0248
  286TIP3    H1  822   0.693   6.410   4.937 -0.5638 -0.7436  0.5721
  286TIP3    H2  823   0.758   6.402   4.800 -1.4267 -0.1061  0.1192
  287TIP3   OH2  824   1.044   3.177   4.977  0.0523  0.3348  0.3756
  287TIP3    H1  825   0.999   3.098   5.009  1.1307 -0.6785 -0.4995
  287TIP3    H2  826   1.132   3.146   4.955 -0.2898  1.1719 -2.5102
  288TIP3   OH2  827   5.684   3.788   1.792  0.2829 -0.0132  0.9106
  288TIP3    H1  828   5.605   3.841   1.780  0.1193 -0.5923 -0.8172
  288TIP3    H2  829   5.665   3.736   1.871 -1.7624 -1.2271 -0.2649
  289TIP3   OH2  830   6.820   2.997   1.197 -0.3434 -0.7647 -0.0606
  289TIP3    H1  831   6.798   3.084   1.232  1.1664  0.7091 -2.5064
  289TIP3    H2  832   6.739   2.947   1.207 -1.3073  0.9454  1.3260
  290TIP3   OH2  833   6.794   3.880   1.454 -0.4037 -0.0037  0.4806
  290TIP3    H1  834   6.850   3.958   1.447 -0.4783  0.1662  1.5914
  290TIP3    H2  835   6.847   3.810   1.416  0.0866  0.3797  0.4362
  291TIP3   OH2  836   5.577   0.817   2.300 -0.2129 -0.8972  0.3730
  291TIP3    H1  837   5.554   0.759   2.228  0.1515  0.1769 -0.6282
  291TIP3    H2  838   5.661   0.856   2.275 -0.0618 -0.5285  1.3910
  292TIP3   OH2  839   1.558   1.350   4.162 -0.1946  0.1454 -0.1966
  292TIP3    H1  840   1.619   1.370   4.233 -0.0965 -0.1790 -0.1846
  292TIP3    H2  841   1.474   1.336   4.206  0.4227 -2.9160  0.2424
  293TIP3   OH2  842   2.574   2.172   2.072 -0.6910 -0.2731  0.3445
  293TIP3    H1  843   2.660   2.170   2.113 -0.0669  0.0202 -0.9260
  293TIP3    H2  844   2.536   2.255   2.101  0.4398  0.7601 -1.0148
  294TIP3   OH2  845   2.365   5.838   0.537  0.2258  0.0031  0.8219
  294TIP3    H1  846   2.280   5.796   0.522 -0.4177  1.5192  0.0873
  294TIP3    H2  847   2.345   5.910   0.597  1.6463 -1.8296  3.7575
  295TIP3   OH2  848   6.998   4.715   5.589  0.0387  0.0224 -0.8162
  295TIP3    H1  849   7.008   4.806   5.561 -3.3832  0.1391 -2.1310
  295TIP3    H2  850   6.904   4.699   5.586  0.3341 -3.0328  1.2439
  296TIP3   OH2  851   4.944   3.306   4.144  0.7523 -0.0765 -0.2561
  296TIP3    H1  852   4.864   3.333   4.189  0.8034  0.0821 -0.2606
  296TIP3    H2  853   5.007   3.376   4.162  0.3346  0.7498 -1.7974
  297TIP3   OH2  854   6.098   4.015   4.543 -0.0877 -0.0744 -0.1390
  297TIP3    H1  855   6.108   4.093   4.488 -1.1724 -0.2555 -0.6067
  297TIP3    H2  856   6.169   3.957   4.515  1.3944  1.1090  0.9168
  298TIP3   OH2  857   2.021   4.611   5.572 -0.3712 -0.5296  0.0131
  298TIP3    H1  858   1.999   4.702   5.596  0.6469  0.0048 -0.9848
  298TIP3    H2  859   2.016   4.563   5.655 -1.2423  0.3754  0.5029
  299TIP3   OH2  860   4.196   2.137   0.871 -0.1011 -0.3351 -0.0847
  299TIP3    H1  861   4.185   2.093   0.787  1.7944 -1.7533  0.3352
  299TIP3    H2  862   4.122   2.197   0.877 -1.1626 -1.3591 -2.0329
  300TIP3   OH2  863   1.652   6.348   3.138 -0.0265  1.0468  0.0814
  300TIP3    H1  864   1.672   6.374   3.048 -0.3345  0.1178 -0.2728
  300TIP3    H2  865   1.626   6.429   3.182 -0.7673  1.3661 -0.9071
  301TIP3   OH2  866   6.080   3.346   5.580 -0.0635  0.2460  0.2843
  301TIP3    H1  867   6.063   3.409   5.510 -2.3584 -1.2639 -0.6247
  301TIP3    H2  868   6.109   3.267   5.535 -2.5400 -1.0771  0.8706
  302TIP3   OH2  869   5.824   6.623   2.161  0.4788  0.0420 -0.0088
  302TIP3    H1  870   5.847   6.557   2.226  0.6317 -0.2078 -0.3137
  302TIP3    H2  871   5.904   6.636   2.110 -0.0470 -0.8598 -1.1004
  303TIP3   OH2  872   6.133   4.225   3.597 -0.2365 -0.4642  0.0855
  303TIP3    H1  873   6.219   4.184   3.613 -1.0659 -1.6952  1.7386
  303TIP3    H2  874   6.074   4.152   3.580 -1.6153 -0.0041  2.3784
  304TIP3   OH2  875   4.528   2.931   5.135  0.5054 -0.3961 -0.6304
  304TIP3    H1  876   4.466   2.925   5.207  1.9512  0.0103  0.7066
  304TIP3    H2  877   4.474   2.925   5.056 -1.4121  1.4690  0.4185
  305TIP3   OH2  878   2.047   2.158   5.673 -0.7564 -0.1166 -0.6505
  305TIP3    H1  879   2.034   2.150   5.767  1.0316  0.3052 -0.3367
  305TIP3    H2  880   1.961   2.138   5.635 -1.3447 -0.9227  1.0195
  306TIP3   OH2  881   5.726   6.420   2.889 -0.5037  0.2525 -0.6242
  306TIP3    H1  882   5.653   6.482   2.882 -0.4132  0.1941 -3.3163
  306TIP3    H2  883   5.780   6.454   2.960 -1.5056  2.1260 -0.6982
  307TIP3   OH2  884   6.085   2.207   5.476  0.1297  0.2144 -0.3923
  307TIP3    H1  885   6.059   2.249   5.558  2.8439 -3.1626  2.4957
  307TIP3    H2  886   6.002   2.193   5.429 -1.7167  1.1594  2.3233
  308TIP3   OH2  887   4.386   5.820   5.384  0.2686 -0.3357  0.1279
  308TIP3    H1  888   4.434   5.738   5.388 -0.6490 -0.8454  1.3483
  308TIP3    H2  889   4.373   5.845   5.476  0.3700  1.0748 -0.2215
  309TIP3   OH2  890   4.842   1.392   0.351 -0.3144 -0.0912  0.2192
  309TIP3    H1  891   4.760   1.437   0.370 -0.5847 -1.1707  1.7959
  309TIP3    H2  892   4.815   1.307   0.315  0.1032 -0.3662  0.5449
  310TIP3   OH2  893   0.128   3.611   0.037  0.3075 -0.2316  0.4643
  310TIP3    H1  894   0.129   3.516   0.026  0.7190 -0.4360  2.0216
  310TIP3    H2  895   0.197   3.628   0.101 -0.6145  0.9817  1.1682
  311TIP3   OH2  896   1.910   6.348   0.570 -0.3208  0.7449 -0.2529
  311TIP3    H1  897   1.831   6.401   0.563 -0.9866 -0.2671 -0.5825
  311TIP3    H2  898   1.938   6.335   0.480  0.5206  1.5011 -0.1209
  312TIP3   OH2  899   1.548   1.783   2.662  0.3054  0.5283 -0.5964
  312TIP3    H1  900   1.496   1.722   2.610  1.8053 -2.3215  0.9829
  312TIP3    H2  901   1.594   1.837   2.597 -1.2316  0.1758 -2.0555
  313TIP3   OH2  902   2.254   4.537   3.677  0.4659 -0.7931  0.1766
  313TIP3    H1  903   2.229   4.531   3.584 -0.6109  0.6294  0.3316
  313TIP3    H2  904   2.209   4.463   3.718 -0.7923 -0.2256 -0.1160
  314TIP3   OH2  905   4.050   1.128   5.374 -0.3026 -0.3027 -0.4815
  314TIP3    H1  906   4.057   1.038   5.405  0.3871 -0.2488 -0.4609
  314TIP3    H2  907   4.118   1.135   5.306 -0.6576  0.0688 -0.8055
  315TIP3   OH2  908   0.296   2.113   1.672 -0.6473  0.3893 -0.6148
  315TIP3    H1  909   0.372   2.062   1.698 -1.2792 -1.3610 -1.9807
  315TIP3    H2  910   0.223   2.074   1.720 -1.3426 -0.9238 -2.6383
  316TIP3   OH2  911   6.490   2.776   0.119 -0.7802 -0.5917  0.0821
  316TIP3    H1  912   6.560   2.812   0.172 -0.9100 -0.0853 -0.0797
  316TIP3    H2  913   6.410   2.814   0.155 -0.9088 -0.6085 -0.1779
  317TIP3   OH2  914   6.078   5.095   2.596  0.0392  0.1241  0.0123
  317TIP3    H1  915   6.022   5.170   2.577 -3.4876 -1.7469  1.9192
  317TIP3    H2  916   6.062   5.034   2.523 -0.2647 -0.3294  0.4507
  318TIP3   OH2  917   4.220  -0.019   2.155 -0.2428  0.0463  0.0535
  318TIP3    H1  918   4.237  -0.038   2.063  0.3682  1.3926 -0.1302
  318TIP3    H2  919   4.169   0.062   2.155  1.7135  1.3667  0.9223
  319TIP3   OH2  920   1.600   6.114   1.753 -0.3913 -0.1810  0.5037
  319TIP3    H1  921   1.672   6.052   1.745 -0.2159  0.0286  0.4559
  319TIP3    H2  922   1.543   6.076   1.820 -0.7573 -0.8543 -0.1753
  320TIP3   OH2  923   6.799   3.925   0.849  0.2772  0.1050  0.1610
  320TIP3    H1  924   6.807   4.002   0.792  1.3330  1.0846  1.5467
  320TIP3    H2  925   6.819   3.959   0.937  0.2839 -1.6663  0.8775
  321TIP3   OH2  926   4.765   2.868   3.708  0.3992 -0.5358  0.1902
  321TIP3    H1  927   4.673   2.842   3.713  0.2404 -0.2933 -1.0210
  321TIP3    H2  928   4.794   2.873   3.799 -1.2083  0.9454  0.6621
  322TIP3   OH2  929   2.589   4.885   4.262 -0.5077 -0.4227  0.1154
  322TIP3    H1  930   2.601   4.970   4.221 -0.1674  1.0043  2.9159
  322TIP3    H2  931   2.677   4.857   4.287 -0.7412 -1.0197  0.2989
  323TIP3   OH2  932   5.656   4.320   0.304  0.3191  0.3008  0.1376
  323TIP3    H1  933   5.718   4.311   0.376 -1.8208  0.0931  2.0735
  323TIP3    H2  934   5.608   4.238   0.303  0.3957  0.2343 -1.6804
  324TIP3   OH2  935   5.076   1.162   5.234  0.1325  0.2278 -0.1827
  324TIP3    H1  936   5.039   1.185   5.319  0.6222 -0.8652  0.3415
  324TIP3    H2  937   5.001   1.166   5.174 -0.1429  1.3739  0.2045
  325TIP3   OH2  938   5.813   6.330   1.990  0.1639 -0.0091 -0.0833
  325TIP3    H1  939   5.863   6.332   1.909 -2.3696  0.2521 -1.7378
  325TIP3    H2  940   5.769   6.245   1.989  1.3002 -0.6912  1.8617
  326TIP3   OH2  941   3.822   6.774   5.042 -0.6884  0.0978 -0.3357
  326TIP3    H1  942   3.859   6.850   4.996 -0.7068  0.8084  0.7948
  326TIP3    H2  943   3.881   6.702   5.020  0.3819  0.8355  0.0415
  327TIP3   OH2  944   0.486   0.241   3.293 -0.0943 -0.0936 -0.4691
  327TIP3    H1  945   0.555   0.262   3.231  1.5410 -0.1424  1.2596
  327TIP3    H2  946   0.488   0.312   3.358 -0.8434 -0.7209  0.2805
  328TIP3   OH2  947   5.331   2.617   0.136 -0.7823 -0.7821 -0.0834
  328TIP3    H1  948   5.409   2.578   0.175 -0.1782  0.3717 -0.1069
  328TIP3    H2  949   5.259   2.582   0.188 -0.2158 -1.5096  0.2278
  329TIP3   OH2  950   1.142   3.827   0.226 -0.0711 -0.4058 -0.1427
  329TIP3    H1  951   1.088   3.849   0.150  1.9486 -2.3507 -2.3124
  329TIP3    H2  952   1.096   3.864   0.300 -1.8993  2.1057 -2.3583
  330TIP3   OH2  953   5.976   1.603   5.151  0.2945  0.0421  0.4099
  330TIP3    H1  954   6.057   1.623   5.198  0.0171  0.2793  0.7912
  330TIP3    H2  955   5.932   1.538   5.205 -0.3127  0.7615  0.7908
  331TIP3   OH2  956   2.419   2.973   4.871 -0.5652 -0.3052  0.3610
  331TIP3    H1  957   2.462   3.048   4.913 -1.6104  0.7110 -0.3240
  331TIP3    H2  958   2.478   2.899   4.888  1.8137  1.1123 -1.0879
  332TIP3   OH2  959   6.096   0.705   0.420 -0.2664 -0.7539  0.0080
  332TIP3    H1  960   6.149   0.653   0.359  1.8183  0.9476  0.2345
  332TIP3    H2  961   6.070   0.782   0.369 -0.7985 -0.5908  0.5177
  333TIP3   OH2  962   3.624   6.080   5.574 -0.5951  0.5652 -0.2064
  333TIP3    H1  963   3.710   6.120   5.560 -1.0210  1.6856  0.2211
  333TIP3    H2  964   3.574   6.147   5.620 -1.0716 -0.8169  1.3951
  334TIP3   OH2  965   1.612   5.224   3.788 -0.0599  0.7473 -0.3769
  334TIP3    H1  966   1.556   5.245   3.862  0.5967 -0.0096  0.3512
  334TIP3    H2  967   1.563   5.156   3.740 -0.3454  1.0145 -0.4658
  335TIP3   OH2  968   1.247   1.054   0.630  0.1632  0.2080  0.4037
  335TIP3    H1  969   1.335   1.092   0.631 -0.0595  0.7322  0.5765
  335TIP3    H2  970   1.242   1.006   0.548  0.4101  0.6647  0.1218
  336TIP3   OH2  971   1.063   0.431   2.571  0.0995  0.2459 -0.1945
  336TIP3    H1  972   1.126   0.438   2.642 -0.6401 -0.1146  0.5075
  336TIP3    H2  973   0.994   0.494   2.593 -0.5195 -0.4298 -0.1833
  337TIP3   OH2  974   5.916   2.277   1.517 -0.3078 -0.1791  0.5344
  337TIP3    H1  975   5.915   2.182   1.530 -0.4057  0.0455  2.4095
  337TIP3    H2  976   5.824   2.303   1.523 -0.2767  0.0400  0.0764
  338TIP3   OH2  977   1.097   3.316   2.037  0.1465  0.3426 -0.2787
  338TIP3    H1  978   1.187   3.287   2.026  0.3586  1.4074 -1.5509
  338TIP3    H2  979   1.093   3.349   2.127  0.1798 -2.4730  0.8502
  339TIP3   OH2  980   3.593   2.621   2.048  0.1504  0.1039 -0.0031
  339TIP3    H1  981   3.501   2.614   2.020  0.2439  2.0299 -0.9347
  339TIP3    H2  982   3.644   2.606   1.968  0.5573  1.1940  0.0328
  340TIP3   OH2  983   6.108   1.061   2.528  0.1941 -0.5898  0.8155
  340TIP3    H1  984   6.135   1.150   2.504 -2.2061 -0.3550 -1.5148
  340TIP3    H2  985   6.030   1.073   2.582 -1.5825 -1.1235 -1.4312
  341TIP3   OH2  986   2.874   6.023   2.460 -0.1864 -0.2746  0.3281
  341TIP3    H1  987   2.810   5.990   2.523 -1.2215  0.8371 -0.1067
  341TIP3    H2  988   2.850   5.981   2.377 -0.4386  0.2336  0.1397
  342TIP3   OH2  989   0.104   0.319   3.853  0.0348  0.0368  0.4794
  342TIP3    H1  990   0.166   0.313   3.781 -1.5526  2.1653 -1.1973
  342TIP3    H2  991   0.107   0.411   3.881 -0.2557 -0.4740  2.3478
  343TIP3   OH2  992   1.769   6.632   2.380 -0.4637  0.1964 -0.9336
  343TIP3    H1  993   1.789   6.681   2.300  2.3232 -0.0778 -0.5068
  343TIP3    H2  994   1.727   6.696   2.437 -0.4621  1.0227 -1.8223
  344TIP3   OH2  995   2.276   5.566   3.596 -0.1189 -0.1695  0.3792
  344TIP3    H1  996   2.224   5.591   3.673 -1.5686  2.0512 -1.2012
  344TIP3    H2  997   2.356   5.619   3.603 -1.0998  1.5416 -0.5252
  345TIP3   OH2  998   0.936   0.797   2.280  0.3030  0.1040  0.3469
  345TIP3    H1  999   0.900   0.834   2.361  2.2701 -0.0713  1.3659
  345TIP3    H2 1000   0.903   0.708   2.277  0.5993 -0.0434  1.2319
  346TIP3   OH2 1001   4.240   5.130   3.401 -0.2867  0.3509 -0.2721
  346TIP3    H1 1002   4.309   5.104   3.341 -0.7268 -1.3424 -0.0883
  346TIP3    H2 1003   4.186   5.191   3.350  0.7487  0.8869 -0.7485
  347TIP3   OH2 1004   4.391   6.507   0.138 -0.2915 -0.4756  0.4365
  347TIP3    H1 1005   4.351   6.485   0.053  1.1457 -0.3980 -0.2955
  347TIP3    H2 1006   4.483   6.484   0.127 -0.0630 -0.3570  1.9628
  348TIP3   OH2 1007   1.647   5.029   4.662 -0.6076  0.5208 -0.0825
  348TIP3    H1 1008   1.736   5.037   4.695  0.2844  1.0851 -2.4307
  348TIP3    H2 1009   1.643   4.940   4.627 -1.3414  0.1345  0.9347
  349TIP3   OH2 1010   3.817   2.790   0.425  0.5319 -0.1386  0.0553
  349TIP3    H1 1011   3.805   2.727   0.354  0.9332 -0.3608  0.1805
  349TIP3    H2 1012   3.798   2.740   0.505  0.0514  0.1181  0.1020
  350TIP3   OH2 1013   5.319   1.670   0.822  0.1076  0.0301 -0.5911
  350TIP3    H1 1014   5.288   1.590   0.780  0.6709 -0.4254 -0.1614
  350TIP3    H2 1015   5.318   1.736   0.753 -0.8508 -0.2165 -0.8274
  351TIP3   OH2 1016   4.198   3.387   3.698  0.2831 -0.4216  0.0891
  351TIP3    H1 1017   4.211   3.297   3.729 -1.0504 -0.5426  0.3401
  351TIP3    H2 1018   4.142   3.378   3.620 -0.7467  0.2504  0.7290
  352TIP3   OH2 1019   6.115   3.391   3.824 -0.1505 -0.5433  0.7113
  352TIP3    H1 1020   6.160   3.317   3.785  1.3324  0.7877 -0.2050
  352TIP3    H2 1021   6.183   3.439   3.871 -0.9125  0.6337  0.6661
  353TIP3   OH2 1022   1.944   1.397   5.808  0.3384 -0.4487  0.0577
  353TIP3    H1 1023   2.012   1.431   5.866  0.6109 -0.6324 -0.1516
  353TIP3    H2 1024   1.864   1.398   5.861 -0.0051  1.9512 -0.3696
  354TIP3   OH2 1025   0.290   4.743   5.328  0.5526  0.2961 -0.0472
  354TIP3    H1 1026   0.267   4.656   5.361  1.2458 -0.5585 -1.7237
  354TIP3    H2 1027   0.216   4.799   5.354 -0.4299 -1.0331  0.1045
  355TIP3   OH2 1028   4.621   5.637   5.390 -0.8016  0.0013  0.3278
  355TIP3    H1 1029   4.620   5.542   5.375  0.3952  0.2026 -1.4403
  355TIP3    H2 1030   4.713   5.661   5.377 -1.2575  1.5301 -0.2183
  356TIP3   OH2 1031   6.256   5.887   0.841 -0.1936  0.1488  0.1975
  356TIP3    H1 1032   6.215   5.800   0.843 -1.3393  0.5748 -1.5841
  356TIP3    H2 1033   6.216   5.934   0.914  0.9955 -0.9973  1.6553
  357TIP3   OH2 1034   0.795   6.204   2.207 -0.1069  0.1562  0.0871
  357TIP3    H1 1035   0.746   6.251   2.139 -0.3833  0.0746  0.2277
  357TIP3    H2 1036   0.807   6.117   2.171 -0.6310 -0.0161  0.3201
  358TIP3   OH2 1037   5.070   2.958   2.777 -0.0439  0.5576 -0.2009
  358TIP3    H1 1038   5.012   2.910   2.718 -1.4028  1.2715  0.5240
  358TIP3    H2 1039   5.051   3.050   2.760  0.8762  0.8037  0.0633
  359TIP3   OH2 1040   4.294   4.847   0.561 -0.0465  0.7541  0.2130
  359TIP3    H1 1041   4.206   4.842   0.524 -0.5912 -0.7841  1.5802
  359TIP3    H2 1042   4.342   4.775   0.521  0.4949  1.3716 -0.2645
  360TIP3   OH2 1043   6.303   4.826   2.120  0.3062 -0.0800  0.1074
  360TIP3    H1 1044   6.345   4.880   2.052 -1.2732 -0.1070 -0.9381
  360TIP3    H2 1045   6.230   4.880   2.151 -0.4663 -1.0694  0.0284
  361TIP3   OH2 1046   4.773   6.131   0.782 -0.3028  0.2010  0.2670
  361TIP3    H1 1047   4.751   6.217   0.746  0.3329  0.3622  0.2572
  361TIP3    H2 1048   4.797   6.149   0.873  1.1730  0.2300 -0.1117
  362TIP3   OH2 1049   5.432   3.368   4.116  0.3002 -0.7073 -0.6612
  362TIP3    H1 1050   5.355   3.327   4.077  0.0695 -0.0201 -0.9544
  362TIP3    H2 1051   5.488   3.390   4.041 -0.5625  1.4688 -0.7448
  363TIP3   OH2 1052   5.527   5.696   0.221 -0.1709 -0.4546 -0.1133
  363TIP3    H1 1053   5.460   5.653   0.274  0.0758 -0.1305  0.4642
  363TIP3    H2 1054   5.597   5.631   0.213  0.3706 -0.0371  1.0819
  364TIP3   OH2 1055   5.431   1.834   1.707 -0.3451 -0.0793  0.0395
  364TIP3    H1 1056   5.372   1.879   1.647  0.4149 -0.2224 -0.8354
  364TIP3    H2 1057   5.510   1.889   1.710 -0.0553 -0.4985  0.2553
  365TIP3   OH2 1058   1.840   2.751   0.749 -0.7469 -0.1695 -0.2313
  365TIP3    H1 1059   1.770   2.776   0.688 -1.8834 -1.7690  0.3568
  365TIP3    H2 1060   1.846   2.656   0.740  0.6850 -0.1628  0.4736
  366TIP3   OH2 1061   4.760   4.391   1.004  0.3363  0.5428 -1.0652
  366TIP3    H1 1062   4.745   4.481   0.976  0.4000  0.3456 -1.7362
  366TIP3    H2 1063   4.709   4.382   1.085 -0.4849  0.8777 -1.5398
  367TIP3   OH2 1064   2.712   4.672   4.698  0.6433  0.0637 -0.1298
  367TIP3    H1 1065   2.649   4.744   4.687 -0.7190 -1.3108 -1.8950
  367TIP3    H2 1066   2.745   4.656   4.610  2.2370 -0.3760  0.5149
  368TIP3   OH2 1067   6.269   1.610   0.468  0.1971  0.1821  0.4504
  368TIP3    H1 1068   6.212   1.566   0.531  1.6105 -0.5085  1.2911
  368TIP3    H2 1069   6.229   1.697   0.456 -1.2235 -0.4107  0.7003
  369TIP3   OH2 1070   6.282   1.671   5.792  0.1278  1.1538  0.1368
  369TIP3    H1 1071   6.334   1.622   5.728 -2.2173 -1.1162 -0.1775
  369TIP3    H2 1072   6.216   1.717   5.739 -0.1647  1.4367  0.7355
  370TIP3   OH2 1073   3.923   3.545   0.021 -0.1160 -0.1427 -0.3550
  370TIP3    H1 1074   3.953   3.549   0.112  0.4875  0.3580 -0.5687
  370TIP3    H2 1075   4.003   3.551  -0.031 -0.6288  3.2739 -0.9836
  371TIP3   OH2 1076   3.836   6.613   4.404  0.2559  0.4646 -0.2817
  371TIP3    H1 1077   3.896   6.580   4.471  0.5429  2.3857  0.4756
  371TIP3    H2 1078   3.751   6.616   4.447  0.0686 -0.0662 -0.6128
  372TIP3   OH2 1079   6.397   0.444   0.419  0.0071 -0.4402 -0.7456
  372TIP3    H1 1080   6.479   0.395   0.416 -0.0221 -0.4559 -1.8973
  372TIP3    H2 1081   6.404   0.505   0.345 -0.1281  1.0230  0.4184
  373TIP3   OH2 1082   3.636   0.719   2.841 -0.1070 -0.4520 -0.1531
  373TIP3    H1 1083   3.675   0.728   2.754 -0.6017  3.0954 -0.1563
  373TIP3    H2 1084   3.710   0.701   2.899  0.8415  1.0994 -0.8269
  374TIP3   OH2 1085   2.752   2.973   0.990  0.7705 -0.3352 -0.0302
  374TIP3    H1 1086   2.696   2.896   0.989  0.5074 -0.2806  2.7087
  374TIP3    H2 1087   2.698   3.044   0.955 -0.1113 -0.7303  0.5294
  375TIP3   OH2 1088   3.501   5.798   4.614 -0.6297 -0.4315  0.2820
  375TIP3    H1 1089   3.500   5.814   4.520 -0.6234 -0.7015  0.2348
  375TIP3    H2 1090   3.482   5.704   4.623  2.6772 -1.2316  0.3660
  376TIP3   OH2 1091   6.007   5.025   3.670 -0.6936 -0.4865 -0.8858
  376TIP3    H1 1092   5.950   5.061   3.737  1.8934  1.0946  0.6614
  376TIP3    H2 1093   5.983   5.071   3.590 -1.3619  0.4023 -0.1986
  377TIP3   OH2 1094   3.337   4.459   2.549 -0.0006 -0.3232 -0.3785
  377TIP3    H1 1095   3.390   4.475   2.471  0.2644 -2.8277 -0.7758
  377TIP3    H2 1096   3.399   4.470   2.622 -0.0395  1.1058 -0.5231
  378TIP3   OH2 1097   7.042   4.589   4.127 -0.0198  0.6404  0.1380
  378TIP3    H1 1098   6.973   4.624   4.070  0.4475  0.5383 -0.4987
  378TIP3    H2 1099   7.027   4.633   4.211 -0.8538  0.6237  0.0096
  379TIP3   OH2 1100   1.475   6.164   3.731 -0.4494  0.1481 -0.0339
  379TIP3    H1 1101   1.496   6.072   3.715  0.8386  0.5567 -0.8049
  379TIP3    H2 1102   1.507   6.181   3.819 -0.9288 -0.2023  0.2127
  380TIP3   OH2 1103   6.345   3.871   1.853 -0.3011 -0.1657  0.4347
  380TIP3    H1 1104   6.387   3.831   1.777 -0.1779  1.5617 -0.4495
  380TIP3    H2 1105   6.323   3.797   1.910  0.3592 -1.4239 -0.8863
  381TIP3   OH2 1106   2.096   3.093   3.455 -0.1588 -0.4197 -0.1778
  381TIP3    H1 1107   2.016   3.145   3.450 -0.2908 -0.5335  0.5980
  381TIP3    H2 1108   2.144   3.129   3.530  0.1006 -0.9200 -0.0994
  382TIP3   OH2 1109   1.900   0.860   1.853  0.7632  0.2590 -0.7149
  382TIP3    H1 1110   1.867   0.876   1.941  1.3611  0.1890 -0.4743
  382TIP3    H2 1111   1.866   0.932   1.801 -0.4722 -0.2670 -0.6617
  383TIP3   OH2 1112   5.612   0.510   2.785  0.1822  0.3450  0.1235
  383TIP3    H1 1113   5.702   0.479   2.798 -0.2105 -1.0366 -0.2544
  383TIP3    H2 1114   5.592   0.560   2.864  1.0405  0.0367  0.5519
  384TIP3   OH2 1115   2.326   1.629   2.680 -0.6073  0.2273 -0.2824
  384TIP3    H1 1116   2.410   1.597   2.713 -0.2941  1.1076 -0.2010
  384TIP3    H2 1117   2.262   1.567   2.715  0.0601 -0.8654 -0.9219
  385TIP3   OH2 1118   5.137   5.807   0.288  0.0038  0.0716  0.3755
  385TIP3    H1 1119   5.115   5.753   0.212 -0.0171 -0.6367  0.8808
  385TIP3    H2 1120   5.118   5.897   0.259 -3.3872 -0.3946  0.6548
  386TIP3   OH2 1121   4.835   3.805   2.564  0.5470  0.6888 -0.0534
  386TIP3    H1 1122   4.808   3.732   2.508 -0.1346  1.4808 -0.7884
  386TIP3    H2 1123   4.859   3.764   2.647 -0.0452 -0.3484 -0.3786
  387TIP3   OH2 1124   5.481   2.066   2.070 -0.1720  0.6557 -0.4653
  387TIP3    H1 1125   5.571   2.046   2.096 -0.0475  0.1339 -1.2635
  387TIP3    H2 1126   5.427   2.030   2.140  0.1125 -1.4560 -1.2813
  388TIP3   OH2 1127   5.125   5.918   4.410 -0.5368 -0.0627 -0.6369
  388TIP3    H1 1128   5.033   5.927   4.436 -0.1255 -0.8653  1.2067
  388TIP3    H2 1129   5.143   5.824   4.417  0.3715  0.0573 -1.1910
  389TIP3   OH2 1130   1.771   0.740   5.647  0.2249 -0.2057 -0.5177
  389TIP3    H1 1131   1.762   0.829   5.680 -2.3073 -0.8778  0.8666
  389TIP3    H2 1132   1.740   0.745   5.556  1.9732  0.6305 -1.1104
  390TIP3   OH2 1133   0.257   0.448   0.072  0.2480  0.2545 -0.1526
  390TIP3    H1 1134   0.321   0.451   0.143 -1.8221  1.5278  1.7734
  390TIP3    H2 1135   0.269   0.531   0.026 -0.6820  0.9617  0.8552
  391TIP3   OH2 1136   2.272   3.024   4.277  0.0780  0.2825 -0.2062
  391TIP3    H1 1137   2.340   2.957   4.280 -0.6539 -0.4394  0.8139
  391TIP3    H2 1138   2.207   2.990   4.216  0.6734  1.0349 -1.2854
  392TIP3   OH2 1139   2.927   3.039   4.974 -0.0259 -0.4733 -0.3574
  392TIP3    H1 1140   2.918   3.058   4.881  0.3708  0.1310 -0.2780
  392TIP3    H2 1141   3.020   3.015   4.985  0.0320 -0.1227 -0.0496
  393TIP3   OH2 1142   3.911   1.698   2.657 -0.2609 -0.0962  0.2160
  393TIP3    H1 1143   3.841   1.672   2.716  0.3282 -1.3538  0.3889
  393TIP3    H2 1144   3.936   1.617   2.612  2.2100 -0.0418  1.3598
  394TIP3   OH2 1145   2.202   2.364   1.461  0.5773 -0.0893  0.5809
  394TIP3    H1 1146   2.238   2.315   1.536  1.9913  1.1819  0.7796
  394TIP3    H2 1147   2.203   2.300   1.389 -1.7671 -1.6477  1.8086
  395TIP3   OH2 1148   6.427   6.610   4.934 -0.3437  0.1495 -0.1347
  395TIP3    H1 1149   6.506   6.603   4.880 -0.7495  2.1452 -1.0812
  395TIP3    H2 1150   6.355   6.608   4.871 -0.8661  1.6504  0.3617
  396TIP3   OH2 1151   6.418   5.008   3.065 -0.4631 -0.1052 -0.4763
  396TIP3    H1 1152   6.387   5.094   3.093  1.3806  0.3128  0.4571
  396TIP3    H2 1153   6.367   4.945   3.117 -1.2531  0.4396 -0.5794
  397TIP3   OH2 1154   4.923   3.804   1.388 -0.2430 -0.0244 -0.3761
  397TIP3    H1 1155   4.861   3.870   1.358 -1.0214 -0.8349 -0.6132
  397TIP3    H2 1156   4.988   3.852   1.439 -1.8518  0.6700  1.0850
  398TIP3   OH2 1157   4.400   5.763   1.003  0.5119 -0.1541 -0.0272
  398TIP3    H1 1158   4.473   5.815   0.966  0.2093 -0.9240 -1.8248
  398TIP3    H2 1159   4.358   5.725   0.926 -1.1177 -0.6330  1.0748
  399TIP3   OH2 1160   6.407   4.141   1.468  0.0008 -0.1323  0.3516
  399TIP3    H1 1161   6.393   4.174   1.557  1.1838  0.1198  0.4693
  399TIP3    H2 1162   6.459   4.062   1.480 -0.6917 -0.6647 -0.0749
  400TIP3   OH2 1163   4.333   4.666   3.328  0.9422  0.2824  0.4563
  400TIP3    H1 1164   4.298   4.718   3.256  1.5066 -0.0027 -0.0412
  400TIP3    H2 1165   4.323   4.575   3.298  0.8933  0.1510  0.8722
  401TIP3   OH2 1166   2.761   6.276   1.018  0.0949 -0.5985  0.9004
  401TIP3    H1 1167   2.731   6.308   1.103  1.3925  0.8427  0.8624
  401TIP3    H2 1168   2.855   6.293   1.018  0.2670 -1.3857 -0.4948
  402TIP3   OH2 1169   3.780   1.446   2.226 -0.1537  0.1866 -0.4988
  402TIP3    H1 1170   3.691   1.443   2.260  0.4366 -0.0233  1.1093
  402TIP3    H2 1171   3.826   1.505   2.285  0.9541 -0.2969 -0.8577
  403TIP3   OH2 1172   3.361   2.338   5.845 -0.2874  0.0025  0.3520
  403TIP3    H1 1173   3.395   2.251   5.866 -0.3794 -1.3785 -4.1348
  403TIP3    H2 1174   3.266   2.326   5.842 -0.3340  0.3977  0.2793
  404TIP3   OH2 1175   5.496   4.303   5.172 -0.3900 -0.2648  0.2522
  404TIP3    H1 1176   5.455   4.373   5.224 -0.5114  0.2872 -0.5673
  404TIP3    H2 1177   5.589   4.325   5.173 -0.5496  0.5424 -0.9095
  405TIP3   OH2 1178   1.673   2.057   2.540 -0.1068 -0.3245 -0.3439
  405TIP3    H1 1179   1.646   2.072   2.449  0.5619 -3.1779 -1.1047
  405TIP3    H2 1180   1.590   2.055   2.589 -0.4327  1.8932 -0.7060
  406TIP3   OH2 1181   3.589   3.927   4.714 -0.1893 -0.1296 -0.0393
  406TIP3    H1 1182   3.667   3.981   4.705 -1.5108  1.5930 -1.9345
  406TIP3    H2 1183   3.535   3.974   4.778  0.5304 -1.6518  1.7639
  407TIP3   OH2 1184   4.589   3.591   4.744 -0.5361 -0.8581  0.2976
  407TIP3    H1 1185   4.662   3.530   4.741  0.0782 -0.1160 -0.3179
  407TIP3    H2 1186   4.518   3.547   4.697  0.3345 -0.5687 -1.3676
  408TIP3   OH2 1187   0.726   2.192   1.101 -0.1310  0.3661 -0.0212
  408TIP3    H1 1188   0.779   2.171   1.178  0.5618  1.3526 -0.1941
  408TIP3    H2 1189   0.787   2.185   1.028 -0.0538  2.0671 -0.1651
  409TIP3   OH2 1190   2.799   5.801   3.300  0.1211  0.2166 -0.3151
  409TIP3    H1 1191   2.793   5.895   3.289 -3.8839  0.3443  1.2695
  409TIP3    H2 1192   2.819   5.789   3.393 -2.1198 -0.3736  0.1508
  410TIP3   OH2 1193   2.801   5.090   5.750 -0.2747 -0.6719  0.1620
  410TIP3    H1 1194   2.878   5.099   5.805 -1.0570 -0.3052  1.2369
  410TIP3    H2 1195   2.814   5.009   5.702  1.4230  0.0889 -0.7388
  411TIP3   OH2 1196   2.572   4.196   4.322 -0.4575  0.1750  0.1524
  411TIP3    H1 1197   2.504   4.134   4.297  2.4123 -2.0375 -3.4163
  411TIP3    H2 1198   2.619   4.153   4.393  0.2706 -0.9135 -0.9328
  412TIP3   OH2 1199   2.581   4.885   1.259  0.0707  0.0163 -0.6062
  412TIP3    H1 1200   2.664   4.844   1.281 -0.5079 -1.3903 -0.9269
  412TIP3    H2 1201   2.600   4.938   1.181  0.7296 -0.0522 -0.4973
  413TIP3   OH2 1202   5.736   1.782   2.322  0.2790 -0.0078  0.1401
  413TIP3    H1 1203   5.661   1.759   2.376 -0.0325 -2.0543 -1.0450
  413TIP3    H2 1204   5.809   1.735   2.362  0.4806  0.2141  0.0354
  414TIP3   OH2 1205   5.831   5.677   3.246  0.1872  0.0882 -0.0675
  414TIP3    H1 1206   5.745   5.645   3.216  0.1475 -1.4453  1.4975
  414TIP3    H2 1207   5.837   5.645   3.336  2.4501  0.1043 -0.1777
  415TIP3   OH2 1208   6.580   6.455   1.441 -0.5180 -0.0036  0.6461
  415TIP3    H1 1209   6.633   6.405   1.503  2.4914  1.4299 -0.5433
  415TIP3    H2 1210   6.571   6.541   1.481  0.4238  0.5650 -0.2922
  416TIP3   OH2 1211   4.872   1.291   2.522  0.4221 -0.0968  0.2223
  416TIP3    H1 1212   4.793   1.246   2.493  1.3715 -0.9904 -1.0706
  416TIP3    H2 1213   4.868   1.377   2.481  1.2623 -0.9980 -1.8567
  417TIP3   OH2 1214   4.991   4.850   5.009  0.1228 -0.0654 -0.2124
  417TIP3    H1 1215   4.971   4.829   4.917  0.4665 -1.5002  0.0235
  417TIP3    H2 1216   4.951   4.779   5.059 -0.9709  1.2527  0.8583
  418TIP3   OH2 1217   6.145   6.750   4.538 -0.3823  0.6973  0.0214
  418TIP3    H1 1218   6.145   6.843   4.559 -0.1819  0.5444  0.6982
  418TIP3    H2 1219   6.217   6.713   4.588 -0.7733  0.0875  0.1465
  419TIP3   OH2 1220   2.941   5.563   0.822  0.4092  0.2691  0.2208
  419TIP3    H1 1221   2.997   5.494   0.859 -0.9292 -1.2813 -0.5091
  419TIP3    H2 1222   2.866   5.566   0.881 -1.5487 -1.9293 -1.8980
  420TIP3   OH2 1223   4.415   2.654   0.899 -0.0158  0.1412 -0.3115
  420TIP3    H1 1224   4.428   2.667   0.993  0.2190  0.4172 -0.3817
  420TIP3    H2 1225   4.337   2.705   0.879  0.7252  1.2260 -0.5270
  421TIP3   OH2 1226   6.376   3.837   3.269  0.0332 -0.1261  0.3304
  421TIP3    H1 1227   6.331   3.769   3.219 -0.5835  0.5466 -0.0537
  421TIP3    H2 1228   6.450   3.863   3.214 -1.1599  1.2525 -0.7053
  422TIP3   OH2 1229   1.341   5.993   1.245 -0.4272  0.1606  0.0075
  422TIP3    H1 1230   1.271   6.013   1.184 -0.4838 -0.5967 -0.1934
  422TIP3    H2 1231   1.330   6.055   1.317 -0.6407  0.7500 -0.5349
  423TIP3   OH2 1232   3.997   5.289   2.173 -0.6787  0.1344  0.1774
  423TIP3    H1 1233   3.940   5.221   2.210 -1.2091  0.6829  0.3820
  423TIP3    H2 1234   4.032   5.250   2.093 -1.9685  0.0748 -0.3795
  424TIP3   OH2 1235   1.186   6.450   4.757  0.1361  0.0121  0.5148
  424TIP3    H1 1236   1.185   6.489   4.669 -1.3101  1.0487  0.9546
  424TIP3    H2 1237   1.178   6.356   4.741 -0.6488  0.2274 -0.4485
  425TIP3   OH2 1238   3.452   0.129   1.242  0.3879 -0.4063 -0.0278
  425TIP3    H1 1239   3.372   0.111   1.193  1.0079 -1.3089 -0.7472
  425TIP3    H2 1240   3.476   0.218   1.216 -1.1224  0.4494  1.2948
  426TIP3   OH2 1241   3.756   1.454   4.092 -0.3260  0.0752  0.2656
  426TIP3    H1 1242   3.671   1.496   4.082 -1.8124 -3.1110 -2.4571
  426TIP3    H2 1243   3.740   1.383   4.155  0.4488 -0.2403  0.1173
  427TIP3   OH2 1244   1.978   3.833   3.568 -0.0754 -0.4770  0.5300
  427TIP3    H1 1245   2.029   3.777   3.509  0.6270  0.2094  0.4755
  427TIP3    H2 1246   1.939   3.772   3.631 -1.5859 -1.3364 -1.1549
  428TIP3   OH2 1247   5.093   5.944   5.352 -0.0955 -0.2784 -0.0572
  428TIP3    H1 1248   5.127   5.953   5.263  0.7367 -0.9708  0.1840
  428TIP3    H2 1249   5.086   6.034   5.385  1.3159 -0.1042 -0.1829
  429TIP3   OH2 1250   5.044   2.633   5.196 -0.3603 -0.2832  0.0468
  429TIP3    H1 1251   5.010   2.569   5.259 -0.3557 -0.2108  0.1241
  429TIP3    H2 1252   4.973   2.696   5.185 -0.7911 -0.9170 -0.9028
  430TIP3   OH2 1253   7.088   0.116   2.589 -0.1423 -0.8584 -0.9020
  430TIP3    H1 1254   7.056   0.048   2.649  0.4396  0.1378  0.5864
  430TIP3    H2 1255   7.029   0.190   2.604 -0.2558 -0.7287 -1.9113
  431TIP3   OH2 1256   3.471   0.964   4.989  0.0282  0.6320 -0.4961
  431TIP3    H1 1257   3.531   0.916   5.046  0.3954 -0.1718 -1.5319
  431TIP3    H2 1258   3.485   1.056   5.011  0.0530  0.3388  0.8020
  432TIP3   OH2 1259   7.011   1.126   4.511  0.1620 -0.2567  0.5640
  432TIP3    H1 1260   7.013   1.174   4.594 -0.2124  1.4885 -0.3853
  432TIP3    H2 1261   6.918   1.112   4.493  0.1093  1.2267 -0.5312
  433TIP3   OH2 1262   6.809   0.744   4.375 -0.1394 -0.2343 -0.2072
  433TIP3    H1 1263   6.815   0.835   4.404  1.3558 -0.6105  0.7976
  433TIP3    H2 1264   6.716   0.728   4.362 -0.3784  1.5848 -0.9134
  434TIP3   OH2 1265   2.696   0.795   5.504 -0.6496  0.2248  0.1400
  434TIP3    H1 1266   2.734   0.821   5.419 -0.0078 -1.5038 -0.1353
  434TIP3    H2 1267   2.629   0.862   5.521  1.1429  2.2430 -0.3200
  435TIP3   OH2 1268   4.212   4.674   2.515  0.1075  0.3185  0.0557
  435TIP3    H1 1269   4.295   4.637   2.486  0.8798  1.4884  0.6934
  435TIP3    H2 1270   4.190   4.739   2.448 -1.5044 -1.5200 -1.3369
  436TIP3   OH2 1271   3.037   5.043   1.746 -0.0633  0.8545  0.0664
  436TIP3    H1 1272   3.028   5.035   1.651 -0.3463  1.0661  0.0734
  436TIP3    H2 1273   2.974   5.111   1.770  1.2370  2.0700  0.1823
  437TIP3   OH2 1274   3.700   5.340   1.218 -0.3923 -0.3626 -0.0577
  437TIP3    H1 1275   3.644   5.350   1.141 -1.9024 -0.6741  0.9560
  437TIP3    H2 1276   3.654   5.386   1.288  0.8185 -0.3090  0.7465
  438TIP3   OH2 1277   1.899   5.652   0.422 -0.3181  0.1060 -0.1102
  438TIP3    H1 1278   1.984   5.638   0.463 -0.5015  1.5184  0.8234
  438TIP3    H2 1279   1.836   5.612   0.482 -0.3629 -0.5524 -0.5830
  439TIP3   OH2 1280   2.153   0.975   1.858 -0.6134 -0.1166  0.3611
  439TIP3    H1 1281   2.066   0.936   1.852 -0.4735 -0.1615 -3.1958
  439TIP3    H2 1282   2.212   0.899   1.867 -0.8640 -0.0691  3.1166
  440TIP3   OH2 1283   6.564   5.921   5.725 -0.0306 -0.0338  0.6159
  440TIP3    H1 1284   6.549   5.872   5.806  0.0429  0.4492  0.9252
  440TIP3    H2 1285   6.645   5.884   5.689  0.8102  0.8067  1.5812
  441TIP3   OH2 1286   0.064   5.362   5.827 -0.2084 -0.6489 -0.1823
  441TIP3    H1 1287   0.148   5.388   5.787 -0.2961  0.0067  0.0531
  441TIP3    H2 1288   0.080   5.366   5.921 -0.0004 -2.2055 -0.1325
  442TIP3   OH2 1289   1.250   5.339   3.576  0.2028 -0.3693  0.1196
  442TIP3    H1 1290   1.251   5.262   3.634 -0.6885 -1.4762 -1.2744
  442TIP3    H2 1291   1.177   5.324   3.517 -0.6027  2.0346  0.3857
  443TIP3   OH2 1292   4.152   0.642   0.033  0.0037 -0.1024  0.1097
  443TIP3    H1 1293   4.177   0.652   0.125  1.1876 -0.3986 -0.1562
  443TIP3    H2 1294   4.079   0.703   0.021 -0.7218 -0.6690  1.4412
  444TIP3   OH2 1295   3.597   2.073   1.884 -0.1196  0.6419 -0.5582
  444TIP3    H1 1296   3.679   2.124   1.889  0.1877  0.0448  1.2329
  444TIP3    H2 1297   3.625   1.985   1.862 -0.4630  0.7880 -1.6235
  445TIP3   OH2 1298   5.374   5.618   5.181 -0.1535  0.4421 -0.7256
  445TIP3    H1 1299   5.373   5.585   5.270  0.5244  0.5844 -0.6567
  445TIP3    H2 1300   5.391   5.712   5.190 -0.4503  0.5216 -0.9850
  446TIP3   OH2 1301   3.379   5.284   5.349  0.1053 -0.4139  0.5602
  446TIP3    H1 1302   3.444   5.329   5.404  0.2587  0.4330 -0.2880
  446TIP3    H2 1303   3.301   5.279   5.404 -0.2510  1.8286  0.3524
  447TIP3   OH2 1304   0.250   2.092   1.372  0.0385  0.3314  0.1084
  447TIP3    H1 1305   0.332   2.081   1.323  0.3786  0.7240  0.5763
  447TIP3    H2 1306   0.278   2.107   1.462 -0.5708 -0.0060  0.3582
  448TIP3   OH2 1307   6.807   4.164   1.030  0.4130 -0.3489  0.1684
  448TIP3    H1 1308   6.774   4.246   0.993 -0.8379 -1.2316 -0.7552
  448TIP3    H2 1309   6.752   4.148   1.107 -0.2460 -1.0039 -0.4350
  449TIP3   OH2 1310   1.210   5.669   4.539  0.1233 -0.2110  0.4950
  449TIP3    H1 1311   1.238   5.674   4.448  1.8802  1.8988  1.0673
  449TIP3    H2 1312   1.159   5.588   4.544 -0.2614 -0.2485 -2.3878
  450TIP3   OH2 1313   5.582   6.250   3.595  0.3387 -0.1802  0.0615
  450TIP3    H1 1314   5.566   6.287   3.682 -2.0288 -0.5631 -0.1478
  450TIP3    H2 1315   5.671   6.279   3.573  0.1840  1.7601  1.6837
  451TIP3   OH2 1316   3.009   1.876   0.055  0.4681 -0.8423 -0.1418
  451TIP3    H1 1317   2.943   1.853  -0.010 -0.0938 -1.2683  0.5691
  451TIP3    H2 1318   2.986   1.965   0.083  0.4509 -0.8252 -0.2111
  452TIP3   OH2 1319   3.294   6.448   0.737 -0.0577  0.1853 -0.1724
  452TIP3    H1 1320   3.301   6.384   0.808  2.4025  0.8575  0.3081
  452TIP3    H2 1321   3.210   6.491   0.751 -1.0939 -1.8722  0.3712
  453TIP3   OH2 1322   1.784   1.022   2.782 -0.6437  0.1503  0.5181
  453TIP3    H1 1323   1.873   1.027   2.819  0.1452  2.0638 -1.4505
  453TIP3    H2 1324   1.727   1.019   2.859  0.9964  2.1885  1.9324
  454TIP3   OH2 1325   0.599   0.179   3.825 -0.3934  0.0604  0.4211
  454TIP3    H1 1326   0.654   0.247   3.864 -1.3015  0.2565  1.3998
  454TIP3    H2 1327   0.623   0.178   3.732  1.4002  0.0002  0.8515
  455TIP3   OH2 1328   6.328   3.215   2.993  0.1100  0.1410  0.0695
  455TIP3    H1 1329   6.395   3.281   2.974  0.7237 -1.2129 -2.9795
  455TIP3    H2 1330   6.263   3.226   2.924 -1.9613  0.1707  1.8811
  456TIP3   OH2 1331   6.054   2.790   3.379  0.2017 -0.2081  0.3856
  456TIP3    H1 1332   5.983   2.736   3.343  1.2027 -2.3698  1.4781
  456TIP3    H2 1333   6.086   2.741   3.455  1.3114  1.8774  1.3633
  457TIP3   OH2 1334   0.314   5.422   5.127  0.0130 -0.3041  0.0711
  457TIP3    H1 1335   0.407   5.436   5.111  0.1124 -1.7139 -0.7232
  457TIP3    H2 1336   0.273   5.429   5.040 -0.3987 -1.2367  0.1834
  458TIP3   OH2 1337   1.768   5.305   0.726  0.3269  0.7809 -0.2084
  458TIP3    H1 1338   1.831   5.363   0.770  0.7593 -0.9252  1.5922
  458TIP3    H2 1339   1.688   5.314   0.778  0.4965 -0.4206  0.2880
  459TIP3   OH2 1340   4.001   0.184   0.327 -0.4154  0.4587  0.0573
  459TIP3    H1 1341   3.926   0.130   0.352  0.7952 -0.5754  1.6152
  459TIP3    H2 1342   4.036   0.140   0.249  0.8582 -1.3831  1.5967
  460TIP3   OH2 1343   4.727   0.942   4.397  0.3316 -0.3487 -0.7178
  460TIP3    H1 1344   4.762   1.017   4.348  0.7476 -0.3458 -0.4201
  460TIP3    H2 1345   4.670   0.982   4.463  1.7148 -0.1774  0.4181
  461TIP3   OH2 1346   0.817   1.345   0.613  0.4988  0.3558  0.0444
  461TIP3    H1 1347   0.878   1.292   0.665  1.6753  0.2724 -1.3795
  461TIP3    H2 1348   0.841   1.435   0.633  0.7297  0.3273 -0.1038
  462TIP3   OH2 1349   4.443   1.208   1.710 -0.2214  0.0461 -0.0055
  462TIP3    H1 1350   4.476   1.298   1.709 -0.9014  0.3172  0.7599
  462TIP3    H2 1351   4.351   1.216   1.684 -0.8349 -0.1634  1.9074
  463TIP3   OH2 1352   2.966   2.757   4.109 -0.2293 -0.1619  0.2341
  463TIP3    H1 1353   2.991   2.795   4.024 -0.8428  0.2358  0.2181
  463TIP3    H2 1354   3.013   2.674   4.113  0.8981  0.4542  0.1219
  464TIP3   OH2 1355   1.270   6.749   2.103  0.4822  0.3690 -0.2489
  464TIP3    H1 1356   1.342   6.687   2.109  0.8538  0.8770  0.8123
  464TIP3    H2 1357   1.295   6.807   2.032 -0.9108 -1.9476 -2.7979
  465TIP3   OH2 1358   5.150   1.915   1.865  0.8046 -0.4138 -0.3156
  465TIP3    H1 1359   5.203   1.838   1.844  1.9178  0.4873 -0.8920
  465TIP3    H2 1360   5.101   1.934   1.785  2.2084  0.7761 -0.9263
  466TIP3   OH2 1361   0.635   4.328   4.219  0.0552  0.7190 -0.2130
  466TIP3    H1 1362   0.671   4.287   4.141 -0.1900 -1.0908  0.5662
  466TIP3    H2 1363   0.540   4.319   4.209 -0.0249  1.6298 -0.2943
  467TIP3   OH2 1364   3.928   4.352   2.943  0.4170  0.3838 -0.1968
  467TIP3    H1 1365   3.926   4.303   2.861  0.4092  0.9999 -0.5726
  467TIP3    H2 1366   3.932   4.285   3.011  1.1002 -0.1288 -0.7219
  468TIP3   OH2 1367   5.559   4.858   1.496 -0.4238  0.5115 -0.2892
  468TIP3    H1 1368   5.583   4.950   1.505 -1.6597  0.8209 -0.0430
  468TIP3    H2 1369   5.568   4.822   1.584 -1.0541  0.6784 -0.1545
  469TIP3   OH2 1370   4.914   4.840   5.467 -0.1244  0.0502  0.4142
  469TIP3    H1 1371   4.984   4.780   5.444  0.0327  0.0852  0.7934
  469TIP3    H2 1372   4.900   4.826   5.561 -2.0736 -1.5076 -0.0325
  470TIP3   OH2 1373   6.638   2.799   5.719 -0.4103 -0.1149 -0.0202
  470TIP3    H1 1374   6.726   2.761   5.709 -0.1488  0.3008  0.6360
  470TIP3    H2 1375   6.637   2.833   5.808 -2.2543 -2.7017  1.0519
  471TIP3   OH2 1376   0.233   3.293   0.293  0.1210  0.5337 -0.4450
  471TIP3    H1 1377   0.324   3.288   0.322  0.4817 -1.1946 -1.7350
  471TIP3    H2 1378   0.184   3.241   0.356 -0.1499  2.1588  0.7406
  472TIP3   OH2 1379   3.074   2.732   2.011  0.3111 -0.4059 -0.6079
  472TIP3    H1 1380   3.099   2.651   1.966  1.7249 -0.4894  0.2502
  472TIP3    H2 1381   3.073   2.799   1.942 -0.0321 -0.9935 -1.1799
  473TIP3   OH2 1382   4.642   4.157   0.467  0.5350 -0.2259 -0.1693
  473TIP3    H1 1383   4.655   4.158   0.373  3.0683 -0.3912  0.1285
  473TIP3    H2 1384   4.721   4.198   0.503 -1.0064  1.2084  1.8452
  474TIP3   OH2 1385   0.546   3.140   4.447  0.2039 -0.1100 -0.5172
  474TIP3    H1 1386   0.556   3.168   4.356  1.4111  1.7402  0.1302
  474TIP3    H2 1387   0.635   3.130   4.479 -0.0127  3.0251  1.4992
  475TIP3   OH2 1388   3.868   6.709   4.137 -0.7783  0.4132 -0.4604
  475TIP3    H1 1389   3.892   6.716   4.230  0.1475 -1.0102 -0.5588
  475TIP3    H2 1390   3.796   6.646   4.136  1.6455 -2.5879 -0.9669
  476TIP3   OH2 1391   2.513   5.762   3.543  0.6045 -0.0361 -0.4119
  476TIP3    H1 1392   2.607   5.776   3.549  0.7384 -1.3545  1.3046
  476TIP3    H2 1393   2.475   5.833   3.594  0.8553 -1.0577  1.2734
  477TIP3   OH2 1394   1.914   6.774   1.896  0.0765  0.3228 -0.1233
  477TIP3    H1 1395   1.983   6.707   1.894  0.8150  1.0991 -1.0686
  477TIP3    H2 1396   1.883   6.780   1.806 -1.2364  0.0179  0.2733
  478TIP3   OH2 1397   4.829   0.064   0.042 -0.1452 -0.3577 -0.2795
  478TIP3    H1 1398   4.826   0.116  -0.038 -0.6586  1.1180  0.6688
  478TIP3    H2 1399   4.764  -0.005   0.029  1.0582 -1.2866 -1.8453
  479TIP3   OH2 1400   5.577   0.816   0.609  0.1152 -0.2848 -0.3230
  479TIP3    H1 1401   5.583   0.794   0.516  1.3110 -0.4070 -0.2402
  479TIP3    H2 1402   5.608   0.738   0.654 -0.4258 -0.2136  0.1777
  480TIP3   OH2 1403   3.120   6.532   3.842  0.2924 -0.5207  0.6531
  480TIP3    H1 1404   3.194   6.479   3.872  0.5034  0.3441  1.7347
  480TIP3    H2 1405   3.066   6.544   3.920  0.0195  0.4783  0.3287
  481TIP3   OH2 1406   0.086   3.952   2.420  0.0983 -0.0104 -0.1952
  481TIP3    H1 1407   0.068   3.861   2.444  0.7229 -0.0316  0.2252
  481TIP3    H2 1408   0.006   3.982   2.377 -1.2405  0.1141  2.1499
  482TIP3   OH2 1409   5.410   5.378   4.567  0.2106 -0.1679  0.2749
  482TIP3    H1 1410   5.484   5.319   4.584  0.6325  0.3624  0.3072
  482TIP3    H2 1411   5.407   5.386   4.472  0.0587 -0.3640  0.2641
  483TIP3   OH2 1412   4.555   4.716   1.661  0.1269 -0.4865  0.0455
  483TIP3    H1 1413   4.534   4.622   1.662  0.5662 -0.6201 -1.1738
  483TIP3    H2 1414   4.540   4.742   1.570  1.6586  0.2388 -0.0277
  484TIP3   OH2 1415   1.520   1.127   0.583  0.3072  0.2919  0.4868
  484TIP3    H1 1416   1.606   1.085   0.585 -0.0296 -0.4388  0.3543
  484TIP3    H2 1417   1.522   1.184   0.506  0.7359  0.4214  0.5938
  485TIP3   OH2 1418   3.650   3.496   4.695 -1.0431 -0.3903 -0.0898
  485TIP3    H1 1419   3.738   3.459   4.684 -0.1266  1.7757 -0.6552
  485TIP3    H2 1420   3.644   3.517   4.788 -0.8963 -0.3994 -0.0774
  486TIP3   OH2 1421   2.585   5.695   2.539 -0.0685  0.4455 -0.2447
  486TIP3    H1 1422   2.651   5.748   2.585  1.3010 -0.0650 -1.5189
  486TIP3    H2 1423   2.508   5.698   2.596  0.9389  1.3409  1.1545
  487TIP3   OH2 1424   1.664   0.430   4.910 -0.6324 -0.3218  0.0033
  487TIP3    H1 1425   1.588   0.376   4.888  0.1950 -1.4438 -0.1767
  487TIP3    H2 1426   1.732   0.367   4.933  0.8980  0.5400 -1.8849
  488TIP3   OH2 1427   5.942   3.132   0.769  0.2701  0.6526 -0.5696
  488TIP3    H1 1428   5.911   3.143   0.858  2.5726  2.1149  0.1342
  488TIP3    H2 1429   5.865   3.148   0.714 -1.0989  0.0526  1.1004
  489TIP3   OH2 1430   5.812   0.468   3.003  0.0034 -0.1205  0.2465
  489TIP3    H1 1431   5.787   0.502   3.090 -1.1963  0.3277 -0.2494
  489TIP3    H2 1432   5.862   0.538   2.963 -0.8295  0.3306 -0.0318
  490TIP3   OH2 1433   0.023   1.097   1.666  0.3355 -0.2654  0.4981
  490TIP3    H1 1434   0.098   1.157   1.665 -0.2093  0.4986 -2.0509
  490TIP3    H2 1435  -0.018   1.109   1.580 -2.8296 -0.5410  1.8457
  491TIP3   OH2 1436   3.031   6.390   5.266  0.5003  0.1673  0.2053
  491TIP3    H1 1437   3.094   6.358   5.330 -0.7672 -0.7134  1.0513
  491TIP3    H2 1438   2.953   6.337   5.280 -0.4466  1.2281 -0.8169
  492TIP3   OH2 1439   3.710   2.857   2.522  0.2523 -0.4482  0.1747
  492TIP3    H1 1440   3.645   2.844   2.453 -0.6713  1.0368  0.7395
  492TIP3    H2 1441   3.790   2.882   2.476 -0.3129  0.3606 -0.3733
  493TIP3   OH2 1442   1.130   5.951   5.013  0.1063  0.1599  0.0423
  493TIP3    H1 1443   1.190   5.918   5.080 -0.2460  1.4609  1.0626
  493TIP3    H2 1444   1.043   5.936   5.049 -0.1307 -0.1091 -0.6260
  494TIP3   OH2 1445   6.648   0.434   3.877 -0.0734 -0.2786  0.6765
  494TIP3    H1 1446   6.654   0.341   3.857  0.6317  0.3706 -2.9132
  494TIP3    H2 1447   6.559   0.458   3.853  0.2368  0.2259 -0.0214
  495TIP3   OH2 1448   3.996   0.204   4.615  0.0619  0.2908  0.2482
  495TIP3    H1 1449   3.965   0.223   4.703 -0.9106  0.6899 -0.1594
  495TIP3    H2 1450   3.998   0.109   4.610  1.1010  0.2589  1.0199
  496TIP3   OH2 1451   1.690   6.640   0.933 -0.3734  0.4608 -0.2972
  496TIP3    H1 1452   1.759   6.594   0.981 -0.7096  0.4633  0.1960
  496TIP3    H2 1453   1.609   6.596   0.960 -0.6792  1.1964  0.0026
  497TIP3   OH2 1454   3.798   5.056   0.092  0.4247  0.4011  0.1958
  497TIP3    H1 1455   3.728   5.052   0.157  1.9761 -0.1022  1.9032
  497TIP3    H2 1456   3.805   5.149   0.071 -0.4176  0.5149  0.3570
  498TIP3   OH2 1457   3.730   1.956   4.116 -0.6501 -0.0296 -0.6260
  498TIP3    H1 1458   3.768   1.874   4.147 -0.5662  0.2079 -0.0824
  498TIP3    H2 1459   3.707   2.004   4.196  1.2496  1.3944 -0.8490
  499TIP3   OH2 1460   4.299   2.543   2.305 -0.2469  0.5510 -0.2506
  499TIP3    H1 1461   4.370   2.541   2.369 -1.1574 -0.0971  0.7970
  499TIP3    H2 1462   4.283   2.451   2.284 -0.1247  0.7451 -1.2393
  500TIP3   OH2 1463   4.792   2.516   3.478  0.1284  0.0527  0.1424
  500TIP3    H1 1464   4.849   2.441   3.493  1.5582  1.3259  1.4734
  500TIP3    H2 1465   4.726   2.510   3.546 -0.2104 -0.4138 -0.2290
  501TIP3   OH2 1466   5.327   2.695   3.576 -0.1638 -0.0563  0.1850
  501TIP3    H1 1467   5.310   2.758   3.507 -0.7515  0.0786  0.4445
  501TIP3    H2 1468   5.368   2.620   3.532 -2.4223 -0.8566 -0.6776
  502TIP3   OH2 1469   1.915   6.208   3.202 -0.7321 -0.5176  0.3999
  502TIP3    H1 1470   1.831   6.198   3.158 -0.2665 -0.0367 -0.6374
  502TIP3    H2 1471   1.978   6.165   3.144  0.0886  1.2782 -0.1152
  503TIP3   OH2 1472   3.596   1.607   0.273  0.1960  0.1766 -0.1675
  503TIP3    H1 1473   3.645   1.681   0.238 -1.5597  1.4647 -0.0405
  503TIP3    H2 1474   3.519   1.647   0.314  0.4181 -1.5335  2.1240
  504TIP3   OH2 1475   5.877   1.772   1.159  0.3438  0.5098 -0.1060
  504TIP3    H1 1476   5.809   1.815   1.107 -0.0498  0.9109  0.7217
  504TIP3    H2 1477   5.833   1.698   1.200  0.5952  0.3352 -0.1452
  505TIP3   OH2 1478   4.686   3.769   4.465 -0.1828  0.2065  0.4662
  505TIP3    H1 1479   4.631   3.778   4.543 -0.6186 -0.1558  0.2052
  505TIP3    H2 1480   4.627   3.785   4.392  0.3495  1.1017  0.2191
  506TIP3   OH2 1481   0.788   1.387   2.178 -0.2716  0.5697 -0.3803
  506TIP3    H1 1482   0.850   1.316   2.192 -1.7613 -0.5424  1.0794
  506TIP3    H2 1483   0.730   1.384   2.255 -0.5361  3.2405 -0.3660
  507TIP3   OH2 1484   0.072   0.952   3.598 -0.1623  0.0482 -0.3777
  507TIP3    H1 1485   0.112   0.910   3.674  0.3469  0.9527 -0.1293
  507TIP3    H2 1486   0.018   1.021   3.634  0.8480  1.1199 -0.8575
  508TIP3   OH2 1487   4.847   3.322   3.222 -0.2118 -0.2558  0.0050
  508TIP3    H1 1488   4.910   3.388   3.251 -0.1653  0.0851 -0.8327
  508TIP3    H2 1489   4.766   3.346   3.266  0.2055 -0.6383  1.0140
  509TIP3   OH2 1490   1.547   3.527   3.805 -0.3778  0.1653  0.6645
  509TIP3    H1 1491   1.597   3.482   3.737  1.1811  1.6510  0.7455
  509TIP3    H2 1492   1.610   3.588   3.845 -1.7448  0.6800  2.1675
  510TIP3   OH2 1493   3.967   0.686   1.948 -0.0227 -0.0484  0.3196
  510TIP3    H1 1494   4.037   0.638   1.991  1.3157  0.9264 -0.6659
  510TIP3    H2 1495   3.924   0.734   2.019  0.1168 -0.8861  0.9812
  511TIP3   OH2 1496   3.300   4.253   5.202 -0.1689  0.0337 -0.1490
  511TIP3    H1 1497   3.222   4.200   5.186 -0.2686  0.1199  0.0499
  511TIP3    H2 1498   3.373   4.195   5.182 -0.2836 -0.0647 -0.2828
  512TIP3   OH2 1499   5.932   0.253   4.419  0.1214 -0.5697  0.3022
  512TIP3    H1 1500   5.955   0.309   4.492  0.9927 -0.2198 -0.2281
  512TIP3    H2 1501   5.878   0.184   4.458 -2.4798  1.5366  0.7015
  513TIP3   OH2 1502   6.229   2.539   2.964  0.2651  0.7489  0.1256
  513TIP3    H1 1503   6.241   2.525   2.871  0.5041 -2.0727  0.5033
  513TIP3    H2 1504   6.301   2.596   2.990  0.6260  0.9455 -1.2492
  514TIP3   OH2 1505   4.760   4.730   1.866 -0.2072 -0.4565 -0.2609
  514TIP3    H1 1506   4.700   4.704   1.796  0.1187 -1.5787 -0.1450
  514TIP3    H2 1507   4.703   4.757   1.938 -0.5555 -0.2392 -0.6185
  515TIP3   OH2 1508   6.695   2.182   1.491  0.0770 -0.0975 -0.0247
  515TIP3    H1 1509   6.685   2.153   1.400 -0.5485 -0.5548  0.1803
  515TIP3    H2 1510   6.622   2.242   1.505  0.0696 -0.1599  0.2219
  516TIP3   OH2 1511   1.857   0.814   3.273 -0.7111  0.1275  0.1506
  516TIP3    H1 1512   1.817   0.728   3.260  0.3414 -1.8838  6.7164
  516TIP3    H2 1513   1.944   0.805   3.234 -1.2389 -1.0727 -0.8297
  517TIP3   OH2 1514   1.891   3.179   4.720  0.5110 -0.4347  0.0472
  517TIP3    H1 1515   1.822   3.126   4.759  1.5278 -1.6024  0.3173
  517TIP3    H2 1516   1.851   3.265   4.706 -1.3736 -1.4284 -1.0083
  518TIP3   OH2 1517   6.629   6.297   4.433  0.1257  0.9182 -0.4209
  518TIP3    H1 1518   6.657   6.326   4.347  1.9649 -1.5432 -0.7663
  518TIP3    H2 1519   6.699   6.326   4.492  0.1314  0.4180 -0.1775
  519TIP3   OH2 1520   1.240   1.161   1.156  0.0632 -0.2348 -0.1207
  519TIP3    H1 1521   1.171   1.221   1.185 -0.2619 -1.5252  1.9848
  519TIP3    H2 1522   1.319   1.215   1.155 -0.5589  0.6956 -0.1901
  520TIP3   OH2 1523   0.449   5.039   3.820  0.0951 -0.2044  0.8801
  520TIP3    H1 1524   0.401   5.119   3.797  0.7691 -0.1811 -0.5293
  520TIP3    H2 1525   0.524   5.069   3.870  0.5960  0.1066 -0.0397
  521TIP3   OH2 1526   1.166   4.717   4.559 -0.7892  0.1037  0.6839
  521TIP3    H1 1527   1.152   4.680   4.646 -0.5482 -0.6632  0.4059
  521TIP3    H2 1528   1.211   4.648   4.510 -1.2570  0.3738 -0.1634
  522TIP3   OH2 1529   4.625   0.245   2.089 -0.2604  0.0047 -0.3007
  522TIP3    H1 1530   4.702   0.191   2.107  0.3615  1.1523  0.6442
  522TIP3    H2 1531   4.566   0.228   2.162 -0.1857  0.3741 -0.1514
  523TIP3   OH2 1532   2.829   0.694   3.539 -0.1154  0.3265 -0.2475
  523TIP3    H1 1533   2.871   0.614   3.569 -1.2866  0.6124  2.4110
  523TIP3    H2 1534   2.807   0.676   3.447  3.6094 -0.6492 -1.1397
  524TIP3   OH2 1535   1.451   1.160   1.433  0.0216 -0.1090 -0.3719
  524TIP3    H1 1536   1.534   1.205   1.450 -0.8021  0.7375  1.9019
  524TIP3    H2 1537   1.475   1.082   1.383  2.1761  0.1703  0.1252
  525TIP3   OH2 1538   4.359   2.131   4.750  0.3548  0.2088 -0.1318
  525TIP3    H1 1539   4.305   2.179   4.813  0.8099  0.5721 -0.0077
  525TIP3    H2 1540   4.397   2.059   4.800 -0.5293 -0.4543 -0.3778
  526TIP3   OH2 1541   1.651   3.339   5.584  0.0679  0.2839  0.1666
  526TIP3    H1 1542   1.682   3.249   5.596 -0.8569 -0.1720 -0.6877
  526TIP3    H2 1543   1.642   3.373   5.673  3.1019  0.5197  0.4752
  527TIP3   OH2 1544   5.045   0.301   1.948  0.0205 -0.3441  0.5586
  527TIP3    H1 1545   5.099   0.262   1.880 -2.2085 -3.0845  0.1624
  527TIP3    H2 1546   4.991   0.366   1.902 -1.5783 -2.2803 -0.4378
  528TIP3   OH2 1547   3.820   2.875   3.961  0.3285  0.4670  0.0297
  528TIP3    H1 1548   3.771   2.927   3.898  0.3836 -1.4431 -1.7023
  528TIP3    H2 1549   3.763   2.869   4.038 -0.7560  0.9152 -0.7167
  529TIP3   OH2 1550   2.976   1.661   0.969  0.4094  0.1212 -0.1255
  529TIP3    H1 1551   3.044   1.726   0.950  1.1131 -0.7361 -0.6392
  529TIP3    H2 1552   2.933   1.646   0.884 -1.0418  1.3088  0.3659
  530TIP3   OH2 1553   1.575   1.862   5.728 -0.0328  0.5880 -0.1164
  530TIP3    H1 1554   1.538   1.787   5.682  1.1082  0.6086 -1.1429
  530TIP3    H2 1555   1.506   1.890   5.788 -1.0394 -0.3477 -0.7872
  531TIP3   OH2 1556   5.541   4.623   3.037 -0.6878 -0.5779  0.5880
  531TIP3    H1 1557   5.607   4.636   3.105 -1.4395  0.6590  1.1135
  531TIP3    H2 1558   5.590   4.590   2.962  0.7711  1.5587  0.5165
  532TIP3   OH2 1559   4.946   4.128   5.350 -1.2229 -0.0626 -0.2080
  532TIP3    H1 1560   5.018   4.065   5.355 -1.3152 -0.0551  1.9665
  532TIP3    H2 1561   4.867   4.075   5.362 -1.3729  0.3011  0.4434
  533TIP3   OH2 1562   3.047   3.759   4.475  0.3510 -0.0451  0.0643
  533TIP3    H1 1563   3.024   3.746   4.383 -2.2034 -0.7198  0.7120
  533TIP3    H2 1564   3.085   3.847   4.479  0.7936 -0.1321 -1.6535
  534TIP3   OH2 1565   2.938   2.420   2.501 -0.3686 -0.4697  0.0545
  534TIP3    H1 1566   2.969   2.450   2.586 -0.1884  1.2978 -0.5764
  534TIP3    H2 1567   2.996   2.347   2.478  1.3109  0.7230  0.2988
  535TIP3   OH2 1568   3.961   4.266   0.230  0.6766 -0.2203 -0.4400
  535TIP3    H1 1569   3.945   4.185   0.280  0.4551 -0.5971 -1.1064
  535TIP3    H2 1570   3.947   4.241   0.139 -0.4074  0.8179 -0.5804
  536TIP3   OH2 1571   4.955   2.293   3.549 -0.1465  0.1736  0.5357
  536TIP3    H1 1572   5.051   2.292   3.553 -0.1112  1.1981  0.3160
  536TIP3    H2 1573   4.935   2.289   3.455 -0.2387  2.0234  0.4326
  537TIP3   OH2 1574   3.095   6.245   4.005 -0.4989  0.3444 -0.2625
  537TIP3    H1 1575   3.112   6.237   3.911 -1.1694 -0.0644 -0.3601
  537TIP3    H2 1576   3.165   6.301   4.038 -0.5136  0.8534 -1.0841
  538TIP3   OH2 1577   4.597   5.814   0.300  0.0621 -0.3761  0.1845
  538TIP3    H1 1578   4.634   5.898   0.329 -1.7314  0.1913  1.0139
  538TIP3    H2 1579   4.624   5.751   0.366  0.6058 -0.2471  0.0864
  539TIP3   OH2 1580   4.382   3.618   0.781  0.7517  0.1529  0.3916
  539TIP3    H1 1581   4.435   3.545   0.816  1.7126  1.1619  1.1312
  539TIP3    H2 1582   4.420   3.636   0.695  0.0227 -0.6978 -0.1170
  540TIP3   OH2 1583   4.475   4.179   3.390 -0.2479  0.1642  0.3884
  540TIP3    H1 1584   4.434   4.119   3.453 -0.4168 -1.1786 -0.9461
  540TIP3    H2 1585   4.508   4.122   3.320  2.0892  1.3991  0.3940
  541TIP3   OH2 1586   2.666   0.351   2.188 -0.0059  0.1096  0.0469
  541TIP3    H1 1587   2.715   0.424   2.226 -0.1106  0.5076 -0.5793
  541TIP3    H2 1588   2.575   0.380   2.187  0.0922  0.4271 -1.2350
  542TIP3   OH2 1589   1.279   5.726   2.420 -0.3784 -0.2142 -0.3502
  542TIP3    H1 1590   1.289   5.800   2.480  0.7921  0.6658 -1.5992
  542TIP3    H2 1591   1.341   5.661   2.452 -1.1675 -0.5524  0.5468
  543TIP3   OH2 1592   1.856   5.394   0.224 -0.1528  0.4673 -0.0809
  543TIP3    H1 1593   1.790   5.357   0.282 -1.2212  2.0896 -0.1757
  543TIP3    H2 1594   1.901   5.459   0.278  1.0310 -0.2635 -0.1730
  544TIP3   OH2 1595   0.597   1.622   3.699  0.8589 -0.3928 -0.1722
  544TIP3    H1 1596   0.574   1.590   3.786  0.5491 -0.5439 -0.3108
  544TIP3    H2 1597   0.689   1.595   3.688  1.0826  0.1428  0.3432
  545TIP3   OH2 1598   2.088   5.001   3.856 -0.0865 -0.3254  0.1124
  545TIP3    H1 1599   2.133   5.071   3.904 -0.2281  0.0119 -0.2435
  545TIP3    H2 1600   2.157   4.938   3.836  0.2113  0.1390 -0.3376
  546TIP3   OH2 1601   1.693   2.878   3.798 -0.9952 -0.3146  0.5221
  546TIP3    H1 1602   1.697   2.839   3.885 -1.7247 -1.3813  0.1004
  546TIP3    H2 1603   1.604   2.860   3.767 -0.6186 -0.3458 -0.6067
  547TIP3   OH2 1604   0.040   2.386   1.131 -0.2015  0.2530  0.0583
  547TIP3    H1 1605  -0.032   2.406   1.191 -0.8710  0.2383 -0.7283
  547TIP3    H2 1606   0.118   2.420   1.175 -0.3482 -1.5975  1.9047
  548TIP3   OH2 1607   2.206   4.403   3.193 -0.0214 -0.0901 -0.7653
  548TIP3    H1 1608   2.218   4.396   3.098 -0.5849  1.5951 -1.0048
  548TIP3    H2 1609   2.132   4.463   3.203  0.4350  0.2673  0.7493
  549TIP3   OH2 1610   0.581   6.184   3.769  0.6633  0.5046 -0.0731
  549TIP3    H1 1611   0.625   6.219   3.846 -1.2121 -0.7015  1.6262
  549TIP3    H2 1612   0.607   6.092   3.765  0.3496  0.4328 -0.5725
  550TIP3   OH2 1613   5.314   0.508   2.346  0.3063  0.2080  0.5401
  550TIP3    H1 1614   5.304   0.414   2.334  0.8596  0.0420  1.3145
  550TIP3    H2 1615   5.379   0.517   2.415 -0.9289  1.1236  1.6446
  551TIP3   OH2 1616   3.121   4.513   3.610  0.5312 -0.2651  0.1180
  551TIP3    H1 1617   3.035   4.551   3.594  1.0767  0.8619 -0.2210
  551TIP3    H2 1618   3.164   4.574   3.670  0.5735 -1.5716  1.5053
  552TIP3   OH2 1619   6.252   6.493   0.716 -0.1867  0.0128  0.3980
  552TIP3    H1 1620   6.191   6.567   0.708 -0.5679 -0.3717 -0.4277
  552TIP3    H2 1621   6.197   6.421   0.747  0.3369  0.2495  1.9580
  553TIP3   OH2 1622   1.606   1.195   5.009  0.4279 -0.4935  0.3567
  553TIP3    H1 1623   1.645   1.280   5.030 -1.0137  0.0480  0.9578
  553TIP3    H2 1624   1.604   1.194   4.913  1.8959 -0.5575  0.2944
  554TIP3   OH2 1625   5.861   2.592   0.121 -0.2491  0.0385 -0.2128
  554TIP3    H1 1626   5.794   2.571   0.055 -0.8428  0.9436  0.0906
  554TIP3    H2 1627   5.861   2.516   0.180 -0.7521 -0.1282 -0.4261
  555TIP3   OH2 1628   0.706   6.016   4.874  0.7326 -0.5753  0.2455
  555TIP3    H1 1629   0.679   6.064   4.952 -1.8694 -0.5076 -0.6112
  555TIP3    H2 1630   0.630   5.963   4.851  1.6914 -1.1499 -1.8403
  556TIP3   OH2 1631   2.203   6.117   4.445  0.4212  0.0311  0.6196
  556TIP3    H1 1632   2.203   6.186   4.511  0.9853  0.2278  0.4198
  556TIP3    H2 1633   2.126   6.135   4.392  0.5850  0.5323  0.5468
  557TIP3   OH2 1634   5.376   5.611   3.669 -0.3757 -0.1699 -0.0157
  557TIP3    H1 1635   5.400   5.679   3.606 -0.4133  0.5743  0.7499
  557TIP3    H2 1636   5.377   5.530   3.619  1.7807  0.0853 -0.4873
  558TIP3   OH2 1637   2.712   4.813   1.803 -0.0381  0.0081  0.0262
  558TIP3    H1 1638   2.636   4.857   1.838  0.5260  1.5229 -0.5788
  558TIP3    H2 1639   2.708   4.829   1.708  1.3265  0.6033  0.0528
  559TIP3   OH2 1640   4.149   6.171   1.438  0.2506  0.7963  0.1880
  559TIP3    H1 1641   4.188   6.125   1.363  0.1585  1.7000 -0.4288
  559TIP3    H2 1642   4.055   6.163   1.425  0.2031 -0.3731  1.0539
  560TIP3   OH2 1643   1.983   5.741   5.875 -0.0832 -0.2380 -0.3708
  560TIP3    H1 1644   1.902   5.703   5.910  1.0074 -1.4883  0.8792
  560TIP3    H2 1645   1.979   5.722   5.781 -1.6024  0.4433 -0.4759
  561TIP3   OH2 1646   5.438   6.313   0.100  0.6432 -0.0274  0.3530
  561TIP3    H1 1647   5.447   6.218   0.108 -1.8649 -0.3288  0.1522
  561TIP3    H2 1648   5.526   6.343   0.075  1.2480 -2.3957 -0.5953
  562TIP3   OH2 1649   0.120   4.574   2.103 -0.3980 -0.9908  0.6826
  562TIP3    H1 1650   0.201   4.525   2.113  0.7300 -0.5028 -3.8822
  562TIP3    H2 1651   0.059   4.511   2.063 -1.5326 -0.7088  1.9130
  563TIP3   OH2 1652   6.438   1.237   0.302  0.2142  1.1251  0.1549
  563TIP3    H1 1653   6.499   1.169   0.332  1.0441  1.9746  0.4606
  563TIP3    H2 1654   6.422   1.291   0.380 -0.4309  1.2883 -0.0832
  564TIP3   OH2 1655   4.573   2.624   1.157  0.3489  0.0853 -0.2668
  564TIP3    H1 1656   4.557   2.530   1.148  1.2500  0.0613 -2.2098
  564TIP3    H2 1657   4.618   2.633   1.240 -0.7224 -1.0387  0.4774
  565TIP3   OH2 1658   3.665   6.455   5.140 -0.2662 -0.3297  0.1069
  565TIP3    H1 1659   3.722   6.508   5.196  0.3696  0.7885 -1.5366
  565TIP3    H2 1660   3.714   6.373   5.128  1.9674  1.2072 -2.6217
  566TIP3   OH2 1661   2.968   6.711   0.401 -0.6500  0.0974  0.5123
  566TIP3    H1 1662   2.913   6.702   0.479 -0.9163 -2.8214  0.1116
  566TIP3    H2 1663   2.979   6.805   0.390  0.5441  0.6944  4.8231
  567TIP3   OH2 1664   2.317   1.174   4.921  0.2327  0.0564 -0.2916
  567TIP3    H1 1665   2.347   1.083   4.915 -2.3359 -0.9119  0.2194
  567TIP3    H2 1666   2.223   1.167   4.937  0.1455  2.8134  0.9589
  568TIP3   OH2 1667   6.953   5.727   4.696  0.2141  0.5670 -0.1495
  568TIP3    H1 1668   6.943   5.799   4.634  1.6300  0.9430  0.0234
  568TIP3    H2 1669   6.958   5.770   4.781 -1.5177  0.0658  0.2600
  569TIP3   OH2 1670   3.609   5.823   3.345 -0.0105 -0.5735  0.2064
  569TIP3    H1 1671   3.643   5.733   3.346 -0.8817 -0.9151  0.2122
  569TIP3    H2 1672   3.529   5.817   3.293  0.6201  0.4758 -0.9462
  570TIP3   OH2 1673   6.085   2.781   2.320 -0.0671  0.2137  0.1979
  570TIP3    H1 1674   6.081   2.781   2.416 -3.3825 -1.9092  0.2485
  570TIP3    H2 1675   6.094   2.873   2.296 -1.6243  1.0947  2.6172
  571TIP3   OH2 1676   6.282   6.635   1.925  0.3281  0.1328 -0.4861
  571TIP3    H1 1677   6.342   6.575   1.880 -1.0661 -0.0502 -2.1984
  571TIP3    H2 1678   6.293   6.718   1.879  0.2362  0.4601  0.0773
  572TIP3   OH2 1679   2.154   1.274   5.400 -0.4846 -0.1640  0.2092
  572TIP3    H1 1680   2.077   1.232   5.362 -0.2856 -1.5484  1.2367
  572TIP3    H2 1681   2.227   1.240   5.349 -0.4864  0.5633 -0.2832
  573TIP3   OH2 1682   2.869   4.609   1.108 -0.2661 -0.4900 -0.3322
  573TIP3    H1 1683   2.855   4.520   1.076 -0.4833  0.1687 -2.2255
  573TIP3    H2 1684   2.964   4.622   1.104 -0.1064 -1.0488  1.2070
  574TIP3   OH2 1685   2.811   5.665   2.232  0.0839  0.2500 -0.3996
  574TIP3    H1 1686   2.771   5.585   2.197  1.6286 -0.5304 -0.4517
  574TIP3    H2 1687   2.858   5.636   2.310  0.7908  1.0882 -0.5044
  575TIP3   OH2 1688   0.275   0.016   4.064 -0.0274 -0.1079 -0.4770
  575TIP3    H1 1689   0.205   0.033   4.001 -0.2022  2.8915  0.3786
  575TIP3    H2 1690   0.232   0.022   4.149  1.0481  0.6275  0.0284
  576TIP3   OH2 1691   1.811   2.361   4.129 -0.1126  0.0867  0.2580
  576TIP3    H1 1692   1.881   2.380   4.192  1.7563  1.7497 -2.1429
  576TIP3    H2 1693   1.756   2.439   4.130 -1.0050 -0.5212  0.8813
  577TIP3   OH2 1694   3.656   6.246   3.554 -0.4170  0.1635 -0.5833
  577TIP3    H1 1695   3.709   6.254   3.474  1.2393 -0.0348  0.4429
  577TIP3    H2 1696   3.603   6.168   3.540  1.4232 -1.1446 -0.6756
  578TIP3   OH2 1697   4.049   6.497   4.546  0.1255 -0.3281  0.3827
  578TIP3    H1 1698   4.108   6.559   4.502  0.4720  0.3067  1.6855
  578TIP3    H2 1699   4.099   6.415   4.550  0.8507  0.1392  1.2609
  579TIP3   OH2 1700   0.750   1.711   0.535 -0.0593  0.1117 -0.1152
  579TIP3    H1 1701   0.658   1.687   0.525 -0.1932 -0.1822  1.5672
  579TIP3    H2 1702   0.747   1.800   0.572  0.3606  0.5618 -1.1373
  580TIP3   OH2 1703   6.094   2.730   4.005  0.5851  0.3914 -0.1263
  580TIP3    H1 1704   6.142   2.648   4.020  0.4203  0.4439  0.7536
  580TIP3    H2 1705   6.121   2.787   4.077  0.1334  0.8480 -0.3116
  581TIP3   OH2 1706   2.415   5.275   3.433  0.0268 -0.0855 -0.0526
  581TIP3    H1 1707   2.414   5.354   3.379  1.4907 -0.5829 -0.8720
  581TIP3    H2 1708   2.326   5.240   3.426 -0.3165  0.8584 -0.6222
  582TIP3   OH2 1709   3.386   2.823   1.084  0.0889 -0.4269  0.7782
  582TIP3    H1 1710   3.367   2.900   1.031 -0.8167 -1.8795 -1.1520
  582TIP3    H2 1711   3.329   2.831   1.160 -0.5006  0.4708  0.2651
  583TIP3   OH2 1712   5.183   5.108   0.805  0.2295  0.1024 -0.4199
  583TIP3    H1 1713   5.119   5.061   0.753 -1.1280  0.6147  0.7378
  583TIP3    H2 1714   5.220   5.042   0.864  1.0281 -0.2566 -1.2921
  584TIP3   OH2 1715   1.971   1.028   0.747  0.2087  0.2764  0.0845
  584TIP3    H1 1716   2.006   1.110   0.782  2.7637 -0.9644  0.6452
  584TIP3    H2 1717   1.941   0.980   0.824  3.4896 -1.3747  0.5307
  585TIP3   OH2 1718   5.231   1.265   2.999 -0.7667 -0.0128  0.1246
  585TIP3    H1 1719   5.277   1.195   3.046  1.1463  0.2145 -1.3013
  585TIP3    H2 1720   5.181   1.219   2.932  0.5531 -0.0622 -0.8647
  586TIP3   OH2 1721   3.930   5.829   0.272  0.1449 -0.2667  0.3300
  586TIP3    H1 1722   3.981   5.845   0.351 -0.4467  0.6401  0.5509
  586TIP3    H2 1723   3.883   5.911   0.257  1.4423  0.1639 -1.8805
  587TIP3   OH2 1724   5.832   6.028   3.068 -0.1543  0.1381  0.2547
  587TIP3    H1 1725   5.831   6.061   3.158 -0.1524  0.3514  0.1783
  587TIP3    H2 1726   5.904   6.076   3.026 -0.1812  0.0693  0.1295
  588TIP3   OH2 1727   6.838   6.075   4.619  0.2771  0.2109  0.1484
  588TIP3    H1 1728   6.929   6.062   4.594  0.1818 -0.4092  0.1200
  588TIP3    H2 1729   6.788   6.034   4.549 -0.0005 -0.8655  0.9515
  589TIP3   OH2 1730   0.748   2.962   3.979  0.2430  0.1127 -0.3855
  589TIP3    H1 1731   0.755   3.038   4.036 -0.3582  0.4071 -0.6994
  589TIP3    H2 1732   0.657   2.960   3.952  0.4733 -0.1315 -1.1772
  590TIP3   OH2 1733   5.594   1.381   0.046 -0.0376 -0.7077 -0.6008
  590TIP3    H1 1734   5.656   1.423  -0.012  0.1855 -1.2743 -0.7809
  590TIP3    H2 1735   5.616   1.288   0.042 -1.9300 -1.1678 -1.9638
  591TIP3   OH2 1736   2.079   5.884   4.411  0.4022 -0.2732 -0.1783
  591TIP3    H1 1737   2.154   5.939   4.434  0.5039 -0.2149 -0.6477
  591TIP3    H2 1738   2.019   5.895   4.484  0.6084  0.1224 -0.0634
  592TIP3   OH2 1739   2.126   6.824   0.203  0.1975 -0.0815 -0.0189
  592TIP3    H1 1740   2.123   6.738   0.244 -1.1210 -0.4379 -0.8183
  592TIP3    H2 1741   2.174   6.811   0.121  0.4731  0.0704  0.1149
  593TIP3   OH2 1742   0.546   5.679   3.956  0.1485 -0.4164 -0.3320
  593TIP3    H1 1743   0.487   5.694   3.883  0.1415 -3.5669 -1.1294
  593TIP3    H2 1744   0.495   5.626   4.018  1.3253 -1.0438  0.1389
  594TIP3   OH2 1745   3.587   5.346   0.323 -0.0736 -0.2267  0.4838
  594TIP3    H1 1746   3.594   5.442   0.321  1.1675 -0.2854  1.0221
  594TIP3    H2 1747   3.582   5.321   0.231  0.1839  0.3352  0.3099
  595TIP3   OH2 1748   1.227   4.570   3.600 -0.2124  0.3009  0.0376
  595TIP3    H1 1749   1.249   4.636   3.665 -0.0795 -0.4276  0.7507
  595TIP3    H2 1750   1.279   4.493   3.625 -1.3421 -0.4951  0.0025
  596TIP3   OH2 1751   6.568   5.773   4.691 -0.3613  0.5299  0.3710
  596TIP3    H1 1752   6.618   5.801   4.614 -1.1847  0.9934 -0.0087
  596TIP3    H2 1753   6.612   5.815   4.765  0.9337 -0.5764  0.2648
  597TIP3   OH2 1754   1.416   2.798   1.637 -0.2607  0.2098  0.7398
  597TIP3    H1 1755   1.440   2.821   1.547 -1.7044  1.3593  0.5951
  597TIP3    H2 1756   1.441   2.707   1.646  1.5879  0.5709 -0.2090
  598TIP3   OH2 1757   4.056   2.049   0.612  0.2316  0.1016 -0.2709
  598TIP3    H1 1758   4.142   2.083   0.586  0.2141 -0.8867 -1.7485
  598TIP3    H2 1759   3.999   2.068   0.536 -0.8448  0.6558  0.6407
  599TIP3   OH2 1760   1.887   3.732   3.824  0.1300  0.5612  0.0195
  599TIP3    H1 1761   1.843   3.675   3.887 -3.4918 -1.5188 -3.8608
  599TIP3    H2 1762   1.846   3.818   3.838  0.6113  0.5678  1.5033
  600TIP3   OH2 1763   4.855   6.628   2.611  0.2628 -0.2853  0.1795
  600TIP3    H1 1764   4.882   6.548   2.566  0.6104 -1.5706  2.4686
  600TIP3    H2 1765   4.935   6.678   2.622 -0.1135  0.9295 -2.1401
  601TIP3   OH2 1766   6.762   2.064   0.578 -0.4141 -0.2203  0.3483
  601TIP3    H1 1767   6.670   2.084   0.598 -0.9698  0.2670 -2.2679
  601TIP3    H2 1768   6.758   2.020   0.493  1.8170  0.2101 -0.0259
  602TIP3   OH2 1769   6.967   1.965   1.128  0.2246  0.1898  0.1284
  602TIP3    H1 1770   7.036   1.924   1.180  1.7253 -0.2608 -2.0905
  602TIP3    H2 1771   7.013   2.026   1.070 -1.3461  0.5529 -0.8005
  603TIP3   OH2 1772   0.491   5.897   2.270 -0.2237  0.3611  0.2035
  603TIP3    H1 1773   0.416   5.859   2.223  0.4584 -2.1707  1.0339
  603TIP3    H2 1774   0.561   5.899   2.205 -0.3650  0.5975  0.0539
  604TIP3   OH2 1775   6.166   5.529   3.526  0.2024  0.0799 -0.4715
  604TIP3    H1 1776   6.196   5.572   3.606 -1.0711  1.3522 -0.6300
  604TIP3    H2 1777   6.154   5.600   3.463 -1.6502 -0.4878 -0.8455
  605TIP3   OH2 1778   6.910   5.900   3.565  0.1961 -0.2156 -0.2666
  605TIP3    H1 1779   6.826   5.856   3.553  0.3154  0.0394 -2.5009
  605TIP3    H2 1780   6.954   5.889   3.481  2.9193 -1.3454  1.1795
  606TIP3   OH2 1781   1.777   3.771   1.210 -0.1211  0.2815 -0.4064
  606TIP3    H1 1782   1.712   3.719   1.258 -1.0622  2.0988  0.3823
  606TIP3    H2 1783   1.805   3.838   1.273  1.1014  0.7110 -1.3643
  607TIP3   OH2 1784   4.970   0.523   3.757  0.1405  0.3153 -0.2609
  607TIP3    H1 1785   4.958   0.589   3.689 -0.6858  0.7807  0.3276
  607TIP3    H2 1786   4.882   0.509   3.794  0.5699  0.0621  0.7049
  608TIP3   OH2 1787   2.156   0.525   5.078 -0.0946 -0.1641 -0.0367
  608TIP3    H1 1788   2.232   0.548   5.024  0.0004  0.1255  0.2127
  608TIP3    H2 1789   2.178   0.439   5.115  0.4754  0.2724  0.6746
  609TIP3   OH2 1790   6.218   2.139   3.721  0.1427  0.4110 -0.5334
  609TIP3    H1 1791   6.186   2.115   3.634 -1.2363 -1.2623  0.3732
  609TIP3    H2 1792   6.142   2.133   3.778  1.0644  1.2278  0.8505
  610TIP3   OH2 1793   4.068   3.521   4.802 -0.3198 -0.0602  0.3954
  610TIP3    H1 1794   4.150   3.563   4.830  0.1366 -0.9377  0.3930
  610TIP3    H2 1795   4.049   3.561   4.717  0.8113 -0.7719 -0.2145
  611TIP3   OH2 1796   5.362   4.774   3.959 -0.1593 -0.5708  0.2807
  611TIP3    H1 1797   5.410   4.692   3.946  1.8078  0.7307 -0.9906
  611TIP3    H2 1798   5.362   4.786   4.054 -0.1757 -1.8361  0.4670
  612TIP3   OH2 1799   0.321   2.863   1.652  0.5826  0.2530 -0.1366
  612TIP3    H1 1800   0.293   2.942   1.605 -0.8234 -0.3216 -0.3157
  612TIP3    H2 1801   0.295   2.790   1.595 -0.4794 -0.4283  1.1501
  613TIP3   OH2 1802   5.424   5.551   4.001 -0.4130 -0.0209  0.1995
  613TIP3    H1 1803   5.511   5.518   3.983 -0.2227  0.3024  0.4983
  613TIP3    H2 1804   5.433   5.646   3.997 -0.8169  0.0086 -0.0644
  614TIP3   OH2 1805   6.952   0.428   0.022 -0.3416 -0.2301  0.0663
  614TIP3    H1 1806   6.920   0.376  -0.052 -0.5421  2.0322 -1.5045
  614TIP3    H2 1807   6.977   0.362   0.087 -0.2433 -2.3141 -1.9412
  615TIP3   OH2 1808   4.374   0.299   4.576 -0.1056  0.2164 -0.2955
  615TIP3    H1 1809   4.415   0.298   4.489 -0.2038 -0.7316 -0.3454
  615TIP3    H2 1810   4.387   0.210   4.609 -1.3289  0.1518  0.0586
  616TIP3   OH2 1811   2.312   2.152   1.992  0.2371  0.0899 -0.1435
  616TIP3    H1 1812   2.295   2.246   1.990 -0.9258 -0.0728  0.7657
  616TIP3    H2 1813   2.382   2.142   2.058 -1.1119  0.1611  1.3684
  617TIP3   OH2 1814   4.226   4.334   2.945  0.2258  0.3425  0.3510
  617TIP3    H1 1815   4.276   4.252   2.947  0.8635  0.7366  1.2118
  617TIP3    H2 1816   4.134   4.306   2.941  0.4871 -0.3936 -1.6505
  618TIP3   OH2 1817   1.844   6.380   2.310 -0.2915 -0.8286  0.3335
  618TIP3    H1 1818   1.766   6.326   2.301 -0.8548  0.0288 -0.0761
  618TIP3    H2 1819   1.813   6.461   2.351  0.4291 -0.5892  0.4284
  619TIP3   OH2 1820   7.000   1.563   4.903 -0.0790 -0.2120 -0.7433
  619TIP3    H1 1821   7.078   1.517   4.936  0.3026  0.2334 -1.0014
  619TIP3    H2 1822   6.990   1.637   4.962 -0.9902 -0.8833 -0.0264
  620TIP3   OH2 1823   5.166   4.650   5.584  0.6413 -0.1409  0.1835
  620TIP3    H1 1824   5.232   4.676   5.648  1.2488  1.5757 -1.0586
  620TIP3    H2 1825   5.101   4.601   5.634  1.2870  0.8053  2.0135
  621TIP3   OH2 1826   3.362   0.485   4.948  0.0382  0.0696  0.2828
  621TIP3    H1 1827   3.276   0.526   4.956  0.1799  0.3895  0.1892
  621TIP3    H2 1828   3.410   0.514   5.026 -0.0251 -0.3150  0.4631
  622TIP3   OH2 1829   3.303   3.275  -0.028  0.0242  0.1740  0.3814
  622TIP3    H1 1830   3.246   3.308   0.041 -1.6937 -0.3860 -0.6905
  622TIP3    H2 1831   3.339   3.194   0.008 -1.0134 -0.2185  0.5763
  623TIP3   OH2 1832   4.571   6.507   1.025 -0.6093 -0.0722  0.0093
  623TIP3    H1 1833   4.501   6.471   1.079  0.3580 -0.9406  0.7230
  623TIP3    H2 1834   4.538   6.499   0.935 -1.3024 -0.7561  0.3118
  624TIP3   OH2 1835   4.586   6.349   2.164  0.1797  0.9085 -0.0803
  624TIP3    H1 1836   4.613   6.299   2.087 -1.8131 -1.2235  0.4950
  624TIP3    H2 1837   4.566   6.436   2.130 -1.3146 -0.1493 -2.1629
  625TIP3   OH2 1838   4.441   3.767   0.219  0.4319  0.1040  0.5523
  625TIP3    H1 1839   4.349   3.795   0.223  0.1325 -0.6419 -0.6229
  625TIP3    H2 1840   4.437   3.671   0.225  1.1634  0.0816  0.7979
  626TIP3   OH2 1841   6.959   2.285   2.728 -0.2821  0.0031  0.4128
  626TIP3    H1 1842   6.955   2.375   2.762  2.2229  0.5671 -0.6051
  626TIP3    H2 1843   6.892   2.283   2.660  0.7384  1.6817 -0.7124
  627TIP3   OH2 1844   3.353   0.597   1.106 -0.0950 -0.0856 -0.0109
  627TIP3    H1 1845   3.429   0.624   1.158 -1.1551  3.7473 -0.1695
  627TIP3    H2 1846   3.375   0.622   1.016 -1.7731  2.0050  0.0677
  628TIP3   OH2 1847   0.081   2.533   4.628 -0.0699 -0.0577  0.7177
  628TIP3    H1 1848   0.041   2.549   4.714  1.3543  2.4642  1.0283
  628TIP3    H2 1849   0.153   2.473   4.646 -0.6248 -0.6300  1.0408
  629TIP3   OH2 1850   1.036   4.944   4.792  0.0144  0.7480  0.1249
  629TIP3    H1 1851   1.063   4.859   4.757 -1.5408  0.9737 -1.8102
  629TIP3    H2 1852   1.025   4.929   4.886 -1.2436 -1.5226 -0.3150
  630TIP3   OH2 1853   0.094   5.912   0.275  0.0141 -0.0368  0.0385
  630TIP3    H1 1854   0.053   5.830   0.246 -0.2897 -0.3349  1.2514
  630TIP3    H2 1855   0.110   5.961   0.194 -1.4596 -0.5144 -0.5767
  631TIP3   OH2 1856   5.575   4.693   5.277  0.3277 -0.3118  0.5109
  631TIP3    H1 1857   5.538   4.696   5.365  0.1981 -0.3329  0.4577
  631TIP3    H2 1858   5.502   4.666   5.222  0.4383 -0.4132  0.4133
  632TIP3   OH2 1859   4.371   0.264   3.343 -0.4544 -0.6920  0.6404
  632TIP3    H1 1860   4.308   0.325   3.304 -0.1645 -0.4635  0.5292
  632TIP3    H2 1861   4.320   0.185   3.360 -0.5168 -0.9064 -0.4843
  633TIP3   OH2 1862   3.651   6.721   2.265  0.0479 -0.1586  0.0718
  633TIP3    H1 1863   3.673   6.815   2.264  2.1082 -0.5853 -0.0450
  633TIP3    H2 1864   3.613   6.707   2.352  1.3543  0.4908  0.7867
  634TIP3   OH2 1865   6.886   4.384   2.697 -0.0191  0.4315 -0.1878
  634TIP3    H1 1866   6.841   4.425   2.771 -0.2211  2.4908 -1.3786
  634TIP3    H2 1867   6.842   4.300   2.685 -0.8211  0.6333  1.2134
  635TIP3   OH2 1868   0.279   5.805   4.086 -0.0088  0.4085 -0.0541
  635TIP3    H1 1869   0.323   5.861   4.150 -1.0303 -0.6149  1.6307
  635TIP3    H2 1870   0.310   5.717   4.107 -3.3696 -0.4980  1.8249
  636TIP3   OH2 1871   6.587   4.533   0.129 -0.3943  0.0757  0.1438
  636TIP3    H1 1872   6.650   4.471   0.166  1.2210 -0.0427 -2.5428
  636TIP3    H2 1873   6.510   4.480   0.107  0.2728 -0.6558 -0.4758
  637TIP3   OH2 1874   1.311   5.561   4.270 -0.4063 -0.4735  0.2763
  637TIP3    H1 1875   1.389   5.587   4.319  0.3879 -0.4956 -0.9642
  637TIP3    H2 1876   1.301   5.468   4.290  2.0945 -1.4733 -2.4074
  638TIP3   OH2 1877   4.278   0.441   1.371 -0.5020 -0.1130  0.2346
  638TIP3    H1 1878   4.225   0.478   1.300 -1.5161  1.1567  1.5755
  638TIP3    H2 1879   4.345   0.389   1.327 -2.3653 -1.1208 -1.5697
  639TIP3   OH2 1880   3.962   1.827   5.590  0.9494  0.2566  0.3395
  639TIP3    H1 1881   3.873   1.862   5.589  0.4502 -0.7966 -3.1006
  639TIP3    H2 1882   4.017   1.903   5.609 -0.5847  1.0145  2.0664
  640TIP3   OH2 1883   4.171   1.408   0.661  0.0665  0.0863 -0.1907
  640TIP3    H1 1884   4.170   1.330   0.607 -1.7956 -0.4726  0.5575
  640TIP3    H2 1885   4.080   1.439   0.661  0.6216  1.8528  0.1030
  641TIP3   OH2 1886   4.667   4.478   2.932  0.1052  0.5007  0.0822
  641TIP3    H1 1887   4.670   4.387   2.958 -0.6535  0.6675  0.7709
  641TIP3    H2 1888   4.746   4.517   2.970  0.5011  0.1109 -0.3313
  642TIP3   OH2 1889   0.502   6.599   2.264 -0.1457 -0.3352 -0.1961
  642TIP3    H1 1890   0.461   6.547   2.195  0.3864 -0.1401 -0.6681
  642TIP3    H2 1891   0.442   6.672   2.279 -0.6394 -0.7972  0.1014
  643TIP3   OH2 1892   4.717   0.623   3.574  0.3974 -0.0421  0.7630
  643TIP3    H1 1893   4.665   0.608   3.653 -0.5501  0.9040  0.3384
  643TIP3    H2 1894   4.671   0.574   3.506 -0.2416  1.2037  0.2796
  644TIP3   OH2 1895   1.913   4.496   5.838  0.3515 -0.0742  0.2983
  644TIP3    H1 1896   1.824   4.527   5.854  0.5842 -0.0475  1.7607
  644TIP3    H2 1897   1.904   4.402   5.824  0.2889 -0.7067  3.6064
  645TIP3   OH2 1898   2.836   4.359   3.604  0.2278 -0.7055 -1.2733
  645TIP3    H1 1899   2.844   4.318   3.690  0.1991 -2.5877 -2.1154
  645TIP3    H2 1900   2.742   4.355   3.584 -0.4060  3.2151  0.1470
  646TIP3   OH2 1901   6.710   3.660   0.409  0.1331 -0.5093 -0.2196
  646TIP3    H1 1902   6.709   3.671   0.504 -0.9598 -1.1578 -0.1440
  646TIP3    H2 1903   6.622   3.627   0.388  0.6435 -1.1752 -1.3567
  647TIP3   OH2 1904   5.386   2.726   1.809  0.4849  0.2121  0.3095
  647TIP3    H1 1905   5.353   2.758   1.725  0.8244 -2.2509 -0.8660
  647TIP3    H2 1906   5.309   2.716   1.864  0.0227  0.1341 -0.3484
  648TIP3   OH2 1907   1.636   3.209   1.666 -0.3463  0.3122 -0.0251
  648TIP3    H1 1908   1.587   3.231   1.587  0.3787 -0.9222 -0.8521
  648TIP3    H2 1909   1.668   3.120   1.651  2.4525  1.1520  0.2862
  649TIP3   OH2 1910   3.949   3.344   2.729  0.0109 -0.0394 -0.4454
  649TIP3    H1 1911   3.979   3.388   2.649  1.3376 -0.3095 -0.1192
  649TIP3    H2 1912   3.983   3.254   2.721 -1.4612 -0.6340 -0.4405
  650TIP3   OH2 1913   0.375   6.521   3.595  0.0693 -0.6674 -0.0261
  650TIP3    H1 1914   0.312   6.502   3.664 -1.9455 -0.0379 -1.5966
  650TIP3    H2 1915   0.415   6.436   3.575 -1.2362 -1.3457  0.1389
  651TIP3   OH2 1916   2.356   5.287   1.336  0.7308 -0.4574  0.2026
  651TIP3    H1 1917   2.446   5.313   1.353  0.7354 -0.4434  0.1567
  651TIP3    H2 1918   2.303   5.360   1.367  0.7312 -0.4989  0.3022
  652TIP3   OH2 1919   2.689   1.957   4.433 -0.1465 -0.6109 -0.5141
  652TIP3    H1 1920   2.608   1.995   4.399  0.2117  0.1287 -0.5596
  652TIP3    H2 1921   2.698   1.996   4.521  0.5153 -0.1488 -0.7833
  653TIP3   OH2 1922   7.154   1.802   3.806  0.8183  0.0234  0.1593
  653TIP3    H1 1923   7.066   1.832   3.827  0.4076 -0.4036 -0.8799
  653TIP3    H2 1924   7.191   1.775   3.890 -0.2728 -0.4073  0.5187
  654TIP3   OH2 1925   1.068   3.598   3.311  0.0155 -0.6136 -0.0955
  654TIP3    H1 1926   1.126   3.617   3.384 -0.0444 -0.0124 -0.1974
  654TIP3    H2 1927   1.049   3.504   3.318  2.0981 -1.1441 -0.8625
  655TIP3   OH2 1928   0.325   0.849   4.122 -0.0820 -0.0123 -0.1473
  655TIP3    H1 1929   0.322   0.943   4.102 -1.2939 -0.1665 -0.7635
  655TIP3    H2 1930   0.234   0.820   4.114  0.0954 -1.0022  1.2380
  656TIP3   OH2 1931   6.135   1.123   5.773  0.1160  0.1692  0.3397
  656TIP3    H1 1932   6.229   1.117   5.754 -0.2150 -1.7767 -0.8764
  656TIP3    H2 1933   6.126   1.082   5.859  0.2207 -0.8139 -0.1122
  657TIP3   OH2 1934   0.506   5.184   0.036  0.2493  0.0901  0.1036
  657TIP3    H1 1935   0.431   5.124   0.037 -0.2428  0.6456 -0.9330
  657TIP3    H2 1936   0.532   5.192   0.127 -0.6056 -0.5540  0.4201
  658TIP3   OH2 1937   0.680   5.960   1.059 -0.2385  0.3225  0.9694
  658TIP3    H1 1938   0.591   5.982   1.087 -1.0514  2.2423 -2.4880
  658TIP3    H2 1939   0.737   6.007   1.120 -1.7844  3.0603  0.4640
  659TIP3   OH2 1940   1.675   1.734   2.363 -0.3302  0.3626 -0.7336
  659TIP3    H1 1941   1.657   1.696   2.278 -0.5338  1.7423 -1.3399
  659TIP3    H2 1942   1.767   1.761   2.358 -0.3121  0.3504 -0.4838
  660TIP3   OH2 1943   1.664   0.855   3.913 -0.3690  0.7605  0.4412
  660TIP3    H1 1944   1.708   0.940   3.916  3.0066 -0.8052  0.1793
  660TIP3    H2 1945   1.630   0.843   4.002  3.1243  0.5959  1.9143
  661TIP3   OH2 1946   5.501   2.998   5.804 -0.5228 -0.7604 -0.2848
  661TIP3    H1 1947   5.519   2.932   5.737  1.2712 -0.1428 -0.4698
  661TIP3    H2 1948   5.505   2.951   5.887  0.2185 -0.9961 -0.4502
  662TIP3   OH2 1949   3.984   1.331   1.860 -0.1308  0.5251 -0.2491
  662TIP3    H1 1950   3.903   1.382   1.849 -0.4117  0.0147 -0.5678
  662TIP3    H2 1951   4.032   1.345   1.779 -0.1096  0.4551 -0.2485
  663TIP3   OH2 1952   3.693   2.666   2.755  0.2098 -0.0705  0.3295
  663TIP3    H1 1953   3.608   2.674   2.797  0.1138 -0.5357  0.2323
  663TIP3    H2 1954   3.678   2.695   2.665 -0.9066 -4.0575 -0.9675
  664TIP3   OH2 1955   0.708   2.105   3.958  0.1797  0.5314 -0.0012
  664TIP3    H1 1956   0.615   2.087   3.948  0.0711  1.5584 -1.1216
  664TIP3    H2 1957   0.731   2.070   4.044 -0.1632 -3.9164 -1.4922
  665TIP3   OH2 1958   1.861   5.675   2.870  0.1924  0.2604  0.0841
  665TIP3    H1 1959   1.923   5.680   2.797  0.0381 -0.3268 -0.0918
  665TIP3    H2 1960   1.909   5.712   2.944  0.6052  0.2045 -0.1479
  666TIP3   OH2 1961   1.909   4.666   2.822  0.0951  0.3118 -0.4697
  666TIP3    H1 1962   1.879   4.747   2.780 -2.8080 -0.0440  0.6786
  666TIP3    H2 1963   1.945   4.695   2.906 -0.1527  0.5030 -0.4257
  667TIP3   OH2 1964   0.914   3.464   5.909  0.3694 -0.5941 -0.4036
  667TIP3    H1 1965   0.852   3.511   5.854  1.7662  0.3316 -1.2434
  667TIP3    H2 1966   0.937   3.386   5.859 -0.2786 -1.0739  0.0231
  668TIP3   OH2 1967   2.165   6.489   4.293 -0.3018 -0.4894 -0.0289
  668TIP3    H1 1968   2.250   6.523   4.269 -0.6085  0.3816  0.0878
  668TIP3    H2 1969   2.184   6.415   4.351  0.3849  0.6684  1.2974
  669TIP3   OH2 1970   3.571   2.098   3.940 -0.2063  0.1150 -0.1627
  669TIP3    H1 1971   3.503   2.037   3.967  0.9626 -1.2796 -0.2621
  669TIP3    H2 1972   3.648   2.074   3.991  0.8703  0.1293 -1.6975
  670TIP3   OH2 1973   4.476   3.863   2.948  0.3444  0.0238  1.1269
  670TIP3    H1 1974   4.530   3.870   3.027 -0.7560 -0.9655  2.0069
  670TIP3    H2 1975   4.445   3.772   2.948  0.7185 -0.1222 -0.7232
  671TIP3   OH2 1976   6.474   1.403   1.180 -0.5497 -0.6877 -0.0597
  671TIP3    H1 1977   6.451   1.380   1.270 -4.5038 -1.6380 -1.1439
  671TIP3    H2 1978   6.429   1.486   1.164  2.3175  0.9223 -0.4643
  672TIP3   OH2 1979   1.773   6.266   2.653  0.6640 -0.7615  0.0823
  672TIP3    H1 1980   1.784   6.222   2.568  3.4420  1.3296 -0.7658
  672TIP3    H2 1981   1.851   6.243   2.702  0.6563  0.7009  0.8111
  673TIP3   OH2 1982   3.862   1.935   2.476 -0.0268 -0.2507  0.1780
  673TIP3    H1 1983   3.889   1.940   2.568  0.5057  0.5384 -0.0038
  673TIP3    H2 1984   3.770   1.961   2.476 -0.0430 -0.3062  0.5005
  674TIP3   OH2 1985   4.419   3.883   3.381 -0.2679 -0.4628  0.3561
  674TIP3    H1 1986   4.369   3.909   3.304  1.1511  0.6851 -0.2352
  674TIP3    H2 1987   4.408   3.788   3.386  0.0968 -0.6602 -1.6653
  675TIP3   OH2 1988   3.778   0.307   0.678 -0.0786  0.0152  0.3548
  675TIP3    H1 1989   3.733   0.224   0.668 -1.0745  0.4315  1.1775
  675TIP3    H2 1990   3.714   0.364   0.720  0.5786  1.2054 -0.2087
  676TIP3   OH2 1991   5.531   5.136   2.427  0.2367  0.7280 -0.0542
  676TIP3    H1 1992   5.588   5.101   2.496 -2.6193 -1.7229  1.2397
  676TIP3    H2 1993   5.543   5.231   2.433  0.7664  0.5711  3.2599
  677TIP3   OH2 1994   5.265   4.477   4.943  0.2291 -0.4293 -0.1693
  677TIP3    H1 1995   5.274   4.388   4.910  0.5881 -0.0360 -1.1618
  677TIP3    H2 1996   5.238   4.528   4.866  0.2866  0.3621  0.3301
  678TIP3   OH2 1997   3.086   2.146   3.600 -0.1546 -0.5514 -0.2331
  678TIP3    H1 1998   3.107   2.066   3.551 -1.9513 -0.1697 -1.7449
  678TIP3    H2 1999   3.027   2.195   3.542  1.7557  2.4548  0.1128
  679TIP3   OH2 2000   3.159   3.457   5.672 -0.0318 -0.2748  0.2110
  679TIP3    H1 2001   3.231   3.438   5.612  0.0861  1.0686 -0.0979
  679TIP3    H2 2002   3.122   3.371   5.693  1.2771 -0.9314 -0.0849
  680TIP3   OH2 2003   6.189   1.043   1.339  0.5159  0.2649  0.1093
  680TIP3    H1 2004   6.217   1.001   1.420  0.8736 -0.3139 -0.3120
  680TIP3    H2 2005   6.260   1.027   1.277  0.4676  1.1159 -0.1889
  681TIP3   OH2 2006   6.101   5.386   0.918  0.7913  0.4477 -0.3456
  681TIP3    H1 2007   6.187   5.410   0.884  1.0979 -2.2709 -1.7500
  681TIP3    H2 2008   6.116   5.304   0.964 -1.0054  0.1035 -0.3028
  682TIP3   OH2 2009   5.547   2.937   4.393 -0.4458 -0.8402  0.3111
  682TIP3    H1 2010   5.592   2.998   4.334 -1.1425  0.1884  0.8042
  682TIP3    H2 2011   5.499   2.878   4.336 -2.1486  0.9349 -0.1914
  683TIP3   OH2 2012   1.229   4.099   0.062  0.0929  0.1159 -0.1629
  683TIP3    H1 2013   1.141   4.070   0.086  0.0423  0.5733  0.2323
  683TIP3    H2 2014   1.215   4.176   0.007  0.1820 -1.4605 -2.5393
  684TIP3   OH2 2015   0.389   2.602   1.480 -0.2867 -0.7683 -0.6489
  684TIP3    H1 2016   0.410   2.667   1.413  0.6621 -1.2352 -0.8341
  684TIP3    H2 2017   0.374   2.521   1.431  1.0467 -1.2641 -0.2854
  685TIP3   OH2 2018   6.465   3.439   2.679 -0.0061 -0.3863  0.1225
  685TIP3    H1 2019   6.475   3.482   2.764  0.1183  2.0609 -1.0512
  685TIP3    H2 2020   6.385   3.387   2.688 -0.5383  0.5903  1.4370
  686TIP3   OH2 2021   4.662   5.174   4.869  0.3849 -0.0346  0.0946
  686TIP3    H1 2022   4.573   5.172   4.834  0.7079 -0.1591 -0.7633
  686TIP3    H2 2023   4.651   5.188   4.963 -0.4649  2.2488 -0.2789
  687TIP3   OH2 2024   2.332   2.602   5.188  0.0132 -0.8599 -0.2069
  687TIP3    H1 2025   2.333   2.697   5.177 -1.8037 -0.6995  0.6901
  687TIP3    H2 2026   2.371   2.587   5.274 -0.3439 -0.8678 -0.0452
  688TIP3   OH2 2027   2.884   5.994   1.063  0.0984 -0.4720  0.2581
  688TIP3    H1 2028   2.889   6.012   0.969 -0.6788 -2.3736 -0.1886
  688TIP3    H2 2029   2.950   6.051   1.102  1.1745 -0.4100 -1.5548
  689TIP3   OH2 2030   0.024   1.775   3.335 -0.1794 -0.2649  0.3262
  689TIP3    H1 2031  -0.000   1.733   3.252 -0.5758 -1.5873  1.0878
  689TIP3    H2 2032   0.041   1.866   3.311 -0.4794 -0.5709 -1.1750
  690TIP3   OH2 2033   6.562   0.377   0.910  0.5244 -0.5514 -0.1693
  690TIP3    H1 2034   6.485   0.345   0.864 -1.4969  1.2529  1.6735
  690TIP3    H2 2035   6.601   0.441   0.850 -0.0927 -0.6653 -0.7081
  691TIP3   OH2 2036   1.949   0.030   1.463  0.2181  0.4633 -0.2702
  691TIP3    H1 2037   2.033   0.061   1.497  0.4246 -1.3870  1.0174
  691TIP3    H2 2038   1.966   0.011   1.370  0.6047  2.1632 -0.5769
  692TIP3   OH2 2039   5.147   3.818   1.049  0.0235 -0.0782  0.5104
  692TIP3    H1 2040   5.070   3.872   1.070  0.1335  0.4911 -0.4979
  692TIP3    H2 2041   5.148   3.813   0.954  0.9289 -0.5519  0.5315
  693TIP3   OH2 2042   1.631   4.916   2.269 -0.2273  0.5124  0.1019
  693TIP3    H1 2043   1.701   4.889   2.208  0.7730 -3.7281  2.6698
  693TIP3    H2 2044   1.550   4.906   2.218  0.5577 -2.7701 -0.7517
  694TIP3   OH2 2045   6.614   4.621   5.261  0.2189  0.2217  0.3658
  694TIP3    H1 2046   6.614   4.708   5.299  0.7674  0.3149  0.1675
  694TIP3    H2 2047   6.706   4.604   5.239  0.2251 -0.6737  1.0103
  695TIP3   OH2 2048   0.332   6.091   3.818 -0.2700 -0.0170  0.1867
  695TIP3    H1 2049   0.343   6.127   3.906 -1.0847  1.2832 -0.2152
  695TIP3    H2 2050   0.421   6.087   3.783 -0.1397  1.6739  0.2481
  696TIP3   OH2 2051   1.633   4.434   2.360 -0.0753  0.1166 -0.1502
  696TIP3    H1 2052   1.595   4.347   2.349  1.4817 -0.5637 -0.4237
  696TIP3    H2 2053   1.642   4.444   2.455 -0.0672 -0.1168 -0.1241
  697TIP3   OH2 2054   2.907   0.018   4.435 -0.2620 -0.3239  0.2873
  697TIP3    H1 2055   2.967  -0.052   4.409 -0.2124 -0.6705  1.2853
  697TIP3    H2 2056   2.942   0.097   4.392  0.2394 -0.7305 -0.0674
  698TIP3   OH2 2057   0.812   3.575   2.991 -0.1136 -0.0621 -0.6461
  698TIP3    H1 2058   0.856   3.495   3.020 -0.9720 -0.4879 -0.4888
  698TIP3    H2 2059   0.883   3.638   2.979  0.4023 -0.1565  1.4235
  699TIP3   OH2 2060   2.113   2.620   0.553  0.1270  0.4343 -0.0033
  699TIP3    H1 2061   2.099   2.615   0.459 -0.8914  0.4749  0.1374
  699TIP3    H2 2062   2.206   2.598   0.565  0.1166 -0.1730 -0.9564
  700TIP3   OH2 2063   3.675   2.996   0.276 -0.6658 -0.0887 -1.0171
  700TIP3    H1 2064   3.701   2.953   0.195 -0.4578  0.4832 -1.2526
  700TIP3    H2 2065   3.718   2.945   0.345  1.0846  0.8052 -1.3870
  701TIP3   OH2 2066   0.045   2.117   4.893 -0.2359 -0.1800 -0.4302
  701TIP3    H1 2067   0.106   2.044   4.884 -0.9954 -0.7965 -0.6625
  701TIP3    H2 2068  -0.017   2.088   4.960  0.1848  0.7715  0.4032
  702TIP3   OH2 2069   0.204   4.640   3.747 -0.2352  0.4973 -0.4498
  702TIP3    H1 2070   0.114   4.672   3.745 -0.2832  0.3534 -2.8430
  702TIP3    H2 2071   0.256   4.716   3.775 -0.8908  1.1626 -1.0079
  703TIP3   OH2 2072   0.929   4.832   5.570  0.0566 -0.7790  0.3171
  703TIP3    H1 2073   1.008   4.886   5.573 -0.4455 -0.0256  0.2702
  703TIP3    H2 2074   0.953   4.757   5.516  0.3567  0.0807 -0.7615
  704TIP3   OH2 2075   4.513   3.847   4.277  0.2224  0.2633 -0.4293
  704TIP3    H1 2076   4.422   3.860   4.254 -0.1898  1.0055  1.4053
  704TIP3    H2 2077   4.561   3.913   4.226 -0.1760 -0.4174 -1.7273
  705TIP3   OH2 2078   1.059   0.212   3.100  0.3820 -0.0944  0.6557
  705TIP3    H1 2079   0.992   0.158   3.142  0.5171 -0.6487  0.1872
  705TIP3    H2 2080   1.012   0.259   3.031  0.6747 -1.4272 -0.4922
  706TIP3   OH2 2081   6.350   2.600   4.205  0.3157  0.0732 -0.1607
  706TIP3    H1 2082   6.316   2.562   4.286  1.6348  0.5905  0.6561
  706TIP3    H2 2083   6.323   2.692   4.208  0.9739  0.2583  0.0281
  707TIP3   OH2 2084   1.637   6.424   5.556  0.5004  0.1499  0.1715
  707TIP3    H1 2085   1.620   6.347   5.611  0.3500  1.1466  1.5531
  707TIP3    H2 2086   1.592   6.496   5.599  0.4724  1.0070 -1.2094
  708TIP3   OH2 2087   6.399   0.676   4.849 -0.4107  0.1183 -0.5604
  708TIP3    H1 2088   6.407   0.756   4.796  0.8582  1.7366  1.9300
  708TIP3    H2 2089   6.312   0.682   4.888 -0.6161 -0.1430 -0.9631
  709TIP3   OH2 2090   3.179   3.194   2.738 -0.6264  0.5734  0.5734
  709TIP3    H1 2091   3.122   3.230   2.806 -0.6700  1.4454  0.0990
  709TIP3    H2 2092   3.232   3.269   2.709  0.2330 -0.0513  0.4760
  710TIP3   OH2 2093   1.403   4.902   4.805  0.0639 -0.3566 -0.2515
  710TIP3    H1 2094   1.381   4.902   4.712  0.2440 -0.0173 -0.2919
  710TIP3    H2 2095   1.498   4.894   4.808  0.2961  1.9183 -0.1479
  711TIP3   OH2 2096   5.176   2.579   2.406  0.1788 -0.6140  0.2632
  711TIP3    H1 2097   5.251   2.588   2.464 -0.4487 -1.0923  1.1722
  711TIP3    H2 2098   5.203   2.621   2.324  0.7261  0.9591  1.2176
  712TIP3   OH2 2099   6.507   0.687   1.032  0.3779  0.0443  0.1425
  712TIP3    H1 2100   6.556   0.767   1.049 -1.6513  1.2819  0.4993
  712TIP3    H2 2101   6.497   0.685   0.937 -1.1246  1.2668  0.2316
  713TIP3   OH2 2102   6.756   3.864   1.784  0.2445 -0.0142 -0.1793
  713TIP3    H1 2103   6.802   3.946   1.768  1.4172 -0.1994  1.9899
  713TIP3    H2 2104   6.808   3.797   1.739  2.0155 -0.1682  1.9334
  714TIP3   OH2 2105   3.577   3.371   1.473 -0.0711  0.0277 -0.3232
  714TIP3    H1 2106   3.518   3.363   1.398  0.9552 -1.5574 -1.0004
  714TIP3    H2 2107   3.664   3.379   1.434  0.5892 -1.8226  0.6679
  715TIP3   OH2 2108   5.233   0.098   2.754 -0.0369  0.5864  0.2765
  715TIP3    H1 2109   5.268   0.016   2.789 -0.7752  0.0782 -0.1641
  715TIP3    H2 2110   5.304   0.161   2.766  0.7045 -0.2188  0.2169
  716TIP3   OH2 2111   2.923   1.957   0.417 -0.3039 -0.0497  0.1026
  716TIP3    H1 2112   2.828   1.955   0.418 -0.3639 -1.1455 -2.0794
  716TIP3    H2 2113   2.946   1.978   0.327  1.5145 -1.6149  0.1394
  717TIP3   OH2 2114   6.205   1.880   4.485 -0.4190  0.0770 -0.0793
  717TIP3    H1 2115   6.218   1.864   4.391 -1.6764 -1.3892 -0.0432
  717TIP3    H2 2116   6.263   1.818   4.528  0.0915  0.6888  0.1194
  718TIP3   OH2 2117   5.320   2.742   5.160  0.1219  0.2184  0.5535
  718TIP3    H1 2118   5.290   2.810   5.100  1.9074 -1.0570 -1.9975
  718TIP3    H2 2119   5.241   2.693   5.183 -0.5266 -0.1048 -2.0185
  719TIP3   OH2 2120   1.793   1.708   1.459 -0.4941 -0.1752 -0.5330
  719TIP3    H1 2121   1.852   1.637   1.433 -0.0688  0.3135 -0.9216
  719TIP3    H2 2122   1.802   1.773   1.389  1.5696  1.7237  1.3245
  720TIP3   OH2 2123   0.586   1.710   5.054 -0.1458 -0.2034  0.1591
  720TIP3    H1 2124   0.622   1.663   4.979 -0.9750  0.5514 -0.7523
  720TIP3    H2 2125   0.661   1.756   5.092  0.3536 -0.9032  0.0355
  721TIP3   OH2 2126   1.139   6.273   1.937  0.2391 -0.1984 -0.4311
  721TIP3    H1 2127   1.044   6.278   1.927  0.2657 -0.9290 -1.1909
  721TIP3    H2 2128   1.172   6.353   1.897 -0.1352  0.8473  1.2899
  722TIP3   OH2 2129   0.097   1.731   1.024 -0.0041  0.3772  0.2657
  722TIP3    H1 2130   0.182   1.741   0.981  0.1846  0.3444  0.6277
  722TIP3    H2 2131   0.046   1.676   0.964  0.8274 -1.1208  0.8612
  723TIP3   OH2 2132   5.033   4.346   0.963 -0.2797 -0.2127 -0.0814
  723TIP3    H1 2133   4.953   4.344   1.017  0.6828  1.1684  1.5020
  723TIP3    H2 2134   5.039   4.258   0.926 -1.7596 -0.7870  0.9346
  724TIP3   OH2 2135   3.911   1.165   3.422 -0.3283  0.2518  0.2036
  724TIP3    H1 2136   3.932   1.152   3.330 -1.1825  0.5599 -0.0411
  724TIP3    H2 2137   3.817   1.152   3.428 -0.0984 -1.1263  1.2805
  725TIP3   OH2 2138   6.012   6.069   0.758  0.2254 -0.1744  0.3118
  725TIP3    H1 2139   6.000   6.029   0.844 -0.5945  1.1866  0.8558
  725TIP3    H2 2140   6.047   5.998   0.704 -0.7616 -1.5148  1.3433
  726TIP3   OH2 2141   0.889   3.683   2.202 -0.1528  0.0197 -0.6867
  726TIP3    H1 2142   0.856   3.601   2.164 -0.3273 -0.0376 -0.4165
  726TIP3    H2 2143   0.985   3.676   2.194  0.1226 -1.8764  2.5737
  727TIP3   OH2 2144   1.692   3.317   2.749 -0.2637  0.0199  0.7318
  727TIP3    H1 2145   1.735   3.277   2.672 -0.4690 -1.2471  1.2411
  727TIP3    H2 2146   1.736   3.400   2.760 -0.7544  0.6102 -1.2350
  728TIP3   OH2 2147   1.014   1.594   2.666  0.5320  0.2830 -0.1597
  728TIP3    H1 2148   0.998   1.546   2.585 -0.2826 -0.8664  0.6612
  728TIP3    H2 2149   0.930   1.591   2.712  0.5613  2.1782  0.1019
  729TIP3   OH2 2150   6.039   3.094   4.653 -0.3359  0.3586  0.5658
  729TIP3    H1 2151   5.952   3.088   4.613 -1.2405  0.2947  2.3869
  729TIP3    H2 2152   6.066   3.184   4.637 -0.8960  0.4770  0.2542
  730TIP3   OH2 2153   1.074   4.064   3.215  0.5734  0.5888  0.0309
  730TIP3    H1 2154   1.007   4.126   3.242 -0.7257 -0.2189 -1.1422
  730TIP3    H2 2155   1.099   4.093   3.127  1.0590  0.3261  0.0806
  731TIP3   OH2 2156   3.475   3.041   3.612 -0.1393 -0.0390 -0.2038
  731TIP3    H1 2157   3.443   2.981   3.544  0.1302  0.5900 -0.8942
  731TIP3    H2 2158   3.409   3.110   3.618 -1.2561 -1.1649  1.7012
  732TIP3   OH2 2159   4.867   6.337   1.804  0.1952 -0.1417 -0.0671
  732TIP3    H1 2160   4.905   6.316   1.719  1.0282 -1.6513  0.6415
  732TIP3    H2 2161   4.784   6.380   1.783 -0.3123 -1.7660 -1.6510
  733TIP3   OH2 2162   5.753   1.641   2.889 -0.5113  0.0524 -0.2140
  733TIP3    H1 2163   5.828   1.586   2.914 -0.0264  1.2094  0.9872
  733TIP3    H2 2164   5.676   1.586   2.909 -0.0122 -0.8952 -0.8362
  734TIP3   OH2 2165   2.381   1.149   5.300 -0.2969  0.2347 -0.2377
  734TIP3    H1 2166   2.425   1.169   5.383 -0.0569 -0.3718 -0.2142
  734TIP3    H2 2167   2.393   1.055   5.289 -0.6385  0.2540 -0.7858
  735TIP3   OH2 2168   7.146   2.118   4.639 -0.2721 -0.3978 -0.1839
  735TIP3    H1 2169   7.147   2.023   4.629 -2.6653 -0.8439  2.4927
  735TIP3    H2 2170   7.158   2.133   4.733  1.2695  2.0582 -0.6777
  736TIP3   OH2 2171   3.873   0.810   0.393  0.0325  0.2567  0.4641
  736TIP3    H1 2172   3.830   0.724   0.393  1.1345 -0.3190 -0.0948
  736TIP3    H2 2173   3.819   0.863   0.334 -0.3531 -0.2208  0.3749
  737TIP3   OH2 2174   0.987   2.939   5.154 -0.6199 -0.7112 -0.0615
  737TIP3    H1 2175   1.035   2.869   5.110 -0.5307 -0.0112 -1.1344
  737TIP3    H2 2176   1.010   2.931   5.246  3.6748  1.1313 -0.7285
  738TIP3   OH2 2177   5.673   5.629   5.387 -0.1797 -0.2796 -0.2367
  738TIP3    H1 2178   5.600   5.684   5.414 -0.3700 -0.9845  0.7218
  738TIP3    H2 2179   5.751   5.678   5.412 -0.3248  0.1612 -0.6307
  739TIP3   OH2 2180   4.787   2.333   2.793 -0.5663  0.1320 -0.4934
  739TIP3    H1 2181   4.837   2.364   2.718  0.9743  1.2014  0.8869
  739TIP3    H2 2182   4.717   2.399   2.804 -1.3552 -0.5177 -1.4941
  740TIP3   OH2 2183   6.183   4.004   5.121 -0.2008 -0.5433 -0.2137
  740TIP3    H1 2184   6.257   3.981   5.065 -0.7606 -1.5969 -0.5638
  740TIP3    H2 2185   6.174   4.099   5.112  1.3376 -0.3501  0.1497
  741TIP3   OH2 2186   0.342   3.585   3.238 -0.0151  0.2586  0.5380
  741TIP3    H1 2187   0.384   3.507   3.202 -1.2167 -0.2639  0.2396
  741TIP3    H2 2188   0.321   3.562   3.329 -0.5710  0.1620  0.3834
  742TIP3   OH2 2189   3.078   3.825   0.183  0.0883 -0.7715 -0.3254
  742TIP3    H1 2190   3.174   3.823   0.187  0.1527 -1.5680 -1.5640
  742TIP3    H2 2191   3.059   3.895   0.121 -0.0526 -1.6174 -1.2634
  743TIP3   OH2 2192   3.124   1.355   1.957  0.3308 -0.7993  0.0530
  743TIP3    H1 2193   3.168   1.436   1.931 -1.6859  0.7766  1.2491
  743TIP3    H2 2194   3.061   1.339   1.886 -2.4950  1.3823  1.8278
  744TIP3   OH2 2195   4.786   1.890   5.561  0.7486 -0.1572 -0.5200
  744TIP3    H1 2196   4.861   1.831   5.568  0.6278 -0.1823  0.7715
  744TIP3    H2 2197   4.809   1.965   5.616  0.0961  0.1235 -0.6235
  745TIP3   OH2 2198   4.481   0.062   3.534  0.4240 -0.7399 -0.4916
  745TIP3    H1 2199   4.554   0.046   3.475  0.5082 -0.4333 -0.4717
  745TIP3    H2 2200   4.497   0.149   3.569 -0.3405 -0.3553 -1.0572
  746TIP3   OH2 2201   5.016   4.492   5.767 -0.6720 -0.2129  0.1812
  746TIP3    H1 2202   5.005   4.401   5.740 -1.0156  0.2601 -1.3451
  746TIP3    H2 2203   5.042   4.486   5.859 -1.5917 -1.8111  0.3728
  747TIP3   OH2 2204   1.755   4.498   2.113  0.2555 -0.5953  0.8982
  747TIP3    H1 2205   1.837   4.546   2.127 -0.0434 -0.0088  0.7080
  747TIP3    H2 2206   1.721   4.483   2.201 -1.4377  2.7603  0.9798
  748TIP3   OH2 2207   0.701   1.186   0.112  0.8120  0.2597 -0.0433
  748TIP3    H1 2208   0.652   1.203   0.193 -0.3367 -1.7273 -0.2641
  748TIP3    H2 2209   0.736   1.098   0.123 -0.0440 -0.3755 -1.9921
  749TIP3   OH2 2210   1.438   3.822   4.644 -0.0370 -0.1137  0.7030
  749TIP3    H1 2211   1.516   3.766   4.645 -0.9162 -1.4314 -0.4169
  749TIP3    H2 2212   1.405   3.817   4.733 -0.3827 -1.8489  0.5091
  750TIP3   OH2 2213   5.130   2.835   3.759 -0.0345  0.2727  0.3173
  750TIP3    H1 2214   5.213   2.789   3.771 -0.5309 -0.4021  1.2904
  750TIP3    H2 2215   5.087   2.787   3.688 -0.3744 -0.5447  1.0546
  751TIP3   OH2 2216   3.601   2.301   4.195 -0.6528 -0.6503  0.4208
  751TIP3    H1 2217   3.604   2.333   4.285 -1.1407 -0.5775  0.4111
  751TIP3    H2 2218   3.515   2.260   4.187 -0.4677 -0.9768  0.0960
  752TIP3   OH2 2219   3.501   0.155   4.912 -0.3179  0.4118  0.0732
  752TIP3    H1 2220   3.486   0.060   4.918 -0.1910  0.4720  2.5858
  752TIP3    H2 2221   3.557   0.174   4.988  0.6670  2.3403 -1.0743
  753TIP3   OH2 2222   4.713   5.276   1.698  0.8204 -0.0175  0.5433
  753TIP3    H1 2223   4.640   5.245   1.645 -0.2352 -0.6486  2.2972
  753TIP3    H2 2224   4.782   5.295   1.635 -0.5014 -0.3780 -1.0707
  754TIP3   OH2 2225   4.607   4.442   1.217  0.2979  0.2708  0.9046
  754TIP3    H1 2226   4.581   4.395   1.296  0.1990  0.2521  0.8618
  754TIP3    H2 2227   4.533   4.499   1.198  0.8721  1.2587  1.5788
  755TIP3   OH2 2228   4.572   1.236   0.148  0.0473  0.0832  0.6291
  755TIP3    H1 2229   4.626   1.245   0.070 -0.4628  2.3069  0.4717
  755TIP3    H2 2230   4.635   1.232   0.220  0.4718  0.7993  0.3061
  756TIP3   OH2 2231   5.774   5.885   3.425  0.2154  0.0789  0.1195
  756TIP3    H1 2232   5.683   5.854   3.430 -0.2351  1.5193  2.3936
  756TIP3    H2 2233   5.809   5.843   3.346 -2.5246 -0.1902 -1.0882
  757TIP3   OH2 2234   4.401   0.352   5.267  0.6920 -0.6266 -0.4522
  757TIP3    H1 2235   4.422   0.301   5.345 -1.6501 -0.9160  0.0619
  757TIP3    H2 2236   4.456   0.430   5.273  1.6896 -1.3957  0.6458
  758TIP3   OH2 2237   4.415   2.975   1.919 -0.2277 -0.0228  0.3767
  758TIP3    H1 2238   4.470   2.939   1.850  0.4196 -1.2408  1.4854
  758TIP3    H2 2239   4.423   2.913   1.991 -1.9237  0.5375  1.0948
  759TIP3   OH2 2240   4.645   4.547   5.437 -0.0126 -0.2367  0.3376
  759TIP3    H1 2241   4.722   4.498   5.408 -0.0110  0.4997 -0.9925
  759TIP3    H2 2242   4.636   4.524   5.530  0.9775 -1.4089  0.1786
  760TIP3   OH2 2243   3.644   1.365   0.540  1.0102 -0.0753 -0.3279
  760TIP3    H1 2244   3.606   1.330   0.459 -1.0637 -1.0322  0.9720
  760TIP3    H2 2245   3.645   1.460   0.527  0.0495 -0.1687 -1.2209
  761TIP3   OH2 2246   4.753   4.984   3.776  1.0568 -0.1071  0.1629
  761TIP3    H1 2247   4.806   4.905   3.764 -1.3534 -1.6568 -1.2095
  761TIP3    H2 2248   4.680   4.955   3.832 -0.5647  0.7498 -1.4196
  762TIP3   OH2 2249   6.895   5.065   1.380  0.4738  0.1259  0.0672
  762TIP3    H1 2250   6.832   5.087   1.448  0.3627  1.2376 -0.3751
  762TIP3    H2 2251   6.955   5.139   1.378  0.1270  0.3983 -1.4345
  763TIP3   OH2 2252   4.759   5.003   4.283  0.2244  0.2693 -0.0272
  763TIP3    H1 2253   4.774   4.908   4.291  1.1604  0.4291  0.2738
  763TIP3    H2 2254   4.714   5.027   4.364 -0.3406  0.0276 -0.2648
  764TIP3   OH2 2255   2.336   5.780   4.536  0.2752  0.6158  0.4973
  764TIP3    H1 2256   2.394   5.724   4.589  0.3905 -0.1311 -0.3927
  764TIP3    H2 2257   2.383   5.864   4.531  0.5813  0.4815  1.0071
  765TIP3   OH2 2258   6.446   0.497   4.107 -0.2794  0.0682  0.0668
  765TIP3    H1 2259   6.483   0.415   4.140  0.0521  0.2579  0.1705
  765TIP3    H2 2260   6.477   0.503   4.017  0.5552  0.5891  0.3806
  766TIP3   OH2 2261   0.875   2.314   5.387 -0.4231 -0.1792 -0.8242
  766TIP3    H1 2262   0.873   2.306   5.482  0.5343 -0.5888 -0.8220
  766TIP3    H2 2263   0.826   2.394   5.368 -1.4239 -0.5998 -0.0626
  767TIP3   OH2 2264   1.510   6.649   1.993  0.0906  0.0576  0.3292
  767TIP3    H1 2265   1.523   6.556   1.976 -2.2441 -0.3691  0.5503
  767TIP3    H2 2266   1.595   6.689   1.975  1.1475 -2.1053  0.2546
  768TIP3   OH2 2267   1.937   0.303   1.398 -0.1200 -0.3399 -0.1380
  768TIP3    H1 2268   1.900   0.268   1.317  2.2264 -2.9921 -0.2462
  768TIP3    H2 2269   1.871   0.286   1.465 -1.9657  1.6120 -1.3340
  769TIP3   OH2 2270   1.870   4.803   4.647 -0.2710  1.0444  0.3626
  769TIP3    H1 2271   1.958   4.841   4.642 -0.4207  1.2776 -0.6497
  769TIP3    H2 2272   1.855   4.766   4.561 -1.3489  1.3945  0.3852
  770TIP3   OH2 2273   2.024   6.544   2.927  0.4871 -0.0742 -0.7475
  770TIP3    H1 2274   1.997   6.489   3.001 -0.3473 -0.5750 -1.3995
  770TIP3    H2 2275   1.985   6.501   2.851 -0.6256  1.7007 -1.2305
  771TIP3   OH2 2276   5.402   0.869   2.953  0.0271 -0.0228 -0.6713
  771TIP3    H1 2277   5.338   0.892   3.021  1.3657 -3.1001  1.9357
  771TIP3    H2 2278   5.351   0.819   2.889 -0.5553 -1.0635  0.5447
  772TIP3   OH2 2279   6.532   0.653   4.333 -0.0301 -0.2342  0.0538
  772TIP3    H1 2280   6.473   0.606   4.393 -2.0149  1.4535 -0.4582
  772TIP3    H2 2281   6.527   0.605   4.251  1.5692 -1.7091  0.7503
  773TIP3   OH2 2282   0.283   5.738   2.152 -0.0553 -0.7346  0.6727
  773TIP3    H1 2283   0.299   5.650   2.186 -3.1031 -0.8533  2.1157
  773TIP3    H2 2284   0.196   5.733   2.112  0.5223  1.1809 -1.0035
  774TIP3   OH2 2285   3.339   5.723   0.982  0.1683 -0.5750 -0.1022
  774TIP3    H1 2286   3.412   5.758   0.932  0.1610 -1.1173 -0.4937
  774TIP3    H2 2287   3.369   5.725   1.073  1.1122 -1.8701 -0.3687
  775TIP3   OH2 2288   0.918   0.668   0.890  0.6365 -0.2618  0.2140
  775TIP3    H1 2289   0.980   0.599   0.916 -0.6503 -0.6934  2.3829
  775TIP3    H2 2290   0.973   0.735   0.850  2.4233 -0.9525  1.3872
  776TIP3   OH2 2291   5.015   1.836   5.328 -0.2562 -0.5281 -0.1022
  776TIP3    H1 2292   5.105   1.843   5.296  0.1584 -0.6262  0.9858
  776TIP3    H2 2293   4.993   1.923   5.359 -1.2633 -0.0106 -2.1342
  777TIP3   OH2 2294   0.587   5.300   1.734 -0.4416  0.3551  0.3142
  777TIP3    H1 2295   0.588   5.396   1.730  0.6179  0.3211 -0.8386
  777TIP3    H2 2296   0.679   5.275   1.723 -0.8306 -0.8131 -0.4390
  778TIP3   OH2 2297   4.314   0.265   1.932  0.0545  0.4023  0.2201
  778TIP3    H1 2298   4.248   0.281   1.999 -0.3058 -1.5256  0.3898
  778TIP3    H2 2299   4.336   0.172   1.941  0.1372  0.1195 -2.1892
  779TIP3   OH2 2300   2.216   3.850   4.339  0.7224  0.1560 -0.1116
  779TIP3    H1 2301   2.251   3.767   4.305  0.6226  0.5933 -1.3183
  779TIP3    H2 2302   2.145   3.823   4.397  2.1098 -0.6906  1.2929
  780TIP3   OH2 2303   1.913   1.939   0.967  0.1098 -0.4742  0.6918
  780TIP3    H1 2304   2.001   1.973   0.951  0.6631 -2.0205  0.2815
  780TIP3    H2 2305   1.856   1.989   0.908  1.2085 -1.7344 -1.5398
  781TIP3   OH2 2306   6.143   2.102   4.739  0.3946 -0.0313  0.1646
  781TIP3    H1 2307   6.108   2.015   4.756 -1.0007  0.2700 -0.9583
  781TIP3    H2 2308   6.235   2.088   4.717  0.2847 -1.1684  0.4026
  782TIP3   OH2 2309   0.419   3.956   0.077  0.6551 -0.0867 -0.8119
  782TIP3    H1 2310   0.501   3.907   0.076  0.1386 -0.9921 -2.7002
  782TIP3    H2 2311   0.432   4.026   0.013  0.1135  0.0342 -0.7927
  783TIP3   OH2 2312   2.121   4.753   0.481  0.6959 -0.1614  0.5762
  783TIP3    H1 2313   2.120   4.703   0.562  0.3244  1.1830  1.4232
  783TIP3    H2 2314   2.172   4.831   0.501 -1.5584  1.4596  0.3420
  784TIP3   OH2 2315   4.582   4.900   4.759 -0.2717  0.4702 -0.1676
  784TIP3    H1 2316   4.646   4.889   4.689 -0.1202  0.0749  0.0318
  784TIP3    H2 2317   4.629   4.949   4.827  0.0645 -0.4583  0.2911
  785TIP3   OH2 2318   5.618   4.757   5.803 -0.3393 -0.2955  0.0953
  785TIP3    H1 2319   5.611   4.851   5.817 -1.7181 -0.5137  1.0543
  785TIP3    H2 2320   5.713   4.740   5.797  0.0353  0.8467  2.0841
  786TIP3   OH2 2321   3.978   6.185   4.404 -0.2919  0.5511  0.7187
  786TIP3    H1 2322   3.965   6.263   4.351 -0.7031  0.9218  1.3620
  786TIP3    H2 2323   4.068   6.193   4.437 -1.0279  1.8264  2.5109
  787TIP3   OH2 2324   6.937   0.764   5.265  0.2153  0.1473  0.2569
  787TIP3    H1 2325   6.878   0.688   5.259  0.6163 -0.1374 -0.1076
  787TIP3    H2 2326   7.012   0.740   5.211  0.4808  0.6830  0.3880
  788TIP3   OH2 2327   3.932   4.874   5.671 -0.2436  0.8568  0.0631
  788TIP3    H1 2328   3.883   4.951   5.642  0.7208  1.7638  0.7737
  788TIP3    H2 2329   4.010   4.910   5.713 -0.4138 -0.4588  1.6020
  789TIP3   OH2 2330   6.958   2.549   2.543  0.0090 -0.2566 -0.3230
  789TIP3    H1 2331   6.979   2.604   2.467  0.7850  1.0967  0.8207
  789TIP3    H2 2332   7.025   2.571   2.607 -1.2712 -0.5414  1.1585
  790TIP3   OH2 2333   3.022   1.966   1.146  0.3853 -0.2099 -0.3135
  790TIP3    H1 2334   2.966   1.914   1.087 -0.0066  1.0788 -1.1352
  790TIP3    H2 2335   3.102   1.980   1.096  0.1796  0.6116 -0.4312
  791TIP3   OH2 2336   7.188   4.452   4.510 -0.0659  0.1445  0.0821
  791TIP3    H1 2337   7.106   4.485   4.474  0.8584  2.6522  0.0888
  791TIP3    H2 2338   7.251   4.461   4.438  0.3551 -1.2940  0.2321
  792TIP3   OH2 2339   0.426   1.824   5.607  0.3622 -0.2562 -0.1973
  792TIP3    H1 2340   0.446   1.730   5.611 -1.7479 -0.8065 -1.2459
  792TIP3    H2 2341   0.396   1.846   5.695 -1.8101 -1.2865 -0.6177
  793TIP3   OH2 2342   0.555   5.280   2.842 -0.0847 -0.2537  0.0600
  793TIP3    H1 2343   0.531   5.199   2.887  0.0715  0.9250  2.3821
  793TIP3    H2 2344   0.473   5.329   2.836  0.3642  0.7386  1.5596
  794TIP3   OH2 2345   5.556   4.089   5.038 -0.2309  0.1948 -0.1355
  794TIP3    H1 2346   5.543   4.161   5.101  0.2217  0.9967 -0.9332
  794TIP3    H2 2347   5.580   4.133   4.957  1.7093 -0.9085 -0.2215
  795TIP3   OH2 2348   0.700   1.036   3.030 -0.5557  0.1503 -0.3162
  795TIP3    H1 2349   0.766   0.967   3.032  0.2869  0.8911 -1.0151
  795TIP3    H2 2350   0.672   1.039   2.938 -0.1781  1.0739 -0.4149
  796TIP3   OH2 2351   0.302   6.422   4.337 -0.8681 -0.1971  0.2294
  796TIP3    H1 2352   0.245   6.461   4.404 -1.3981 -1.6260  0.6388
  796TIP3    H2 2353   0.249   6.421   4.258 -1.2142 -0.9808  0.4645
  797TIP3   OH2 2354   5.538   0.452   0.766  0.1126  0.2442 -0.0714
  797TIP3    H1 2355   5.586   0.535   0.769 -0.9669  0.8604  0.9727
  797TIP3    H2 2356   5.545   0.416   0.854 -2.1601  0.8605  0.4215
  798TIP3   OH2 2357   3.625   4.754   4.143 -0.1563  0.0176  0.2017
  798TIP3    H1 2358   3.706   4.703   4.146 -0.2498 -0.1382  0.0618
  798TIP3    H2 2359   3.559   4.698   4.184 -0.3997 -0.2313 -0.5177
  799TIP3   OH2 2360   2.646   3.098   4.341  0.4110  0.7173  0.0213
  799TIP3    H1 2361   2.577   3.067   4.399 -0.3079  1.9264 -0.1496
  799TIP3    H2 2362   2.699   3.020   4.323 -0.7046 -0.1683  0.4286
  800TIP3   OH2 2363   1.330   2.422   1.170 -0.0874 -0.4278 -0.2773
  800TIP3    H1 2364   1.250   2.440   1.121 -0.4130 -1.6360 -0.2171
  800TIP3    H2 2365   1.311   2.341   1.219  0.5363  0.2535  1.1545
  801TIP3   OH2 2366   2.863   5.077   1.201  0.2593  0.7548  0.0419
  801TIP3    H1 2367   2.921   5.088   1.276 -1.2062  1.1308  1.1497
  801TIP3    H2 2368   2.842   4.983   1.201 -0.7281  0.9686  0.8675
  802TIP3   OH2 2369   3.097   3.996   3.459 -0.2162  0.4044  0.0435
  802TIP3    H1 2370   3.048   4.069   3.422 -0.3611  0.1348 -0.2998
  802TIP3    H2 2371   3.179   4.034   3.489 -1.2499  1.1959  2.1072
  803TIP3   OH2 2372   2.776   6.341   5.386 -0.3484  0.0136 -0.2861
  803TIP3    H1 2373   2.706   6.286   5.421  0.4821 -1.5774 -1.0185
  803TIP3    H2 2374   2.836   6.354   5.458 -0.6622  0.1793 -0.0500
  804TIP3   OH2 2375   3.042   3.001   0.215 -0.2072 -0.1219  0.2358
  804TIP3    H1 2376   2.989   3.068   0.257 -0.3615  0.8651 -1.4313
  804TIP3    H2 2377   3.086   2.956   0.287  0.0831  1.9285  1.4163
  805TIP3   OH2 2378   1.943   3.437   5.416 -0.2394 -0.0118 -0.2721
  805TIP3    H1 2379   1.954   3.509   5.354  0.0419 -0.2623 -0.5195
  805TIP3    H2 2380   2.023   3.439   5.469 -0.7787  0.6283  0.5427
  806TIP3   OH2 2381   2.013   4.902   1.608 -0.2149  0.0896 -0.1168
  806TIP3    H1 2382   2.035   4.882   1.517 -3.1501 -0.0601 -0.9014
  806TIP3    H2 2383   2.078   4.856   1.660  1.2335 -0.2358 -2.1201
  807TIP3   OH2 2384   4.317   6.287   3.461 -0.1069  0.0701  0.1639
  807TIP3    H1 2385   4.247   6.235   3.502  0.6300 -0.3796  0.8650
  807TIP3    H2 2386   4.273   6.367   3.432 -0.7351  0.2401  1.4970
  808TIP3   OH2 2387   2.481   1.115   2.531 -0.0173 -0.5606 -0.2805
  808TIP3    H1 2388   2.419   1.189   2.528  0.1085 -0.3839  0.9803
  808TIP3    H2 2389   2.454   1.064   2.607 -0.5075 -2.2152 -1.4992
  809TIP3   OH2 2390   0.079   0.514   3.597 -0.7712 -0.7458 -0.6578
  809TIP3    H1 2391   0.069   0.522   3.692 -0.9529  0.5245 -0.7625
  809TIP3    H2 2392   0.004   0.562   3.561  1.0179  1.6682 -1.4407
  810TIP3   OH2 2393   5.078   3.728   0.353  0.2437  0.1253 -0.2670
  810TIP3    H1 2394   5.160   3.717   0.401  0.0708 -0.6059 -0.1236
  810TIP3    H2 2395   5.032   3.645   0.366 -0.8668  0.8065  0.3085
  811TIP3   OH2 2396   5.079   3.279   2.811  0.7648 -0.3579  0.2248
  811TIP3    H1 2397   4.985   3.263   2.813  0.8426 -1.2246 -1.0954
  811TIP3    H2 2398   5.105   3.284   2.903 -0.6808  0.7357  0.6166
  812TIP3   OH2 2399   4.160   2.480   2.014 -0.0676 -0.0198  0.4225
  812TIP3    H1 2400   4.198   2.431   2.087 -1.7510  0.8471  1.9473
  812TIP3    H2 2401   4.071   2.446   2.006 -0.3222  0.8007 -0.3821
  813TIP3   OH2 2402   1.348   0.835   3.776 -0.1291  0.1849  0.5030
  813TIP3    H1 2403   1.440   0.806   3.774  0.2175  1.2481 -0.0091
  813TIP3    H2 2404   1.347   0.907   3.839 -0.5444  0.3754  0.2853
  814TIP3   OH2 2405   5.824   4.371   1.878 -0.4510 -0.8928 -0.0367
  814TIP3    H1 2406   5.899   4.331   1.834 -0.1778 -1.2518  0.7326
  814TIP3    H2 2407   5.821   4.329   1.964 -1.5236 -0.8650 -0.0455
  815TIP3   OH2 2408   0.169   2.681   5.104 -0.3392  0.2227  0.0718
  815TIP3    H1 2409   0.103   2.615   5.084  0.9679 -1.1364  0.0530
  815TIP3    H2 2410   0.251   2.643   5.071  0.3894  2.0754 -0.3836
  816TIP3   OH2 2411   6.241   0.808   0.617 -0.3047  0.1779  0.2118
  816TIP3    H1 2412   6.205   0.782   0.532 -0.6934  0.9996  0.1125
  816TIP3    H2 2413   6.168   0.798   0.678  0.3144 -1.6645  0.7347
  817TIP3   OH2 2414   5.266   6.071   3.940 -0.5209 -0.5243 -0.0045
  817TIP3    H1 2415   5.310   6.054   3.857  0.3700  0.7484  0.1791
  817TIP3    H2 2416   5.330   6.120   3.992 -2.1933  1.6758  0.1663
  818TIP3   OH2 2417   2.875   4.942   0.823 -0.2819  0.0237 -0.4501
  818TIP3    H1 2418   2.842   5.031   0.813  1.1228  0.3327 -3.3228
  818TIP3    H2 2419   2.955   4.951   0.875 -0.2459  0.4292 -0.5734
  819TIP3   OH2 2420   7.096   6.087   3.648 -0.2280  0.1337 -0.5628
  819TIP3    H1 2421   7.112   6.140   3.569 -2.1653 -0.6142 -1.5014
  819TIP3    H2 2422   7.029   6.024   3.622 -2.7191  1.3695  2.3143
  820TIP3   OH2 2423   1.411   3.905   0.296 -0.2420  0.0320 -0.0304
  820TIP3    H1 2424   1.388   3.941   0.382 -0.2181  0.1117 -0.0569
  820TIP3    H2 2425   1.335   3.854   0.269  0.5563 -1.8252  1.0144
  821TIP3   OH2 2426   2.492   1.461   2.419  0.0141  0.1504 -0.2448
  821TIP3    H1 2427   2.406   1.472   2.460  0.1099  0.8091 -0.2097
  821TIP3    H2 2428   2.517   1.549   2.391  1.4772  0.3056  1.3659
  822TIP3   OH2 2429   2.654   4.961   0.258  0.3779  0.1066 -0.3695
  822TIP3    H1 2430   2.638   4.924   0.345 -0.1022 -1.2747 -1.0121
  822TIP3    H2 2431   2.571   4.951   0.212  0.4206  1.4628 -0.7797
  823TIP3   OH2 2432   0.799   5.445   3.286  0.0515 -0.2780 -0.2147
  823TIP3    H1 2433   0.758   5.531   3.298 -0.2122 -0.6482  2.1010
  823TIP3    H2 2434   0.727   5.389   3.256 -0.5198 -0.2817  1.0576
  824TIP3   OH2 2435   2.494   5.254   2.639 -0.3480 -0.0519  0.6206
  824TIP3    H1 2436   2.573   5.243   2.585  0.1738  0.4937  1.2641
  824TIP3    H2 2437   2.486   5.172   2.687 -0.1785 -0.1101  0.5503
  825TIP3   OH2 2438   6.338   6.316   1.309 -0.3901  0.5113  0.1962
  825TIP3    H1 2439   6.325   6.402   1.269 -1.8381 -0.2007 -0.9553
  825TIP3    H2 2440   6.410   6.329   1.371 -0.1349  2.3831 -0.4322
  826TIP3   OH2 2441   6.919   6.777   2.407  0.4723  0.5236 -0.0681
  826TIP3    H1 2442   6.949   6.752   2.319  0.1818  0.4100 -0.1373
  826TIP3    H2 2443   6.877   6.697   2.440  1.4768  0.2508  0.5718
  827TIP3   OH2 2444   4.536   4.898   1.007 -0.5033 -0.3837  0.2363
  827TIP3    H1 2445   4.523   4.979   1.057 -0.4951  1.4274 -2.5100
  827TIP3    H2 2446   4.449   4.877   0.973 -0.5407 -1.6983  1.0603
  828TIP3   OH2 2447   2.136   6.370   0.970 -0.0522 -0.2503  0.5349
  828TIP3    H1 2448   2.128   6.418   0.888  2.1302  2.1028  1.5268
  828TIP3    H2 2449   2.115   6.435   1.038  1.8397 -0.9615  1.9064
  829TIP3   OH2 2450   5.580   2.790   2.137  0.1483  0.5254  0.1315
  829TIP3    H1 2451   5.613   2.758   2.221 -0.5839  1.4352  0.7875
  829TIP3    H2 2452   5.637   2.750   2.072  0.7713 -0.1464  1.0664
  830TIP3   OH2 2453   1.905   1.483   1.082 -0.1325 -0.0044  0.2085
  830TIP3    H1 2454   1.926   1.413   1.021  1.0750 -0.6881  1.3388
  830TIP3    H2 2455   1.987   1.533   1.090  0.6552 -1.5086  3.2087
  831TIP3   OH2 2456   4.121   1.410   4.218  0.3063 -0.2088 -0.3746
  831TIP3    H1 2457   4.211   1.389   4.241  0.6829  0.7311 -0.9535
  831TIP3    H2 2458   4.114   1.504   4.231 -0.7478 -0.3414  0.1647
  832TIP3   OH2 2459   5.283   4.787   1.882  0.0491  0.3004  0.1098
  832TIP3    H1 2460   5.277   4.718   1.947 -1.6108 -0.2635 -0.5913
  832TIP3    H2 2461   5.272   4.868   1.931  0.4520 -0.0082  0.7237
  833TIP3   OH2 2462   6.401   3.992   4.945  0.2345  0.1238 -0.2076
  833TIP3    H1 2463   6.414   3.971   4.852 -0.0697 -1.8262  0.1353
  833TIP3    H2 2464   6.429   4.083   4.954  0.4679  0.2810 -2.1643
  834TIP3   OH2 2465   5.762   6.121   0.371 -0.3431 -0.8331 -0.1912
  834TIP3    H1 2466   5.709   6.041   0.371 -0.3999 -0.7950  0.0017
  834TIP3    H2 2467   5.766   6.146   0.279  0.1469 -1.3720 -0.3244
  835TIP3   OH2 2468   1.394   4.033   0.541 -0.0143 -0.4857  0.3751
  835TIP3    H1 2469   1.382   4.126   0.523  0.0098 -0.4447  0.5621
  835TIP3    H2 2470   1.482   4.027   0.577  1.4797 -1.0852 -3.0033
  836TIP3   OH2 2471   2.061   2.534   2.177  0.4406  0.1430  0.3604
  836TIP3    H1 2472   2.075   2.584   2.257  1.2848  1.4668 -0.5761
  836TIP3    H2 2473   2.115   2.578   2.111 -2.3887  0.8830 -1.6637
  837TIP3   OH2 2474   3.831   6.574   2.949  0.5009  0.8986 -0.0471
  837TIP3    H1 2475   3.769   6.532   2.890  0.6525  0.6351 -0.0211
  837TIP3    H2 2476   3.784   6.649   2.985 -0.4912 -0.3863  1.4495
  838TIP3   OH2 2477   5.456   0.538   1.268 -0.1540  0.0729 -0.1547
  838TIP3    H1 2478   5.485   0.594   1.339  0.9728 -0.7562  0.0658
  838TIP3    H2 2479   5.398   0.474   1.309  0.4934 -0.4035  0.0417
  839TIP3   OH2 2480   2.168   4.935   1.899 -0.4424  0.0317 -0.0579
  839TIP3    H1 2481   2.140   5.022   1.928 -0.7937 -0.0125 -0.2616
  839TIP3    H2 2482   2.250   4.919   1.947 -0.4182  0.4394  0.0399
  840TIP3   OH2 2483   4.870   1.064   0.748 -0.0535 -0.2343 -0.1957
  840TIP3    H1 2484   4.825   0.980   0.752  0.6339 -0.6353 -0.6731
  840TIP3    H2 2485   4.833   1.114   0.821 -2.2582 -0.0230 -1.3868
  841TIP3   OH2 2486   5.825   0.920   4.063 -0.1218  0.4936 -0.5185
  841TIP3    H1 2487   5.839   0.879   4.148  1.1648 -0.1712 -1.0278
  841TIP3    H2 2488   5.858   1.009   4.073 -1.8292  1.0862  0.2404
  842TIP3   OH2 2489   5.385   5.977   3.707 -0.5164 -0.3728 -0.7447
  842TIP3    H1 2490   5.462   6.020   3.669 -0.9916  0.5924 -0.6372
  842TIP3    H2 2491   5.327   5.961   3.632 -0.9726  0.5239 -0.5952
  843TIP3   OH2 2492   4.365   5.325   1.089 -0.4853 -0.1805  0.9959
  843TIP3    H1 2493   4.313   5.309   1.168 -0.8400 -0.4727  0.7059
  843TIP3    H2 2494   4.370   5.421   1.082 -0.8435 -0.1531  1.1170
  844TIP3   OH2 2495   4.045   3.117   4.619  0.9074 -0.1686 -0.0806
  844TIP3    H1 2496   4.090   3.122   4.703  0.9879 -0.3432 -0.1118
  844TIP3    H2 2497   4.114   3.125   4.554  0.7173  1.1157 -0.1442
  845TIP3   OH2 2498   6.969   6.171   1.548 -0.4324  0.0860 -0.3593
  845TIP3    H1 2499   7.011   6.195   1.631 -0.3668 -0.3611 -0.2627
  845TIP3    H2 2500   7.023   6.213   1.481  0.4872 -0.9253 -0.2636
  846TIP3   OH2 2501   1.415   2.541   3.914 -0.2573 -0.6772 -0.0605
  846TIP3    H1 2502   1.396   2.632   3.891  1.0958 -0.7271 -1.6340
  846TIP3    H2 2503   1.428   2.498   3.829  3.6631 -1.2599  0.6334
  847TIP3   OH2 2504   0.638   2.969   1.924  0.0923 -0.2315  0.1952
  847TIP3    H1 2505   0.667   2.886   1.963  0.2810 -0.0089  0.5364
  847TIP3    H2 2506   0.570   3.000   1.983  1.8440  1.1799  1.6007
  848TIP3   OH2 2507   6.350   1.363   2.940  0.0126  0.1356 -0.4838
  848TIP3    H1 2508   6.313   1.364   3.028 -0.3179  0.5053 -0.6255
  848TIP3    H2 2509   6.340   1.453   2.908 -1.0215 -0.2713 -1.3780
  849TIP3   OH2 2510   5.368   2.347   2.934  0.3095 -0.3683  0.3564
  849TIP3    H1 2511   5.437   2.410   2.915 -0.8239  0.6292 -0.6718
  849TIP3    H2 2512   5.312   2.349   2.856 -2.2013  0.6629  2.0570
  850TIP3   OH2 2513  -0.022   1.032   2.393  0.0273  0.1088 -0.1199
  850TIP3    H1 2514   0.071   1.020   2.409  0.2338  1.4608 -0.2051
  850TIP3    H2 2515  -0.046   0.959   2.336  1.0192 -0.2851 -0.0534
  851TIP3   OH2 2516   0.441   3.455   0.856 -0.0870 -0.3943 -0.5278
  851TIP3    H1 2517   0.433   3.465   0.951  0.3200 -1.1537 -0.4059
  851TIP3    H2 2518   0.524   3.497   0.834  0.4006 -1.2449 -0.3686
  852TIP3   OH2 2519   5.171   4.093   5.637 -0.5197  0.5815 -0.6323
  852TIP3    H1 2520   5.126   4.178   5.632 -3.1879 -0.7066 -0.1078
  852TIP3    H2 2521   5.216   4.085   5.553 -0.4545  2.3659 -0.8037
  853TIP3   OH2 2522   0.434   1.680   4.085  0.2360  0.0304 -0.3555
  853TIP3    H1 2523   0.354   1.661   4.135 -0.4678 -0.4312 -1.6100
  853TIP3    H2 2524   0.402   1.716   4.002  1.2000 -1.8647 -1.6406
  854TIP3   OH2 2525   6.719   0.928   2.721 -0.7502  0.2460  0.6818
  854TIP3    H1 2526   6.799   0.962   2.681 -0.8228  0.0892  0.3990
  854TIP3    H2 2527   6.704   0.984   2.797  0.3643 -0.5346  1.5128
  855TIP3   OH2 2528   6.362   5.472   0.863  0.1515  0.2180 -0.4763
  855TIP3    H1 2529   6.414   5.434   0.792  0.2426 -0.8518  0.1494
  855TIP3    H2 2530   6.410   5.551   0.887  1.3341 -0.5793 -0.1351
  856TIP3   OH2 2531   2.373   4.612   5.170  0.2979  0.4058  0.7869
  856TIP3    H1 2532   2.394   4.672   5.098 -1.2440  0.3638  0.2508
  856TIP3    H2 2533   2.304   4.656   5.218 -0.4350 -0.6541  0.7433
  857TIP3   OH2 2534   3.885   1.759   0.529  0.0884  0.1205 -0.3049
  857TIP3    H1 2535   3.834   1.836   0.505  0.0106 -0.2684 -1.4504
  857TIP3    H2 2536   3.902   1.714   0.446  1.4394 -0.2935  0.1653
  858TIP3   OH2 2537   1.497   2.394   0.555 -0.1530 -0.3664 -0.3703
  858TIP3    H1 2538   1.528   2.350   0.634  0.9121 -0.6765 -0.9424
  858TIP3    H2 2539   1.452   2.326   0.504 -0.9818 -0.1305  0.0237
  859TIP3   OH2 2540   1.859   5.332   4.102 -0.1694  0.3871  0.0644
  859TIP3    H1 2541   1.898   5.416   4.078 -1.2246  0.5169 -1.3032
  859TIP3    H2 2542   1.780   5.356   4.150  0.6124  0.1313  1.5398
  860TIP3   OH2 2543   5.620   3.467   5.863  0.1039 -0.0570 -0.1498
  860TIP3    H1 2544   5.695   3.423   5.824 -0.6244  1.5458 -3.8379
  860TIP3    H2 2545   5.544   3.419   5.830 -0.5458  0.8913 -0.0810
  861TIP3   OH2 2546   1.301   2.446   2.767 -0.0836  0.8331 -0.0838
  861TIP3    H1 2547   1.289   2.353   2.787  0.3929  0.7462 -0.1871
  861TIP3    H2 2548   1.295   2.451   2.672 -0.2378  0.9251 -0.0682
  862TIP3   OH2 2549   3.196   2.306   3.252 -0.0952  0.0828  0.1808
  862TIP3    H1 2550   3.127   2.295   3.317  0.9995  0.2193  1.4103
  862TIP3    H2 2551   3.275   2.274   3.295  0.5569 -0.4528 -1.3348
  863TIP3   OH2 2552   4.230   5.399   3.553  0.4740  0.3385 -0.9140
  863TIP3    H1 2553   4.192   5.376   3.468  0.0914  1.1900 -0.9851
  863TIP3    H2 2554   4.321   5.373   3.547  0.6013  0.9448 -1.8121
  864TIP3   OH2 2555   2.919   6.350   3.703  0.1291  0.8716 -0.8260
  864TIP3    H1 2556   2.828   6.381   3.698  0.0812  0.6915 -1.0560
  864TIP3    H2 2557   2.971   6.430   3.710 -0.1099  0.9524  0.2837
  865TIP3   OH2 2558   1.946   3.172   5.349  0.7567 -0.1637 -0.4130
  865TIP3    H1 2559   1.939   3.114   5.425  2.0745  0.1145 -0.0407
  865TIP3    H2 2560   1.959   3.259   5.387 -0.3034  0.2454 -0.9646
  866TIP3   OH2 2561   4.414   4.724   2.063 -0.6899 -0.2962  0.6474
  866TIP3    H1 2562   4.357   4.649   2.084  0.3678 -0.9466  1.2752
  866TIP3    H2 2563   4.495   4.684   2.032 -0.3730  0.6132  0.2925
  867TIP3   OH2 2564   2.381   3.333   1.554  0.1611  0.0117  0.1072
  867TIP3    H1 2565   2.463   3.317   1.508  0.1698 -0.6389  0.3511
  867TIP3    H2 2566   2.317   3.345   1.484  0.5809  1.2591 -0.1052
  868TIP3   OH2 2567   4.161   4.072   3.715 -0.2019 -0.3401  0.0046
  868TIP3    H1 2568   4.192   4.010   3.648  0.7356 -0.3084  0.4003
  868TIP3    H2 2569   4.227   4.141   3.716  0.9286 -1.3774  2.4270
  869TIP3   OH2 2570   3.603   3.742   2.459 -0.2216  0.0040  0.2000
  869TIP3    H1 2571   3.665   3.695   2.515  1.0190  0.6933 -0.5331
  869TIP3    H2 2572   3.517   3.711   2.486  0.2570  0.9006  3.0199
  870TIP3   OH2 2573   2.713   3.998   2.814 -0.2758  0.3373  0.0572
  870TIP3    H1 2574   2.617   3.993   2.816 -0.2750  0.2639 -0.0287
  870TIP3    H2 2575   2.736   4.056   2.886 -0.3511 -0.1195  0.4580
  871TIP3   OH2 2576   5.634   3.219   4.272  0.1669 -0.2300  0.1201
  871TIP3    H1 2577   5.688   3.169   4.211  0.5891 -0.1407  0.4223
  871TIP3    H2 2578   5.591   3.285   4.217  0.4049 -0.2642 -0.1091
  872TIP3   OH2 2579   3.368   6.147   3.661  0.3066  0.6305 -0.5427
  872TIP3    H1 2580   3.312   6.114   3.590  2.2406  0.5223 -2.0934
  872TIP3    H2 2581   3.443   6.088   3.662  1.1102  1.6251  0.5103
  873TIP3   OH2 2582   6.558   0.436   1.746 -0.3619  0.6854 -0.2820
  873TIP3    H1 2583   6.468   0.406   1.743 -0.3519  0.6615 -0.3370
  873TIP3    H2 2584   6.570   0.485   1.664  0.1484 -0.6537 -1.0344
  874TIP3   OH2 2585   3.097   0.853   4.432  0.3734 -0.0915 -0.2810
  874TIP3    H1 2586   3.089   0.894   4.518  0.2509 -0.2565 -0.2131
  874TIP3    H2 2587   3.053   0.769   4.441  1.0964 -0.4755 -0.2713
  875TIP3   OH2 2588   4.721   5.104   3.094  0.0479  0.6214 -0.0580
  875TIP3    H1 2589   4.777   5.037   3.054 -0.4101  0.8016 -1.0389
  875TIP3    H2 2590   4.646   5.112   3.034 -1.2708  0.0667  1.4387
  876TIP3   OH2 2591   5.348   3.824   5.441 -0.0596 -0.9177  0.0722
  876TIP3    H1 2592   5.338   3.774   5.359 -0.4332 -1.3176  0.3606
  876TIP3    H2 2593   5.296   3.776   5.505 -0.3612 -0.1953  0.3751
  877TIP3   OH2 2594   2.716   0.838   4.436 -0.5346 -0.5187  0.0877
  877TIP3    H1 2595   2.768   0.759   4.421  1.1671  0.7273 -0.8840
  877TIP3    H2 2596   2.639   0.827   4.380 -0.2670 -1.4356 -0.1191
  878TIP3   OH2 2597   5.691   1.550   4.051  0.1741 -0.4203  0.3292
  878TIP3    H1 2598   5.725   1.543   4.140 -0.7605  1.5150  0.9136
  878TIP3    H2 2599   5.605   1.507   4.055  0.3777 -0.8421  0.2009
  879TIP3   OH2 2600   4.730   6.055   0.328 -0.0882 -0.4985 -0.5166
  879TIP3    H1 2601   4.815   6.084   0.360 -0.7206  0.3082  0.5048
  879TIP3    H2 2602   4.716   6.105   0.248  0.3413 -0.5240 -0.6069
  880TIP3   OH2 2603   2.635   0.850   2.231 -0.1689 -0.0756 -0.4103
  880TIP3    H1 2604   2.596   0.825   2.315  2.0729  1.8466  1.3490
  880TIP3    H2 2605   2.590   0.930   2.206 -0.0200  0.0120 -0.4005
  881TIP3   OH2 2606   6.712   3.814   0.181  0.0145 -0.3496  0.1762
  881TIP3    H1 2607   6.681   3.741   0.234 -2.7311  1.6268  1.5906
  881TIP3    H2 2608   6.662   3.808   0.100  0.6951 -0.6996 -0.2258
  882TIP3   OH2 2609   1.976   1.960   2.982 -0.2929 -0.5131 -0.0558
  882TIP3    H1 2610   1.997   2.027   3.046 -2.6549  0.1487  0.1259
  882TIP3    H2 2611   1.949   2.009   2.904  1.0460 -1.3029 -1.0652
  883TIP3   OH2 2612   0.630   4.083   3.104 -0.0239 -0.0357 -0.0167
  883TIP3    H1 2613   0.585   4.118   3.181 -0.6416  0.1811 -0.4657
  883TIP3    H2 2614   0.584   4.002   3.084  0.6665 -0.5206  0.3298
  884TIP3   OH2 2615   1.217   1.341   3.480 -0.4695 -0.0173  0.1964
  884TIP3    H1 2616   1.191   1.366   3.568  0.4941  0.0533  0.4736
  884TIP3    H2 2617   1.301   1.384   3.467 -1.1139  0.8934 -1.1809
  885TIP3   OH2 2618   5.920   3.649   0.762  0.3915  0.4534 -0.0055
  885TIP3    H1 2619   5.827   3.667   0.754  0.6355  1.7192 -0.1734
  885TIP3    H2 2620   5.942   3.601   0.682 -0.1946 -0.2233  0.2375
  886TIP3   OH2 2621   4.277   5.346   5.855 -0.3005 -0.0363 -0.2118
  886TIP3    H1 2622   4.236   5.428   5.827 -0.0045  0.4408  0.6967
  886TIP3    H2 2623   4.204   5.295   5.891 -0.5786 -0.4111 -1.2701
  887TIP3   OH2 2624   6.612   3.733   5.024  0.2634 -0.0266  0.7634
  887TIP3    H1 2625   6.665   3.781   4.960  0.7782  0.8743  1.8180
  887TIP3    H2 2626   6.558   3.675   4.972  1.1759  0.1633 -0.4465
  888TIP3   OH2 2627   1.714   1.320   1.214  0.2450  0.1971 -0.6091
  888TIP3    H1 2628   1.790   1.367   1.180  0.7814  0.1260  0.4303
  888TIP3    H2 2629   1.734   1.306   1.307 -0.9531 -0.0057 -0.3598
  889TIP3   OH2 2630   2.748   4.258   1.631  0.1014 -0.3300  0.2330
  889TIP3    H1 2631   2.658   4.267   1.599 -0.2839  0.2460  1.4277
  889TIP3    H2 2632   2.738   4.233   1.723  1.1574  0.4229  0.5644
  890TIP3   OH2 2633   5.185   1.642   4.823  0.8204  0.4953 -0.6364
  890TIP3    H1 2634   5.215   1.641   4.914  1.3760 -0.0827 -0.8197
  890TIP3    H2 2635   5.262   1.670   4.772  0.3077  1.5525 -0.8654
  891TIP3   OH2 2636   6.749   2.943   4.110  0.5864 -0.0275  0.1499
  891TIP3    H1 2637   6.759   2.886   4.033  0.9481 -1.4884  1.2355
  891TIP3    H2 2638   6.838   2.954   4.142  0.4717  0.8642  0.1678
  892TIP3   OH2 2639   2.808   3.481   2.592  0.3642  0.2966 -0.7120
  892TIP3    H1 2640   2.877   3.500   2.528 -1.5969  1.8504 -2.5280
  892TIP3    H2 2641   2.754   3.561   2.593 -0.7005 -0.3780  1.5900
  893TIP3   OH2 2642   3.186   4.607   0.803 -0.3195 -0.7654 -0.3328
  893TIP3    H1 2643   3.277   4.578   0.803  0.0420  0.2241  1.5942
  893TIP3    H2 2644   3.140   4.540   0.752  1.1942 -2.1638  0.0326
  894TIP3   OH2 2645   0.045   0.725   1.379  0.0274  0.2644  0.8494
  894TIP3    H1 2646  -0.040   0.761   1.354 -0.2785 -0.5487  0.7069
  894TIP3    H2 2647   0.032   0.631   1.380  1.3265  0.0299 -0.7042
  895TIP3   OH2 2648   4.609   5.522   2.323 -0.3378  0.2919  0.0657
  895TIP3    H1 2649   4.615   5.494   2.232 -1.2857  0.3308 -0.0167
  895TIP3    H2 2650   4.578   5.613   2.318  0.6405  0.6575  0.3997
  896TIP3   OH2 2651   3.036   0.824   3.052  0.1976 -0.1124 -0.2090
  896TIP3    H1 2652   3.062   0.742   3.095  0.1664  0.7912  1.6510
  896TIP3    H2 2653   3.090   0.891   3.095 -2.4665  1.3310  1.1279
  897TIP3   OH2 2654   5.721   2.394   3.957  0.3730 -0.5329  0.4834
  897TIP3    H1 2655   5.645   2.367   4.008 -0.3348 -0.1093 -0.3338
  897TIP3    H2 2656   5.748   2.314   3.911 -0.5741 -0.3093 -0.4821
  898TIP3   OH2 2657   3.906   3.854   0.063  0.1285  0.1029  0.3428
  898TIP3    H1 2658   3.863   3.854   0.149  0.5450  0.4712  0.5501
  898TIP3    H2 2659   3.871   3.776   0.020  1.9231 -1.6351  1.8490
  899TIP3   OH2 2660   0.638   1.252   3.174  0.1533  0.6395  0.3896
  899TIP3    H1 2661   0.665   1.170   3.133 -1.2584 -0.0351  0.7184
  899TIP3    H2 2662   0.647   1.318   3.106 -2.2148 -0.4548 -1.1236
  900TIP3   OH2 2663   0.490   0.031   5.663 -0.6463 -0.3114 -0.6130
  900TIP3    H1 2664   0.508  -0.031   5.734 -0.0745 -0.5217 -0.9321
  900TIP3    H2 2665   0.519   0.115   5.697  0.1423 -0.5035 -0.7941
  901TIP3   OH2 2666   6.953   2.873   2.506  0.0317 -0.3540  0.2152
  901TIP3    H1 2667   6.949   2.814   2.430 -0.9660 -0.0945  0.0576
  901TIP3    H2 2668   6.865   2.871   2.543 -0.0330  1.0478  0.1945
  902TIP3   OH2 2669   5.980   5.882   5.215  0.1710 -0.5533  0.3970
  902TIP3    H1 2670   6.059   5.892   5.269 -0.0083 -1.1798  0.7855
  902TIP3    H2 2671   5.911   5.922   5.268  0.2774  0.3326 -0.1043
  903TIP3   OH2 2672   3.139   0.092   4.069 -0.0020  0.1912  0.0724
  903TIP3    H1 2673   3.177   0.144   3.998  4.2633 -0.9760  1.2103
  903TIP3    H2 2674   3.147   0.002   4.039  0.5379 -0.2272  1.4099
  904TIP3   OH2 2675   3.137   5.332   3.170 -0.0871 -0.2275  0.1827
  904TIP3    H1 2676   3.150   5.292   3.256  3.2479  0.8596  0.3503
  904TIP3    H2 2677   3.164   5.264   3.108 -2.5593 -1.0361 -0.0915
  905TIP3   OH2 2678   6.011   6.781   2.596  0.4405 -0.1904  0.1973
  905TIP3    H1 2679   6.017   6.799   2.503 -0.8257  0.3126  0.1966
  905TIP3    H2 2680   6.102   6.785   2.627  0.6917  1.6677 -0.6479
  906TIP3   OH2 2681   5.151   1.314   1.816  0.6261  0.0212 -0.5903
  906TIP3    H1 2682   5.061   1.316   1.850  0.4762 -2.7901 -0.5689
  906TIP3    H2 2683   5.150   1.375   1.743 -1.4997 -0.3954 -0.9849
  907TIP3   OH2 2684   1.676   0.365   3.548  0.1098  0.6612  0.3529
  907TIP3    H1 2685   1.704   0.354   3.639  1.0756  0.7748  0.0819
  907TIP3    H2 2686   1.706   0.285   3.504 -1.1927  0.1707  0.3177
  908TIP3   OH2 2687   6.787   4.401   0.858  0.3269  0.0741  0.0212
  908TIP3    H1 2688   6.831   4.478   0.893  2.6844 -0.5821 -1.2424
  908TIP3    H2 2689   6.696   4.427   0.850  0.6996  2.0575  1.4055
  909TIP3   OH2 2690   2.454   1.588   1.504  0.1987 -0.0906 -0.3481
  909TIP3    H1 2691   2.411   1.516   1.551 -1.9058 -0.1506 -2.1893
  909TIP3    H2 2692   2.418   1.667   1.544 -0.4601 -0.1300 -0.8419
  910TIP3   OH2 2693   3.128   0.860   1.921 -0.4751 -0.3939 -0.6716
  910TIP3    H1 2694   3.098   0.920   1.853  0.1561  1.2114  0.4286
  910TIP3    H2 2695   3.079   0.885   1.999  2.2605  1.0930  0.7106
  911TIP3   OH2 2696   6.955   3.966   2.676 -0.3309 -0.2484  0.0587
  911TIP3    H1 2697   6.936   3.878   2.709 -0.9356  0.0433  0.5317
  911TIP3    H2 2698   7.016   4.003   2.740 -1.5824  0.3537  0.9566
  912TIP3   OH2 2699   3.093   2.212   2.427  0.1032 -0.0319 -0.0936
  912TIP3    H1 2700   3.046   2.132   2.404  1.1533 -0.7439  0.1699
  912TIP3    H2 2701   3.145   2.232   2.349 -0.8080  0.8899 -0.4760
  913TIP3   OH2 2702   5.576   1.470   3.402  0.3640  0.1588  0.0805
  913TIP3    H1 2703   5.566   1.461   3.497  0.2376 -1.3433 -0.0613
  913TIP3    H2 2704   5.497   1.517   3.374 -1.3440 -2.3459  0.3354
  914TIP3   OH2 2705   0.672   2.784   5.016  0.3700  0.7923  0.2743
  914TIP3    H1 2706   0.707   2.873   5.014  0.8910  0.5843 -2.0751
  914TIP3    H2 2707   0.627   2.773   4.933  2.1276 -1.8233 -0.4580
  915TIP3   OH2 2708   3.993   5.535   3.633  0.3694  0.0418  0.4322
  915TIP3    H1 2709   3.942   5.589   3.573  1.9184  1.7452  0.5758
  915TIP3    H2 2710   4.054   5.487   3.577 -0.1411 -0.6162  0.4225
  916TIP3   OH2 2711   6.941   4.947   2.424  0.4237 -0.0673  0.2228
  916TIP3    H1 2712   6.885   4.997   2.484 -0.2742 -0.4331 -0.1164
  916TIP3    H2 2713   7.002   5.012   2.390 -0.0165  0.4164  0.3326
  917TIP3   OH2 2714   2.652   1.405   3.682 -0.6508 -0.4124  0.6565
  917TIP3    H1 2715   2.572   1.381   3.728 -0.5410 -1.4288  0.3437
  917TIP3    H2 2716   2.694   1.469   3.739 -3.5466  3.2694 -0.9513
  918TIP3   OH2 2717   5.768   2.165   3.826  0.2535 -0.4519  0.2120
  918TIP3    H1 2718   5.716   2.125   3.756  0.7651  0.8420 -0.9694
  918TIP3    H2 2719   5.841   2.104   3.839 -0.2329 -1.0612  0.1341
  919TIP3   OH2 2720   4.258   4.540   5.671  0.3294  0.1187 -0.4400
  919TIP3    H1 2721   4.247   4.596   5.748  0.7493  1.0856 -1.0459
  919TIP3    H2 2722   4.199   4.577   5.606  0.2712 -0.4361 -0.7068
  920TIP3   OH2 2723   6.478   1.150   1.608 -0.3429  0.3731  0.0340
  920TIP3    H1 2724   6.414   1.132   1.677 -0.7014 -0.7353 -0.5694
  920TIP3    H2 2725   6.495   1.065   1.568 -1.6163  1.2163 -2.5356
  921TIP3   OH2 2726   5.003   2.093   5.438 -0.0453  0.6469 -0.6045
  921TIP3    H1 2727   5.003   2.101   5.534  0.3181  0.5853 -0.5983
  921TIP3    H2 2728   4.912   2.109   5.413 -0.5763 -1.3752 -0.0858
  922TIP3   OH2 2729   2.965   5.324   2.707 -0.0208 -0.2482 -0.3500
  922TIP3    H1 2730   2.939   5.415   2.696 -0.1301 -0.4825 -2.3640
  922TIP3    H2 2731   2.926   5.298   2.791 -0.1057  1.4904  0.1854
  923TIP3   OH2 2732   4.281   3.904   3.135 -0.4262  0.5652  0.4909
  923TIP3    H1 2733   4.358   3.900   3.077 -0.4168 -0.9089  0.5889
  923TIP3    H2 2734   4.226   3.972   3.095  0.5621  1.1048 -0.0154
  924TIP3   OH2 2735   6.900   3.913   4.994 -0.6853  0.1464 -0.3642
  924TIP3    H1 2736   6.826   3.945   5.046 -0.0257  2.0630 -0.5004
  924TIP3    H2 2737   6.868   3.914   4.904 -0.8464 -0.1056 -0.3089
  925TIP3   OH2 2738   2.386   5.255   1.957 -0.3774 -0.2814  0.2218
  925TIP3    H1 2739   2.422   5.177   2.000  0.8448 -0.0252 -0.2829
  925TIP3    H2 2740   2.437   5.327   1.994  1.0040 -0.0885 -1.9304
  926TIP3   OH2 2741   3.241   0.627   1.657  0.7630  0.3341 -0.6497
  926TIP3    H1 2742   3.275   0.547   1.618 -0.8761 -0.5089 -0.4417
  926TIP3    H2 2743   3.276   0.627   1.746  2.6287  1.0787 -1.3294
  927TIP3   OH2 2744   5.810   4.780   3.631  0.4595 -0.5943  0.1058
  927TIP3    H1 2745   5.904   4.789   3.610 -0.0764  0.6835 -2.1120
  927TIP3    H2 2746   5.797   4.834   3.708  1.4248 -0.1731 -0.0129
  928TIP3   OH2 2747   0.222   3.938   3.282 -0.5328  0.4630 -0.1660
  928TIP3    H1 2748   0.274   3.987   3.346  0.6670 -0.5494 -0.3300
  928TIP3    H2 2749   0.142   3.914   3.329  0.1806  0.0284  0.8403
  929TIP3   OH2 2750   1.565   5.700   3.076  0.0545  0.4245 -0.1466
  929TIP3    H1 2751   1.622   5.760   3.029  0.4499 -0.6407 -1.0671
  929TIP3    H2 2752   1.615   5.676   3.154  0.7129 -0.1831 -0.7423
  930TIP3   OH2 2753   4.841   4.557   1.340 -0.0484  0.0732  0.1109
  930TIP3    H1 2754   4.776   4.518   1.281 -0.3136 -0.8593  0.9836
  930TIP3    H2 2755   4.872   4.483   1.392  0.1258  0.8901  1.1809
  931TIP3   OH2 2756   6.093   2.240   2.156  0.3008 -0.5873 -0.2532
  931TIP3    H1 2757   6.150   2.288   2.215  0.1937 -0.0607 -0.5683
  931TIP3    H2 2758   6.005   2.275   2.173  0.1376 -1.0476 -0.1128
  932TIP3   OH2 2759   3.205   6.445   1.299  0.0284 -0.4291 -0.2196
  932TIP3    H1 2760   3.243   6.522   1.341  0.7699 -0.0437 -1.5204
  932TIP3    H2 2761   3.123   6.429   1.347  1.4199 -0.8428  2.1672
  933TIP3   OH2 2762   3.179   0.462   4.233 -0.4756  0.0837  0.5743
  933TIP3    H1 2763   3.131   0.485   4.154  0.7278  1.5591  0.2217
  933TIP3    H2 2764   3.137   0.514   4.302 -0.3125  0.2643  0.5385
  934TIP3   OH2 2765   7.132   1.850   1.950  0.6483 -0.2797 -0.2622
  934TIP3    H1 2766   7.183   1.849   2.031  0.1039  2.1671  0.1922
  934TIP3    H2 2767   7.058   1.792   1.967  2.4057 -2.7069 -0.4054
  935TIP3   OH2 2768   2.821   2.199   2.177 -0.9469 -0.0108  0.2740
  935TIP3    H1 2769   2.856   2.129   2.232 -2.6942 -0.7364  0.5235
  935TIP3    H2 2770   2.890   2.266   2.177  0.1062 -1.0398  1.3238
  936TIP3   OH2 2771   0.742   3.024   1.271 -0.2324  0.1161  0.0717
  936TIP3    H1 2772   0.757   3.104   1.321  0.7092  0.5280 -0.8212
  936TIP3    H2 2773   0.774   2.953   1.327 -0.9996  0.3615  0.8328
  937TIP3   OH2 2774   3.079   4.376   0.612 -0.0438  0.8027 -0.2738
  937TIP3    H1 2775   3.052   4.345   0.525  1.5886  0.3908 -0.6645
  937TIP3    H2 2776   3.145   4.313   0.640 -0.2287  1.1929  1.0778
  938TIP3   OH2 2777   1.185   0.914   2.215 -0.4277  0.4911  0.1716
  938TIP3    H1 2778   1.241   0.845   2.181  0.0596  0.4061  1.0907
  938TIP3    H2 2779   1.102   0.870   2.235 -0.2783  0.2713  0.3125
  939TIP3   OH2 2780   3.284   0.924   2.620  0.4039  0.3321 -0.3246
  939TIP3    H1 2781   3.355   0.986   2.639  0.9533 -0.4429  0.1952
  939TIP3    H2 2782   3.206   0.963   2.659  0.5831  1.0789 -0.6966
  940TIP3   OH2 2783   0.349   2.410   0.799 -0.3574  0.2913 -0.1121
  940TIP3    H1 2784   0.338   2.334   0.856  0.7188 -0.1433 -0.4586
  940TIP3    H2 2785   0.439   2.439   0.815  0.4132 -0.6062 -2.4602
  941TIP3   OH2 2786   5.624   6.424   1.642  0.0852 -0.0326 -0.0385
  941TIP3    H1 2787   5.558   6.494   1.639 -1.2136 -1.2438 -1.2381
  941TIP3    H2 2788   5.692   6.453   1.581 -1.3105 -0.5763 -1.9498
  942TIP3   OH2 2789   0.675   4.500   2.617  0.1404  0.0858  0.0129
  942TIP3    H1 2790   0.613   4.428   2.608 -0.4677  0.3136  1.8910
  942TIP3    H2 2791   0.760   4.461   2.598 -0.4181 -0.5748 -1.1954
  943TIP3   OH2 2792   3.794   4.819   1.825 -0.1711  0.4343  0.2134
  943TIP3    H1 2793   3.875   4.778   1.855 -0.0924  1.4963  1.5691
  943TIP3    H2 2794   3.736   4.746   1.806  1.0944 -0.3497 -0.8315
  944TIP3   OH2 2795   1.006   6.019   4.126  0.4461 -0.1811 -0.3403
  944TIP3    H1 2796   1.051   5.952   4.177 -0.6906 -1.3578 -0.8367
  944TIP3    H2 2797   0.921   6.030   4.168 -0.8623 -1.8011 -2.3866
  945TIP3   OH2 2798   3.117   0.852   3.998  0.5067  0.3144 -0.4907
  945TIP3    H1 2799   3.198   0.902   4.004  0.5634  0.1457  0.2098
  945TIP3    H2 2800   3.048   0.917   4.015  0.4791  0.5042 -1.3150
  946TIP3   OH2 2801   5.309   5.731   1.210 -0.1047 -0.3066 -0.3471
  946TIP3    H1 2802   5.399   5.752   1.185 -0.9101  3.0763 -0.8634
  946TIP3    H2 2803   5.310   5.735   1.306  0.0979  0.8196 -0.3861
  947TIP3   OH2 2804   4.891   0.592   0.692  0.0005 -0.2651 -0.1720
  947TIP3    H1 2805   4.850   0.663   0.642 -0.5148  0.7763  1.6227
  947TIP3    H2 2806   4.826   0.522   0.693 -0.0857 -0.1951 -0.7347
  948TIP3   OH2 2807   6.505   0.755   0.742 -0.1230  0.2237 -0.4285
  948TIP3    H1 2808   6.415   0.763   0.709  0.0299  0.1793 -0.8652
  948TIP3    H2 2809   6.539   0.844   0.740  0.5297 -0.0102 -2.2759
  949TIP3   OH2 2810   0.775   5.127   2.176  0.4426  0.6766  0.2933
  949TIP3    H1 2811   0.725   5.071   2.235 -0.4763  0.3663 -0.7444
  949TIP3    H2 2812   0.717   5.200   2.157  0.7969  0.8666 -0.0758
  950TIP3   OH2 2813   0.057   4.998   3.981  0.2152 -0.0906  0.2253
  950TIP3    H1 2814   0.144   4.959   3.975 -0.3577 -1.4439  0.4560
  950TIP3    H2 2815   0.023   4.995   3.892 -0.3032 -1.2687  0.4522
  951TIP3   OH2 2816   2.761   1.401   5.567 -0.1785  0.5258 -0.3515
  951TIP3    H1 2817   2.845   1.384   5.524  0.1678  1.1949  0.0479
  951TIP3    H2 2818   2.741   1.492   5.544 -0.0543  0.8507  0.7847
  952TIP3   OH2 2819   0.759   6.653   3.935  0.5411 -0.2628  0.5751
  952TIP3    H1 2820   0.705   6.589   3.981 -0.3454  0.2418  0.2469
  952TIP3    H2 2821   0.751   6.629   3.843  0.6945 -0.0446  0.5044
  953TIP3   OH2 2822   7.045   1.276   4.770 -1.5660 -0.1670 -0.1552
  953TIP3    H1 2823   6.960   1.319   4.773 -1.2167  0.5685 -0.4816
  953TIP3    H2 2824   7.106   1.345   4.744 -0.9688 -0.8392 -0.5830
  954TIP3   OH2 2825   3.901   0.842   0.813  0.1435  0.3929 -1.0415
  954TIP3    H1 2826   3.864   0.929   0.804 -0.3425  0.2699 -0.3587
  954TIP3    H2 2827   3.825   0.783   0.810  0.1786  0.1725  0.9008
  955TIP3   OH2 2828   0.606   4.498   3.182  0.3952  0.1366  0.7239
  955TIP3    H1 2829   0.695   4.534   3.176  0.9650 -1.4071 -1.6017
  955TIP3    H2 2830   0.610   4.416   3.132 -2.6858  0.7249 -0.7401
  956TIP3   OH2 2831   5.770   6.661   3.691  0.1796  0.3471  0.2711
  956TIP3    H1 2832   5.850   6.708   3.669  0.1794  1.0479  1.7011
  956TIP3    H2 2833   5.798   6.591   3.750 -0.3585  1.2043  1.5844
  957TIP3   OH2 2834   1.179   1.443   3.759  1.1080 -0.3591  0.3180
  957TIP3    H1 2835   1.260   1.467   3.805  1.6262 -3.1176  0.9958
  957TIP3    H2 2836   1.111   1.451   3.826  0.8030  1.5993 -0.1561
  958TIP3   OH2 2837   6.796   0.639   1.806 -0.6348 -0.2887  0.3500
  958TIP3    H1 2838   6.795   0.713   1.745  2.1560  0.0341  0.5878
  958TIP3    H2 2839   6.842   0.569   1.759 -1.0657 -1.0543  1.0315
  959TIP3   OH2 2840   3.820   5.981   2.061  0.6431  0.2456  0.0527
  959TIP3    H1 2841   3.894   5.930   2.094  2.1848  1.4196 -1.3884
  959TIP3    H2 2842   3.762   5.991   2.136  1.7309 -1.0860  1.1257
  960TIP3   OH2 2843   5.667   5.592   5.048  0.2736  0.0197  0.1526
  960TIP3    H1 2844   5.661   5.685   5.026  0.3141 -0.1147 -0.4448
  960TIP3    H2 2845   5.638   5.587   5.139 -2.9701  0.1978 -0.7169
  961TIP3   OH2 2846   4.692   1.488   2.357 -0.6065  0.1244  0.0441
  961TIP3    H1 2847   4.735   1.512   2.275 -0.9733  1.4749  0.2300
  961TIP3    H2 2848   4.637   1.413   2.333 -1.6249  1.2268 -1.2448
  962TIP3   OH2 2849   0.525   3.264   1.211  0.3397 -0.5460 -0.2378
  962TIP3    H1 2850   0.482   3.211   1.144 -0.8030 -0.6261  0.5408
  962TIP3    H2 2851   0.535   3.204   1.285 -2.4840  0.7060  1.2716
  963TIP3   OH2 2852   3.528   4.281   0.642 -0.1134 -0.4195 -0.2116
  963TIP3    H1 2853   3.479   4.347   0.691 -0.7765 -1.5363  0.7097
  963TIP3    H2 2854   3.618   4.312   0.644 -0.6859  1.4619 -1.5689
  964TIP3   OH2 2855   4.160   3.872   4.274 -0.8572 -0.2631 -0.5133
  964TIP3    H1 2856   4.187   3.898   4.185 -1.1685  0.1043 -0.5021
  964TIP3    H2 2857   4.116   3.788   4.262  0.4161 -0.9669 -0.5138
  965TIP3   OH2 2858   4.313   4.936   4.828 -0.0782 -0.2812  0.4627
  965TIP3    H1 2859   4.404   4.909   4.838  0.3043  1.0005  0.5543
  965TIP3    H2 2860   4.313   5.029   4.847 -1.5292 -0.3854  1.1374
  966TIP3   OH2 2861   6.890   0.109   2.029 -0.4648  0.0587 -0.0203
  966TIP3    H1 2862   6.798   0.135   2.036 -0.2399  1.0107 -0.3252
  966TIP3    H2 2863   6.893   0.051   1.953 -0.4776  1.8501 -1.4714
  967TIP3   OH2 2864   0.360   1.306   4.283 -0.2822  0.1975 -0.6011
  967TIP3    H1 2865   0.452   1.297   4.309  0.3226  1.9446 -1.9601
  967TIP3    H2 2866   0.317   1.230   4.323  1.5272 -0.0959  0.9608
  968TIP3   OH2 2867   4.264   3.681   5.598  0.5383 -0.1603 -0.0983
  968TIP3    H1 2868   4.194   3.743   5.620 -1.3504 -2.0575 -0.4099
  968TIP3    H2 2869   4.273   3.626   5.675  0.4344 -1.0235 -0.6858
  969TIP3   OH2 2870   1.676   4.199   0.633 -0.1839  0.7013  0.2339
  969TIP3    H1 2871   1.671   4.230   0.723  0.4058  0.8092  0.2290
  969TIP3    H2 2872   1.668   4.104   0.640  1.6042  0.5474  0.5645
  970TIP3   OH2 2873   1.253   5.480   4.759  0.7000 -0.2422  0.3751
  970TIP3    H1 2874   1.312   5.415   4.719  0.8328 -1.5531  2.5544
  970TIP3    H2 2875   1.168   5.435   4.762  0.1085  0.7519 -0.5596
  971TIP3   OH2 2876   6.473   0.192   4.400 -0.1123 -1.0104 -0.4642
  971TIP3    H1 2877   6.519   0.236   4.328 -0.7844 -0.4082 -0.5393
  971TIP3    H2 2878   6.380   0.205   4.380 -0.3220 -2.1511 -0.2850
  972TIP3   OH2 2879   2.133   0.724   2.209  0.0697 -0.1764  0.3582
  972TIP3    H1 2880   2.140   0.641   2.255  0.0654 -0.0830  0.5277
  972TIP3    H2 2881   2.110   0.700   2.119 -2.1446 -0.2686  0.8991
  973TIP3   OH2 2882   1.931   4.854   5.549  0.0899 -0.0446  0.4444
  973TIP3    H1 2883   1.890   4.891   5.471 -0.0547 -3.2364 -1.1576
  973TIP3    H2 2884   1.871   4.876   5.621 -0.7971  1.2715 -0.6542
  974TIP3   OH2 2885   3.384   2.025   0.341  0.1852  0.2713  0.2671
  974TIP3    H1 2886   3.447   2.077   0.291  0.6030  1.7876  2.2467
  974TIP3    H2 2887   3.325   1.990   0.274  0.4838  2.4912 -1.2991
  975TIP3   OH2 2888   0.600   5.511   2.407 -0.1995  0.7528 -0.0581
  975TIP3    H1 2889   0.621   5.556   2.489  1.5650 -0.6632  0.3139
  975TIP3    H2 2890   0.635   5.423   2.418 -2.7177 -0.4780 -1.1422
  976TIP3   OH2 2891   5.148   3.194   5.164  0.4903  0.5401  0.4336
  976TIP3    H1 2892   5.196   3.141   5.100 -0.6387 -1.1149  0.9089
  976TIP3    H2 2893   5.170   3.155   5.248 -0.4539  0.7484  0.7835
  977TIP3   OH2 2894   4.771   1.459   5.521  0.0143 -0.4426  0.3682
  977TIP3    H1 2895   4.727   1.460   5.606 -1.2301 -1.4130 -0.2366
  977TIP3    H2 2896   4.854   1.503   5.537 -1.2122  1.6277  1.5296
  978TIP3   OH2 2897   2.119   1.114   2.400 -0.2261 -0.0508 -0.3582
  978TIP3    H1 2898   2.162   1.029   2.390  0.4928  0.5376 -3.1427
  978TIP3    H2 2899   2.032   1.093   2.435  0.9088 -1.5964  1.7694
  979TIP3   OH2 2900   3.078   0.173   4.322 -0.8082  0.2249 -0.7769
  979TIP3    H1 2901   3.115   0.157   4.235  0.4103 -1.4766 -0.0274
  979TIP3    H2 2902   3.046   0.263   4.319  1.9392  1.2908 -2.0578
  980TIP3   OH2 2903   4.721   3.816   4.000 -0.0432 -0.6533 -0.5838
  980TIP3    H1 2904   4.699   3.904   4.031  0.8907 -0.7868  0.5607
  980TIP3    H2 2905   4.778   3.830   3.925 -2.3824 -0.3181 -2.4120
  981TIP3   OH2 2906   6.173   2.165   0.550 -0.1930 -0.1793 -0.0448
  981TIP3    H1 2907   6.201   2.231   0.486  0.4564 -2.3872 -2.2153
  981TIP3    H2 2908   6.109   2.210   0.605 -0.2627  2.0587 -1.8149
  982TIP3   OH2 2909   2.116   0.536   2.383  0.4630 -0.4045 -0.1995
  982TIP3    H1 2910   2.171   0.554   2.460  1.2230  0.8550 -0.9846
  982TIP3    H2 2911   2.113   0.441   2.376  0.4170 -0.5359  1.3559
  983TIP3   OH2 2912   3.004   0.548   2.639  0.2775  0.3021  0.7343
  983TIP3    H1 2913   2.996   0.630   2.687 -0.8479 -0.8292  2.5998
  983TIP3    H2 2914   3.000   0.574   2.547 -0.3291  2.3104  1.2669
  984TIP3   OH2 2915   2.897   3.674   5.443  0.9572  0.1226 -0.0218
  984TIP3    H1 2916   2.882   3.704   5.353 -2.4558 -0.2970  0.2861
  984TIP3    H2 2917   2.913   3.580   5.434 -0.4672 -0.1347 -0.1913
  985TIP3   OH2 2918   3.572   5.163   3.941 -0.4048  0.0343  0.6460
  985TIP3    H1 2919   3.507   5.183   4.008 -0.1283  0.3387  0.8249
  985TIP3    H2 2920   3.593   5.248   3.901 -1.8934 -0.3315 -1.0669
  986TIP3   OH2 2921   3.469   2.005   3.559  0.7034  0.5812 -0.1678
  986TIP3    H1 2922   3.563   1.989   3.544  0.6138 -1.7554  1.1738
  986TIP3    H2 2923   3.426   1.969   3.481  0.8677  0.6492 -0.2910
  987TIP3   OH2 2924   3.826   3.325   5.363 -0.3646  0.3130 -0.3431
  987TIP3    H1 2925   3.879   3.281   5.296  0.2386  2.6253 -1.5027
  987TIP3    H2 2926   3.801   3.256   5.424  1.2481 -1.4286 -1.5577
  988TIP3   OH2 2927   4.458   4.892   5.074 -0.1293 -0.4798  0.1565
  988TIP3    H1 2928   4.552   4.893   5.060  0.2399  0.5907  2.2707
  988TIP3    H2 2929   4.432   4.984   5.066 -1.0952 -0.8349 -0.9402
  989TIP3   OH2 2930   1.659   5.154   1.513  0.3109  0.9186  0.0265
  989TIP3    H1 2931   1.640   5.242   1.544  1.5727  0.8355  1.0979
  989TIP3    H2 2932   1.708   5.113   1.584 -0.6874 -0.8386 -0.2237
  990TIP3   OH2 2933   0.344   1.926   2.288  0.0770 -0.4388  0.5485
  990TIP3    H1 2934   0.313   1.900   2.201  1.9072 -0.5577 -0.1270
  990TIP3    H2 2935   0.284   1.883   2.349 -2.2775  0.9922 -0.6156
  991TIP3   OH2 2936   2.026   6.211   5.229 -0.1946  0.0039  0.2695
  991TIP3    H1 2937   1.953   6.149   5.234  0.3228 -0.5436  1.4191
  991TIP3    H2 2938   1.988   6.289   5.190 -1.8449  0.3251  2.3180
  992TIP3   OH2 2939   1.999   5.874   1.853 -0.2391 -0.2352 -0.1433
  992TIP3    H1 2940   1.946   5.849   1.777 -2.5269  1.0449  0.9321
  992TIP3    H2 2941   1.974   5.811   1.921  0.5562 -0.3549  0.0479
  993TIP3   OH2 2942   0.690   5.603   0.188  0.3478  1.0365 -0.0901
  993TIP3    H1 2943   0.614   5.648   0.225  1.6468  1.4936  2.2430
  993TIP3    H2 2944   0.736   5.671   0.139  0.1587  1.1937 -0.0516
  994TIP3   OH2 2945   0.458   3.464   5.676  0.0028  0.2658  0.2829
  994TIP3    H1 2946   0.416   3.522   5.740  0.9748  1.3477 -0.0111
  994TIP3    H2 2947   0.552   3.474   5.693  0.2344 -0.2180 -0.6488
  995TIP3   OH2 2948   1.247   0.483   5.408 -0.3132  0.6142 -0.1202
  995TIP3    H1 2949   1.238   0.507   5.500 -0.1641  2.9454 -0.6532
  995TIP3    H2 2950   1.183   0.538   5.362  1.2276  1.2637 -1.6205
  996TIP3   OH2 2951   3.559   5.073   4.816  0.2068  0.0616 -0.6817
  996TIP3    H1 2952   3.590   5.141   4.757  2.0968 -0.3406 -0.2180
  996TIP3    H2 2953   3.588   5.100   4.903 -0.3451 -0.5834 -0.2814
  997TIP3   OH2 2954   4.660   2.644   1.901 -0.0681  0.0597 -0.0381
  997TIP3    H1 2955   4.568   2.625   1.885  0.0900 -0.9680  0.1660
  997TIP3    H2 2956   4.666   2.657   1.995  0.0353 -0.0965 -0.0234
  998TIP3   OH2 2957   4.517   5.509   4.403 -0.1381 -0.5028 -0.3126
  998TIP3    H1 2958   4.486   5.457   4.476  0.0879 -0.6509 -0.3188
  998TIP3    H2 2959   4.613   5.510   4.413 -0.1949  0.8651  0.3355
  999TIP3   OH2 2960   1.567   6.502   4.213 -0.7110  0.2119  0.0247
  999TIP3    H1 2961   1.473   6.505   4.231 -0.7887  0.0238 -0.3438
  999TIP3    H2 2962   1.590   6.592   4.190 -0.4449  0.6453  1.8670
 1000TIP3   OH2 2963   6.319   2.784   2.749  0.4593 -0.3036 -0.0655
 1000TIP3    H1 2964   6.316   2.696   2.709 -0.4702 -0.0246 -0.6601
 1000TIP3    H2 2965   6.411   2.797   2.771  0.5257 -1.6639  0.5734
 1001TIP3   OH2 2966   3.594   5.005   4.250  0.9279 -0.0183 -0.3294
 1001TIP3    H1 2967   3.522   5.062   4.221  0.8347 -0.6454 -1.3985
 1001TIP3    H2 2968   3.590   4.930   4.191  2.0962 -0.3471 -0.0158
 1002TIP3   OH2 2969   4.210   0.884   3.317 -0.2241 -0.0202 -0.6132
 1002TIP3    H1 2970   4.243   0.970   3.293 -0.3729  0.4519  0.7554
 1002TIP3    H2 2971   4.168   0.898   3.402 -1.1370 -1.2460 -0.8368
 1003TIP3   OH2 2972   1.227   1.929   1.062  0.1939 -0.1038 -0.2863
 1003TIP3    H1 2973   1.149   1.877   1.082 -0.0425 -0.3501 -1.7950
 1003TIP3    H2 2974   1.300   1.870   1.079  0.0343 -0.1113  0.4081
 1004TIP3   OH2 2975   1.506   0.714   3.161 -0.1080 -0.0447 -0.2850
 1004TIP3    H1 2976   1.496   0.712   3.256  1.0317  0.2755 -0.1391
 1004TIP3    H2 2977   1.511   0.621   3.136 -0.6232 -0.1349 -0.0657
 1005TIP3   OH2 2978   6.546   4.315   0.431 -0.3765  0.8081  0.1700
 1005TIP3    H1 2979   6.540   4.263   0.351  0.3765  1.1457 -0.1134
 1005TIP3    H2 2980   6.469   4.371   0.430 -1.7271 -0.9448  0.9605
 1006TIP3   OH2 2981   6.164   0.952   4.263 -0.5044 -0.2443 -0.0324
 1006TIP3    H1 2982   6.124   1.033   4.295 -0.1582 -0.3206  0.6068
 1006TIP3    H2 2983   6.256   0.960   4.285 -0.2841 -0.3761 -0.8827
 1007TIP3   OH2 2984   1.511   5.142   5.121 -0.5157 -0.0043  0.0476
 1007TIP3    H1 2985   1.570   5.217   5.131  0.9791 -1.0074 -0.7974
 1007TIP3    H2 2986   1.512   5.123   5.027 -1.8001 -0.3698  0.0916
 1008TIP3   OH2 2987   5.462   0.791   5.593  0.3598  0.2265  0.1879
 1008TIP3    H1 2988   5.444   0.873   5.640  0.7333  0.3816  0.0607
 1008TIP3    H2 2989   5.386   0.780   5.535  1.0574  1.3459 -0.9896
 1009TIP3   OH2 2990   1.770   2.854   4.074 -0.0124  0.0656  0.4508
 1009TIP3    H1 2991   1.814   2.769   4.067 -0.2546  0.0333 -0.8702
 1009TIP3    H2 2992   1.800   2.889   4.158  0.3808 -1.1553  0.8441
 1010TIP3   OH2 2993   0.402   2.556   4.997  0.3898 -0.3520 -0.4910
 1010TIP3    H1 2994   0.468   2.548   4.927  1.9955 -0.5938  0.9898
 1010TIP3    H2 2995   0.349   2.476   4.989  0.8110 -0.5773 -1.1657
 1011TIP3   OH2 2996   6.260   4.451   5.193  0.2918 -0.2285  0.1158
 1011TIP3    H1 2997   6.320   4.448   5.266 -0.0556 -0.8627  0.3818
 1011TIP3    H2 2998   6.185   4.500   5.225 -0.5487 -1.8453  0.7259
 1012TIP3   OH2 2999   5.794   5.341   1.855  0.5263 -0.1915 -0.4890
 1012TIP3    H1 3000   5.864   5.277   1.867 -0.4272 -1.0703  0.5767
 1012TIP3    H2 3001   5.814   5.382   1.771  0.1774 -3.1615 -2.1493
 1013TIP3   OH2 3002   6.048   4.298   3.102 -0.5621 -0.1797  0.1171
 1013TIP3    H1 3003   6.135   4.301   3.142 -0.3577 -0.6929 -0.2853
 1013TIP3    H2 3004   5.988   4.304   3.177 -0.1866 -0.0560  0.4140
 1014TIP3   OH2 3005   2.104   1.787   5.160  0.2527  0.2739 -0.0778
 1014TIP3    H1 3006   2.172   1.852   5.141 -1.7089  2.7272  0.7566
 1014TIP3    H2 3007   2.042   1.795   5.087 -1.1459  1.0343  1.1248
 1015TIP3   OH2 3008   3.205   5.961   0.929  0.3683  0.2124  0.5294
 1015TIP3    H1 3009   3.146   5.926   0.862  0.2487  1.7012 -0.1665
 1015TIP3    H2 3010   3.215   5.889   0.991 -2.4705  0.0037  0.8791
 1016TIP3   OH2 3011   3.394   3.516   4.252  0.6063  0.2759 -0.2278
 1016TIP3    H1 3012   3.398   3.507   4.347 -0.3309  0.9609 -0.1063
 1016TIP3    H2 3013   3.385   3.610   4.237 -0.6690  0.0662 -0.9172
 1017TIP3   OH2 3014   2.967   1.139   2.291 -0.1134  0.2933  0.0099
 1017TIP3    H1 3015   2.894   1.168   2.346  0.0596  0.0208  0.3959
 1017TIP3    H2 3016   2.925   1.087   2.222 -0.3585  0.8724 -0.2852
 1018TIP3   OH2 3017   0.707   3.641   0.057 -0.4664  0.0644 -0.0484
 1018TIP3    H1 3018   0.780   3.598   0.013 -0.4019 -1.6028  1.5312
 1018TIP3    H2 3019   0.631   3.623   0.002  0.1945  1.3965 -1.4530
 1019TIP3   OH2 3020   6.096   0.667   3.115 -0.1691  0.1845  0.1330
 1019TIP3    H1 3021   6.084   0.573   3.101 -1.4746  0.0752  1.6666
 1019TIP3    H2 3022   6.083   0.706   3.028 -2.4653 -0.8407 -0.0469
 1020TIP3   OH2 3023   5.878   5.989   1.787 -0.4425  0.0032  0.0816
 1020TIP3    H1 3024   5.831   6.054   1.735  1.7754  0.6112 -1.2683
 1020TIP3    H2 3025   5.886   5.914   1.728 -0.4417 -0.4176  0.6100
 1021TIP3   OH2 3026   6.104   5.398   2.104 -0.4001 -0.2271 -0.7625
 1021TIP3    H1 3027   6.062   5.461   2.045 -1.1835  0.4664  0.4837
 1021TIP3    H2 3028   6.101   5.441   2.190 -0.4552 -1.7462  0.0251
 1022TIP3   OH2 3029   3.416   5.895   1.647  0.2343  0.3151 -0.6571
 1022TIP3    H1 3030   3.409   5.805   1.679  0.9172  1.0945  1.8967
 1022TIP3    H2 3031   3.325   5.921   1.631 -0.1758 -0.0801  0.8773
 1023TIP3   OH2 3032   6.288   0.608   4.480  0.1445 -0.5129 -0.0954
 1023TIP3    H1 3033   6.272   0.700   4.501  0.4877 -0.3581 -0.4964
 1023TIP3    H2 3034   6.263   0.600   4.388  1.8978 -0.3575 -0.6210
 1024TIP3   OH2 3035   3.924   2.924   2.351  0.5058 -0.4655 -0.4961
 1024TIP3    H1 3036   4.004   2.874   2.333  2.8048  3.5164 -2.8290
 1024TIP3    H2 3037   3.866   2.902   2.278  0.8865 -0.7694 -0.7157
 1025TIP3   OH2 3038   3.106   1.710   4.207 -0.0808  0.1009 -0.7813
 1025TIP3    H1 3039   3.035   1.743   4.152 -0.0799  0.0993 -0.7836
 1025TIP3    H2 3040   3.108   1.616   4.190 -1.0989 -0.1495  0.3890
 1026TIP3   OH2 3041   7.077   5.406   0.733  0.0058 -0.3758  0.1301
 1026TIP3    H1 3042   6.997   5.353   0.740  0.8137 -2.0094 -1.7639
 1026TIP3    H2 3043   7.059   5.466   0.661  0.7068 -1.3117 -0.8693
 1027TIP3   OH2 3044   1.066   5.935   4.533 -0.1211 -0.0120 -0.4720
 1027TIP3    H1 3045   1.087   5.841   4.534 -2.0835 -0.5639 -2.6435
 1027TIP3    H2 3046   1.052   5.957   4.625 -2.7667 -2.6968 -0.0805
 1028TIP3   OH2 3047   6.842   0.336   2.377  0.0332 -0.0883 -1.2100
 1028TIP3    H1 3048   6.752   0.309   2.359 -0.0078 -0.3398 -0.6580
 1028TIP3    H2 3049   6.851   0.326   2.472  1.4333 -2.5336 -1.5209
 1029TIP3   OH2 3050   5.421   3.509   1.848  0.0120 -0.5244 -0.1311
 1029TIP3    H1 3051   5.496   3.564   1.872 -2.3641  3.4401 -0.8713
 1029TIP3    H2 3052   5.374   3.496   1.930 -1.3669  1.9644 -0.4367
 1030TIP3   OH2 3053   7.018   5.789   0.870  0.3548 -0.0071 -0.0147
 1030TIP3    H1 3054   6.956   5.729   0.829  0.6821  0.1066 -0.7066
 1030TIP3    H2 3055   6.981   5.876   0.855 -0.5573 -0.0640  1.7478
 1031TIP3   OH2 3056   7.153   4.835   3.052  0.0132 -0.2864  0.0185
 1031TIP3    H1 3057   7.100   4.908   3.019 -0.0136  0.0164  0.7190
 1031TIP3    H2 3058   7.097   4.758   3.040 -0.1786 -0.1154 -0.2041
 1032TIP3   OH2 3059   5.838   0.688   2.808  0.0113 -0.0234  0.1556
 1032TIP3    H1 3060   5.931   0.694   2.825 -0.1574 -0.6440  1.3736
 1032TIP3    H2 3061   5.802   0.772   2.837 -0.0796 -0.5588  1.6694
 1033TIP3   OH2 3062   1.432   2.150   0.457 -0.3020 -0.0566  0.4149
 1033TIP3    H1 3063   1.481   2.101   0.523 -0.7428 -0.9909  0.0738
 1033TIP3    H2 3064   1.435   2.094   0.379  1.2993  1.5883 -0.7748
 1034TIP3   OH2 3065   6.707   2.501   3.996  0.0527 -0.0085  0.0360
 1034TIP3    H1 3066   6.659   2.427   4.033 -1.7710 -0.1314 -2.3636
 1034TIP3    H2 3067   6.785   2.460   3.957 -0.6413 -0.6386 -0.7486
 1035TIP3   OH2 3068   2.024   5.430   5.436  0.3888 -0.4852 -0.2741
 1035TIP3    H1 3069   1.986   5.517   5.448  0.2991 -0.5007 -0.4470
 1035TIP3    H2 3070   2.108   5.434   5.481 -0.4379 -0.9003  1.3948
 1036TIP3   OH2 3071   6.263   5.313   0.007 -0.0908 -0.0493 -0.1648
 1036TIP3    H1 3072   6.311   5.348   0.082  1.6159  1.6358 -1.9445
 1036TIP3    H2 3073   6.327   5.258  -0.039 -1.2226 -1.3606 -0.2462
 1037TIP3   OH2 3074   1.441   2.867   5.839  0.2159  0.0315  0.1939
 1037TIP3    H1 3075   1.464   2.953   5.873  0.0226  0.4239 -0.6323
 1037TIP3    H2 3076   1.371   2.836   5.896  0.6887  0.1581  0.8525
 1038TIP3   OH2 3077   1.680   4.289   5.558 -0.2984 -0.0777 -0.3061
 1038TIP3    H1 3078   1.586   4.309   5.551 -0.6649 -0.9153  1.6207
 1038TIP3    H2 3079   1.722   4.351   5.498 -2.0678  0.3145 -1.2254
 1039TIP3   OH2 3080   0.759   4.716   1.785 -0.1798  0.1065 -0.2511
 1039TIP3    H1 3081   0.811   4.743   1.861  0.5648  1.0646 -1.0616
 1039TIP3    H2 3082   0.800   4.761   1.711 -1.4794 -0.0273 -1.0880
 1040TIP3   OH2 3083   1.218   0.472   1.535  0.6132  0.1899  0.2231
 1040TIP3    H1 3084   1.158   0.546   1.541  0.7300  0.2214  1.0562
 1040TIP3    H2 3085   1.162   0.395   1.539  0.5319  0.2262 -0.1782
 1041TIP3   OH2 3086   5.364   0.564   4.856  0.0048  0.3738 -0.0008
 1041TIP3    H1 3087   5.424   0.514   4.799  0.9871  1.1234  0.3502
 1041TIP3    H2 3088   5.326   0.630   4.798 -0.0292  0.2674 -0.0987
 1042TIP3   OH2 3089   3.619   4.508   0.415 -0.0071 -0.1968  0.4653
 1042TIP3    H1 3090   3.531   4.486   0.446  0.2497 -0.0339  1.3436
 1042TIP3    H2 3091   3.605   4.575   0.348 -0.4770  1.1445  1.8508
 1043TIP3   OH2 3092   0.090   4.598   3.194 -0.6204  0.1497  0.2472
 1043TIP3    H1 3093   0.152   4.645   3.139  0.3497 -0.9010  0.4058
 1043TIP3    H2 3094   0.111   4.625   3.283  0.2317 -0.8839  0.3750
 1044TIP3   OH2 3095   5.164   3.298   1.406  0.4975  0.1814  0.6278
 1044TIP3    H1 3096   5.152   3.389   1.433 -1.0536 -0.2316  1.4326
 1044TIP3    H2 3097   5.104   3.287   1.332  1.5125  0.1008 -0.2050
 1045TIP3   OH2 3098   0.406   3.473   3.828  0.1921 -0.5952  0.3630
 1045TIP3    H1 3099   0.361   3.474   3.912 -0.5556  1.1046 -0.0358
 1045TIP3    H2 3100   0.387   3.558   3.789  1.4083 -0.9436 -1.0677
 1046TIP3   OH2 3101   7.125   3.034   1.536  0.1471 -0.2533  0.2155
 1046TIP3    H1 3102   7.138   2.997   1.623  0.5189  0.5734  0.5179
 1046TIP3    H2 3103   7.051   2.985   1.500 -0.0002 -0.6077  0.9833
 1047TIP3   OH2 3104   0.930   2.180   0.873  0.2143  0.1618  0.1118
 1047TIP3    H1 3105   0.918   2.111   0.807  1.9642 -1.3222  1.2665
 1047TIP3    H2 3106   0.928   2.262   0.822 -0.1350 -0.8231 -1.5431
 1048TIP3   OH2 3107   4.122   5.687   2.696 -0.2421 -0.2771  0.1349
 1048TIP3    H1 3108   4.144   5.693   2.789  0.4473 -0.6458 -0.0020
 1048TIP3    H2 3109   4.169   5.761   2.656  0.0841 -0.5722 -0.0321
 1049TIP3   OH2 3110   0.008   5.272   1.606  0.2329  0.1002 -0.9465
 1049TIP3    H1 3111   0.075   5.211   1.636  1.7755  0.8608 -2.6567
 1049TIP3    H2 3112  -0.075   5.231   1.633  1.2780 -1.8363 -0.4611
 1050TIP3   OH2 3113   5.281   3.309   4.338 -0.4667 -0.4175  0.3488
 1050TIP3    H1 3114   5.271   3.221   4.302 -0.1417 -0.5687  0.6223
 1050TIP3    H2 3115   5.351   3.348   4.285 -2.0204  0.4501 -1.2099
 1051TIP3   OH2 3116   4.539   6.118   3.507  0.0173  0.3009  0.3728
 1051TIP3    H1 3117   4.496   6.203   3.520  1.6252  1.3776 -1.0183
 1051TIP3    H2 3118   4.549   6.083   3.595 -1.1927  1.2791  0.9351
 1052TIP3   OH2 3119   6.570   1.928   3.102 -0.4380 -0.0212 -0.1822
 1052TIP3    H1 3120   6.663   1.941   3.085 -0.2311 -1.2214 -0.0049
 1052TIP3    H2 3121   6.565   1.845   3.150 -1.2934  1.4795  2.5928
 1053TIP3   OH2 3122   2.961   5.558   2.431  0.1445  0.5407  0.5681
 1053TIP3    H1 3123   3.018   5.481   2.429 -1.8535 -1.0318 -0.2679
 1053TIP3    H2 3124   2.926   5.560   2.520 -2.5116 -1.7816 -0.2806
 1054TIP3   OH2 3125   6.403   2.363   0.790  0.3527  0.3436  0.3571
 1054TIP3    H1 3126   6.314   2.353   0.757  0.5200  1.6136 -0.5351
 1054TIP3    H2 3127   6.399   2.329   0.880 -1.0639  0.5024  0.3758
 1055TIP3   OH2 3128   0.834   3.679   3.783  0.0071 -0.3797  0.0286
 1055TIP3    H1 3129   0.801   3.618   3.718 -2.1255  1.0571 -0.3248
 1055TIP3    H2 3130   0.771   3.675   3.854  0.5258  0.4894  0.5566
 1056TIP3   OH2 3131   3.546   6.304   4.249 -0.0193  0.7772  0.4851
 1056TIP3    H1 3132   3.611   6.259   4.304  0.9660  0.0464 -1.1724
 1056TIP3    H2 3133   3.563   6.397   4.263  0.8011  0.5973  0.7758
 1057TIP3   OH2 3134   2.822   5.138   4.822 -0.2839 -0.0463  0.3755
 1057TIP3    H1 3135   2.756   5.112   4.886 -1.2532  0.7447 -0.2747
 1057TIP3    H2 3136   2.863   5.055   4.796 -0.8648 -0.5283  0.9476
 1058TIP3   OH2 3137   2.480   1.789   5.494 -0.0741 -0.2690  0.2090
 1058TIP3    H1 3138   2.518   1.752   5.573 -0.6527 -0.5206  0.3781
 1058TIP3    H2 3139   2.409   1.845   5.525  1.2861  1.6419 -0.0007
 1059TIP3   OH2 3140   4.373   6.278   0.672  0.2376  0.0799 -0.1935
 1059TIP3    H1 3141   4.290   6.259   0.717  1.4843 -0.9888  1.7920
 1059TIP3    H2 3142   4.422   6.331   0.735  0.9189  1.0404 -1.5110
 1060TIP3   OH2 3143   0.633   3.880   2.319 -0.2610  0.0004  0.3898
 1060TIP3    H1 3144   0.692   3.822   2.271 -0.5278 -0.2608  0.3822
 1060TIP3    H2 3145   0.546   3.857   2.290 -0.5757 -1.3104  2.1886
 1061TIP3   OH2 3146   0.649   1.047   1.846  0.0360  0.2973 -0.3519
 1061TIP3    H1 3147   0.702   1.120   1.815  1.8301 -1.7458 -2.4105
 1061TIP3    H2 3148   0.559   1.073   1.826  0.7649  1.1839 -2.8938
 1062TIP3   OH2 3149   5.928   6.778   1.625  0.2792 -0.4115 -0.2139
 1062TIP3    H1 3150   5.948   6.762   1.718 -0.1511  0.6176  0.0673
 1062TIP3    H2 3151   6.000   6.737   1.578  0.6493 -0.7066  0.5856
 1063TIP3   OH2 3152   0.078   5.366   4.510 -0.1699 -0.1999 -0.2704
 1063TIP3    H1 3153  -0.003   5.363   4.561 -0.5608 -1.6117 -0.9333
 1063TIP3    H2 3154   0.100   5.274   4.494  1.4040  0.1635 -0.3762
 1064TIP3   OH2 3155   5.685   0.387   4.846  0.3605  0.0036 -0.6543
 1064TIP3    H1 3156   5.715   0.373   4.936 -1.5589 -0.8706 -0.0884
 1064TIP3    H2 3157   5.648   0.303   4.820  0.0651  0.5093 -1.9345
 1065TIP3   OH2 3158   4.149   0.909   5.742 -0.3942  0.0386 -0.4643
 1065TIP3    H1 3159   4.153   0.835   5.803 -0.0861 -0.5060 -1.1282
 1065TIP3    H2 3160   4.078   0.964   5.775  0.2265  0.1213  0.7845
 1066TIP3   OH2 3161   4.174   2.895   4.768 -0.5161 -0.0129 -0.2040
 1066TIP3    H1 3162   4.158   2.807   4.734  0.7810  0.6579 -2.7778
 1066TIP3    H2 3163   4.098   2.912   4.825 -1.1137 -2.5047 -0.1090
 1067TIP3   OH2 3164   5.804   1.446   2.621  0.2480  0.2698 -0.7381
 1067TIP3    H1 3165   5.835   1.436   2.711  0.7479  0.1674 -0.9183
 1067TIP3    H2 3166   5.763   1.362   2.600  2.2796 -0.6393 -1.4153
 1068TIP3   OH2 3167   6.512   6.290   3.643 -0.1383 -0.2438  0.2662
 1068TIP3    H1 3168   6.436   6.286   3.584 -0.4761  0.1235  0.6743
 1068TIP3    H2 3169   6.543   6.199   3.647  0.1069 -0.2239 -0.7504
 1069TIP3   OH2 3170   3.194   2.250   1.955  0.0444 -0.0418  0.0506
 1069TIP3    H1 3171   3.150   2.200   1.885 -0.3224  0.4795 -0.0978
 1069TIP3    H2 3172   3.277   2.278   1.916  1.0682 -2.0009  0.7034
 1070TIP3   OH2 3173   0.657   0.989   5.519  0.2659  0.1333 -0.2879
 1070TIP3    H1 3174   0.574   1.028   5.548  0.4358  1.1262 -1.0787
 1070TIP3    H2 3175   0.723   1.028   5.577  0.1740 -0.8216  0.4845
 1071TIP3   OH2 3176   3.862   6.082   0.898 -0.3580  0.2105  0.2447
 1071TIP3    H1 3177   3.850   6.147   0.967 -0.3955 -0.8926  1.2931
 1071TIP3    H2 3178   3.775   6.046   0.883 -0.0336 -0.8716  0.9422
 1072TIP3   OH2 3179   0.720   2.122   2.374 -0.1150 -0.2258 -0.3421
 1072TIP3    H1 3180   0.796   2.117   2.432 -0.4935  1.4038  0.3440
 1072TIP3    H2 3181   0.649   2.155   2.429  0.0583  3.6140 -2.0662
 1073TIP3   OH2 3182   4.223   4.901   1.130  0.2222  0.2428  0.2253
 1073TIP3    H1 3183   4.160   4.847   1.177 -0.0592  0.4091  0.0430
 1073TIP3    H2 3184   4.244   4.851   1.051 -1.2180  1.0644 -0.7287
 1074TIP3   OH2 3185   0.758   3.614   4.412 -0.1368 -0.5844 -0.0580
 1074TIP3    H1 3186   0.749   3.706   4.390  0.7244 -0.2297  0.9771
 1074TIP3    H2 3187   0.845   3.590   4.380  1.2900  0.0266  2.9690
 1075TIP3   OH2 3188   1.843   4.778   3.103  0.1226  0.1322 -0.2402
 1075TIP3    H1 3189   1.752   4.764   3.076  0.3208 -1.7835 -0.0576
 1075TIP3    H2 3190   1.845   4.869   3.133 -1.8594  0.0651  0.2523
 1076TIP3   OH2 3191   0.448   0.749   1.703 -0.4624 -0.1385 -0.0510
 1076TIP3    H1 3192   0.491   0.835   1.700  1.3473 -0.9659  0.4613
 1076TIP3    H2 3193   0.466   0.710   1.618  0.1966 -0.6688  0.3275
 1077TIP3   OH2 3194   6.764   1.078   5.117  0.3573 -0.1247 -0.1981
 1077TIP3    H1 3195   6.686   1.132   5.127  1.3611  1.7209 -1.6440
 1077TIP3    H2 3196   6.806   1.080   5.203 -0.3557  0.2146  0.1477
 1078TIP3   OH2 3197   1.022   3.409   5.105  0.4043 -0.1790  0.6719
 1078TIP3    H1 3198   0.969   3.469   5.053  0.8241 -0.8453 -0.5599
 1078TIP3    H2 3199   1.026   3.329   5.054  2.1260 -0.3414  0.9840
 1079TIP3   OH2 3200   0.095   6.489   0.536 -0.7840  0.5302  0.1782
 1079TIP3    H1 3201   0.165   6.542   0.498 -0.6789 -1.9164 -3.6014
 1079TIP3    H2 3202   0.024   6.494   0.472 -1.9955 -1.2196  1.3087
 1080TIP3   OH2 3203   4.377   1.959   5.770  0.5558 -0.1567 -0.2513
 1080TIP3    H1 3204   4.452   1.994   5.819  0.0503 -0.9102  1.1372
 1080TIP3    H2 3205   4.348   2.032   5.715  1.8386  0.3821 -0.2504
 1081TIP3   OH2 3206   2.541   0.497  -0.026  0.2753  0.2714  0.4172
 1081TIP3    H1 3207   2.547   0.571   0.035  1.2535  1.1052 -0.6561
 1081TIP3    H2 3208   2.618   0.444  -0.007  1.1750  1.0939 -0.7552
 1082TIP3   OH2 3209   5.393   2.525   3.303  0.1031  0.0746 -0.6379
 1082TIP3    H1 3210   5.364   2.451   3.250  0.6593 -0.1588 -0.6280
 1082TIP3    H2 3211   5.322   2.589   3.296 -0.6695 -0.7006 -0.1535
 1083TIP3   OH2 3212   0.258   5.166   2.571  0.5187 -0.0164  0.0051
 1083TIP3    H1 3213   0.283   5.075   2.585  1.7181  0.1333 -0.9895
 1083TIP3    H2 3214   0.171   5.161   2.531  1.2194 -0.8072 -1.4748
 1084TIP3   OH2 3215   6.159   1.303   2.405  0.2213 -0.1323  0.7255
 1084TIP3    H1 3216   6.072   1.337   2.385 -0.1846 -0.5506  1.6814
 1084TIP3    H2 3217   6.212   1.325   2.329 -1.3324 -2.1357 -1.0526
 1085TIP3   OH2 3218   3.902   1.873   1.960  0.2584 -0.4938 -0.4299
 1085TIP3    H1 3219   3.902   1.898   2.052 -0.1851 -0.9514 -0.3027
 1085TIP3    H2 3220   3.950   1.790   1.957 -1.6183 -1.6524 -0.2649
 1086TIP3   OH2 3221   1.155   2.516   3.187 -0.3196 -0.1324 -0.1198
 1086TIP3    H1 3222   1.108   2.464   3.121 -0.7993  0.4818 -0.2707
 1086TIP3    H2 3223   1.245   2.519   3.155 -0.9074  1.8114 -1.8467
 1087TIP3   OH2 3224   4.413   1.951   2.059  0.2964  0.2954  1.5025
 1087TIP3    H1 3225   4.355   1.950   2.135 -0.2451 -0.2135  1.0849
 1087TIP3    H2 3226   4.416   2.044   2.033 -1.4219  0.1722  0.7170
 1088TIP3   OH2 3227   0.883   5.050   0.707  0.1404 -0.4308 -0.4979
 1088TIP3    H1 3228   0.791   5.031   0.727 -0.4746  3.1371  0.7219
 1088TIP3    H2 3229   0.932   4.987   0.760 -1.6464  0.0449  1.9383
 1089TIP3   OH2 3230   4.234   3.839   2.771  0.2444  0.0805  0.1453
 1089TIP3    H1 3231   4.323   3.864   2.744  0.0546 -0.3712 -0.9534
 1089TIP3    H2 3232   4.234   3.744   2.771 -0.6201  0.0580 -1.2427
 1090TIP3   OH2 3233   0.935   5.256   1.956  0.6398 -0.4038  0.4644
 1090TIP3    H1 3234   0.884   5.218   2.028  0.0364 -1.6426 -0.5905
 1090TIP3    H2 3235   0.901   5.214   1.877  1.5993  0.5966 -0.5173
 1091TIP3   OH2 3236   4.096   4.055   3.003 -0.7838  0.3876 -0.0684
 1091TIP3    H1 3237   4.094   4.021   2.914 -1.9236  0.4556 -0.0805
 1091TIP3    H2 3238   4.004   4.059   3.030 -0.4308 -0.1800  1.3223
 1092TIP3   OH2 3239   4.736   4.768   4.470 -0.1279  0.0952  0.5763
 1092TIP3    H1 3240   4.689   4.733   4.394 -0.8232 -0.4026  1.2171
 1092TIP3    H2 3241   4.828   4.751   4.452 -0.2955 -0.1279 -0.0955
 1093TIP3   OH2 3242   2.563   1.358   5.171 -0.2079 -0.3505 -0.5207
 1093TIP3    H1 3243   2.554   1.375   5.264 -0.4357  1.6661 -0.8584
 1093TIP3    H2 3244   2.480   1.320   5.145  0.0389 -1.3917  0.1704
 1094TIP3   OH2 3245   5.206   4.136   3.596  0.2209 -0.7971 -0.1915
 1094TIP3    H1 3246   5.195   4.198   3.668 -0.9848 -1.2349  0.0223
 1094TIP3    H2 3247   5.236   4.190   3.523 -1.7749  0.2724 -0.3094
 1095TIP3   OH2 3248   0.057   2.939   0.397  0.2390 -0.1672 -0.0152
 1095TIP3    H1 3249   0.018   2.855   0.375 -0.9386  0.1103  0.8807
 1095TIP3    H2 3250   0.024   2.999   0.331 -0.6583  0.0035  0.5645
 1096TIP3   OH2 3251   4.517   3.355   3.198 -0.1801  0.3595  0.5490
 1096TIP3    H1 3252   4.433   3.319   3.227  0.4282 -0.0245  1.9042
 1096TIP3    H2 3253   4.567   3.368   3.278  2.1671 -2.1853 -0.3230
 1097TIP3   OH2 3254   2.935   3.753   3.331  0.1521  0.6168  0.5966
 1097TIP3    H1 3255   2.897   3.827   3.378 -1.8974  0.9422 -1.4152
 1097TIP3    H2 3256   2.860   3.711   3.288  1.8887  0.9013 -3.1154
 1098TIP3   OH2 3257   6.484   1.256   0.028 -0.6462 -0.1224  0.2278
 1098TIP3    H1 3258   6.472   1.221   0.116  0.7290  0.8255  0.8157
 1098TIP3    H2 3259   6.398   1.248  -0.013 -0.9280 -2.1060  1.0674
 1099TIP3   OH2 3260   3.222   6.093   1.268 -0.1540 -0.0472 -0.3083
 1099TIP3    H1 3261   3.179   6.175   1.290 -0.8781 -0.1305 -1.3389
 1099TIP3    H2 3262   3.175   6.027   1.320  0.0042  0.0931  0.0222
 1100TIP3   OH2 3263   6.636   3.662   4.399 -0.7671 -0.9035 -0.4188
 1100TIP3    H1 3264   6.685   3.580   4.401  1.0942  0.1467  0.0832
 1100TIP3    H2 3265   6.668   3.707   4.321 -1.6406 -0.5653 -0.5947
 1101TIP3   OH2 3266   5.120   5.171   2.494 -0.3439  0.2669 -0.2682
 1101TIP3    H1 3267   5.034   5.165   2.453 -0.4307 -0.0724 -0.0427
 1101TIP3    H2 3268   5.129   5.263   2.517 -0.3778  0.4284 -0.8625
 1102TIP3   OH2 3269   6.976   4.523   0.655 -0.0055 -0.3484  0.1471
 1102TIP3    H1 3270   6.903   4.483   0.608  0.3188  0.8475 -1.4946
 1102TIP3    H2 3271   7.034   4.451   0.677 -1.8287 -1.3784  1.8335
 1103TIP3   OH2 3272   6.518   5.937   0.835 -0.4925  0.5381 -0.1310
 1103TIP3    H1 3273   6.422   5.938   0.835 -0.6948 -1.9031  2.8093
 1103TIP3    H2 3274   6.543   6.021   0.873 -1.6026  0.4632  0.8273
 1104TIP3   OH2 3275   2.721   0.648   0.720 -0.0347 -0.1108  0.0700
 1104TIP3    H1 3276   2.771   0.567   0.719  2.4153  1.2981 -0.7147
 1104TIP3    H2 3277   2.675   0.649   0.636 -0.9503 -1.1473  0.5418
 1105TIP3   OH2 3278   2.206   3.253   3.957 -0.1725 -0.6328 -0.4709
 1105TIP3    H1 3279   2.272   3.322   3.966  2.2234 -2.8759  0.6095
 1105TIP3    H2 3280   2.122   3.298   3.970  1.3026  1.8531  1.5754
 1106TIP3   OH2 3281   4.143   0.521   1.158  0.4106 -0.0495  0.4027
 1106TIP3    H1 3282   4.189   0.596   1.119 -0.2570 -0.1904 -0.7159
 1106TIP3    H2 3283   4.056   0.554   1.178  1.0988  0.3681  3.0281
 1107TIP3   OH2 3284   1.754   1.242   3.053  0.0263 -0.3750 -0.0692
 1107TIP3    H1 3285   1.677   1.191   3.079  1.1544 -2.2487 -0.2308
 1107TIP3    H2 3286   1.717   1.319   3.009 -1.7585 -1.4678 -0.6017
 1108TIP3   OH2 3287   2.245   3.222   3.200 -0.4483  0.2219 -0.1603
 1108TIP3    H1 3288   2.161   3.182   3.220 -1.1591  0.8582 -1.7397
 1108TIP3    H2 3289   2.296   3.153   3.158 -0.2372 -0.0975  0.5962
 1109TIP3   OH2 3290   0.710   1.012   0.534 -0.4169  0.3712  0.7434
 1109TIP3    H1 3291   0.782   1.074   0.541 -0.6209  0.6400  0.5235
 1109TIP3    H2 3292   0.663   1.019   0.617 -1.2749  1.5756  0.1952
 1110TIP3   OH2 3293   7.143   5.138   0.126 -0.8721  0.7437  0.5321
 1110TIP3    H1 3294   7.095   5.104   0.201 -2.2219  0.8564 -0.2608
 1110TIP3    H2 3295   7.087   5.121   0.050  0.4814  0.5713 -0.4842
 1111TIP3   OH2 3296   5.216   6.755   4.428 -0.8240 -0.0163  0.0951
 1111TIP3    H1 3297   5.283   6.700   4.469  2.6203  0.7101 -3.8820
 1111TIP3    H2 3298   5.240   6.844   4.453 -1.3025  0.1609 -0.0756
 1112TIP3   OH2 3299   1.436   5.997   1.935  0.1578 -0.2583  0.7568
 1112TIP3    H1 3300   1.457   5.942   2.010 -0.0969 -0.7295  0.4852
 1112TIP3    H2 3301   1.341   5.990   1.925  0.0845  0.4594  0.8967
 1113TIP3   OH2 3302   5.686   3.675   3.361 -0.1365 -0.2656  0.1089
 1113TIP3    H1 3303   5.683   3.732   3.437  2.3120 -0.7650  0.6697
 1113TIP3    H2 3304   5.716   3.591   3.395  3.6632  0.1831 -1.6021
 1114TIP3   OH2 3305   2.375   6.044   5.554  0.1885  0.0181  0.1709
 1114TIP3    H1 3306   2.343   6.065   5.642  2.9712 -0.1003  1.3326
 1114TIP3    H2 3307   2.440   6.112   5.535  1.0070 -1.0282 -0.9464
 1115TIP3   OH2 3308   5.186   2.247   2.723 -0.4951 -0.4421 -0.0501
 1115TIP3    H1 3309   5.130   2.189   2.775 -0.5061 -1.3828 -1.0792
 1115TIP3    H2 3310   5.138   2.260   2.641 -0.7960  1.5857  0.3978
 1116TIP3   OH2 3311   2.048   0.143   3.444  0.2707  0.5012  0.5203
 1116TIP3    H1 3312   2.116   0.080   3.420  0.9076  1.9210 -1.7464
 1116TIP3    H2 3313   2.004   0.103   3.519  1.0521 -2.3102 -0.3774
 1117TIP3   OH2 3314   4.927   6.410   2.474 -0.0897 -0.7277  0.9228
 1117TIP3    H1 3315   4.928   6.318   2.502  0.2141 -0.5895  1.3677
 1117TIP3    H2 3316   4.994   6.414   2.405  0.5384 -0.6465  1.5318
 1118TIP3   OH2 3317   5.606   3.214   1.075  0.1596 -0.6430 -0.3615
 1118TIP3    H1 3318   5.571   3.253   1.156  0.1691 -2.6382  0.6679
 1118TIP3    H2 3319   5.698   3.240   1.074  0.1964 -0.7276  0.3550
 1119TIP3   OH2 3320   1.296   6.651   3.175 -0.1584  0.2076 -0.1399
 1119TIP3    H1 3321   1.343   6.672   3.257  0.2309  0.8019 -0.5082
 1119TIP3    H2 3322   1.365   6.645   3.109 -0.4902 -0.1049 -0.4642
 1120TIP3   OH2 3323   1.286   0.567   3.839  1.0786  0.4376 -0.2274
 1120TIP3    H1 3324   1.308   0.644   3.786 -0.4305  1.9586  1.2168
 1120TIP3    H2 3325   1.354   0.565   3.907  0.5353  1.1552  0.3510
 1121TIP3   OH2 3326   0.104   3.406   1.512  0.7641  0.3698  0.4990
 1121TIP3    H1 3327   0.012   3.377   1.511  0.8608 -0.2579  2.7986
 1121TIP3    H2 3328   0.101   3.491   1.556  1.0961  1.4492 -1.4438
 1122TIP3   OH2 3329   3.465   0.101   5.363  0.2046  0.3595  0.3159
 1122TIP3    H1 3330   3.390   0.051   5.396 -0.0587  0.1765 -0.5495
 1122TIP3    H2 3331   3.486   0.061   5.279  1.8603 -0.1901  0.9504
 1123TIP3   OH2 3332   4.373   6.081   0.963  0.0759  0.2654 -1.1991
 1123TIP3    H1 3333   4.463   6.053   0.945  1.3174  1.3383  2.3159
 1123TIP3    H2 3334   4.346   6.027   1.037 -1.8947  0.5345 -1.6695
 1124TIP3   OH2 3335   2.545   4.239   1.839 -0.0401 -0.1927  0.3160
 1124TIP3    H1 3336   2.468   4.198   1.878 -0.8267 -0.9026 -1.8170
 1124TIP3    H2 3337   2.510   4.306   1.781  0.8518 -1.1210 -1.3779
 1125TIP3   OH2 3338   1.945   2.888   2.363 -0.0963  0.3996 -0.7228
 1125TIP3    H1 3339   1.923   2.927   2.278  0.2196 -1.1002 -1.5166
 1125TIP3    H2 3340   1.866   2.840   2.389  0.3608 -0.5178 -0.9863
 1126TIP3   OH2 3341   5.927   5.398   4.141  0.2328  0.3010 -0.3603
 1126TIP3    H1 3342   5.848   5.346   4.126  0.4734  0.2097 -1.3612
 1126TIP3    H2 3343   5.945   5.388   4.235  0.1966 -1.3283 -0.5039
 1127TIP3   OH2 3344   2.695   1.547   1.243  0.5434 -0.4032  0.0681
 1127TIP3    H1 3345   2.602   1.534   1.224  0.0861  0.2759  1.5855
 1127TIP3    H2 3346   2.699   1.547   1.339  1.9106  0.8221  0.0423
 1128TIP3   OH2 3347   2.065   1.469   2.481  0.1665  0.1460  0.0563
 1128TIP3    H1 3348   2.142   1.423   2.514  0.5012  0.4123 -0.3446
 1128TIP3    H2 3349   2.022   1.502   2.559  0.1831 -0.4334  0.3179
 1129TIP3   OH2 3350   4.091   5.142   4.961 -0.1918  0.4673  0.1244
 1129TIP3    H1 3351   4.142   5.163   4.883 -0.1703 -0.8118 -0.2311
 1129TIP3    H2 3352   4.001   5.133   4.929  0.0073 -1.3677 -0.0412
 1130TIP3   OH2 3353   2.431   5.429   5.149  0.0482  0.5798 -0.0607
 1130TIP3    H1 3354   2.479   5.441   5.067 -0.5696  2.3397 -0.1991
 1130TIP3    H2 3355   2.421   5.517   5.184 -0.8503 -0.0178  1.2541
 1131TIP3   OH2 3356   5.050   5.395   1.068 -0.3452 -0.1382  0.1555
 1131TIP3    H1 3357   5.132   5.356   1.039 -0.0144  1.8051 -1.7781
 1131TIP3    H2 3358   5.055   5.487   1.040 -2.2943  0.5792  1.8660
 1132TIP3   OH2 3359   3.548   0.742   3.694  0.0292  0.5391 -0.2354
 1132TIP3    H1 3360   3.559   0.700   3.609 -0.2686  0.0356 -0.0351
 1132TIP3    H2 3361   3.554   0.670   3.757 -1.7357  0.5818  0.0447
 1133TIP3   OH2 3362   1.291   5.965   2.545 -0.6151 -0.3445 -0.0234
 1133TIP3    H1 3363   1.289   5.924   2.632  1.2049  0.8044  0.6321
 1133TIP3    H2 3364   1.277   6.058   2.562  2.2378  0.2919 -0.5743
 1134TIP3   OH2 3365   0.952   1.973   2.976 -0.0162  0.3700 -0.0919
 1134TIP3    H1 3366   1.047   1.981   2.984  0.1499 -1.0968 -0.2939
 1134TIP3    H2 3367   0.923   2.060   2.949  0.9642  1.5949  2.4431
 1135TIP3   OH2 3368   4.419   3.656   1.194 -0.7012  0.3887  0.6385
 1135TIP3    H1 3369   4.460   3.570   1.187  0.9938  1.2416 -0.6098
 1135TIP3    H2 3370   4.432   3.682   1.285  1.3507  0.4915  0.3622
 1136TIP3   OH2 3371   5.234   2.992   5.700 -0.8494  0.9191 -0.6653
 1136TIP3    H1 3372   5.316   3.006   5.748 -0.3110  0.4858 -1.4365
 1136TIP3    H2 3373   5.168   3.038   5.752 -0.6031 -0.8505  1.3862
 1137TIP3   OH2 3374   1.109   2.658   5.178 -0.1258 -0.6926 -0.6671
 1137TIP3    H1 3375   1.082   2.567   5.191  1.3731 -1.1701 -0.7438
 1137TIP3    H2 3376   1.173   2.675   5.246 -2.4160  1.2836  1.2032
 1138TIP3   OH2 3377   5.780   0.321   1.762  0.2505  0.0615 -0.6131
 1138TIP3    H1 3378   5.820   0.403   1.731 -0.1889  0.6062  0.2044
 1138TIP3    H2 3379   5.838   0.290   1.831  0.4560 -0.3629 -0.9735
 1139TIP3   OH2 3380   3.946   5.986   1.773 -0.0263 -0.4663 -0.1244
 1139TIP3    H1 3381   4.002   5.911   1.791 -1.6781 -1.7069  0.0005
 1139TIP3    H2 3382   3.886   5.990   1.848 -0.5942  0.3909 -0.6071
 1140TIP3   OH2 3383   5.962   2.171   0.767 -0.3709 -0.1751  0.2546
 1140TIP3    H1 3384   5.959   2.221   0.848  0.8222  0.9864 -0.3878
 1140TIP3    H2 3385   6.000   2.087   0.792  1.2789  0.6615  0.6968
 1141TIP3   OH2 3386   2.937   1.793   4.005  0.2419  0.4963  0.3374
 1141TIP3    H1 3387   2.861   1.828   4.051 -0.4564 -0.5849  0.0313
 1141TIP3    H2 3388   2.901   1.725   3.948  1.2895  0.7582 -0.6644
 1142TIP3   OH2 3389   1.034   6.118   0.192 -0.1953  0.0409 -0.6435
 1142TIP3    H1 3390   1.093   6.192   0.204 -0.6902  0.1703  1.2494
 1142TIP3    H2 3391   0.946   6.157   0.193 -0.4193 -0.4561 -0.7018
 1143TIP3   OH2 3392   0.622   5.623   4.366 -0.0332 -0.2380 -0.3683
 1143TIP3    H1 3393   0.677   5.548   4.391 -0.0816 -0.5834 -1.2549
 1143TIP3    H2 3394   0.602   5.667   4.449  1.7722  0.0319 -0.0223
 1144TIP3   OH2 3395   3.311   6.028   0.116  0.5076  0.3493  0.2188
 1144TIP3    H1 3396   3.235   6.008   0.062  0.6586 -0.7650  0.4096
 1144TIP3    H2 3397   3.275   6.076   0.191  0.0937  0.4994 -0.0721
 1145TIP3   OH2 3398   7.093   0.741   2.753  0.1028 -0.1211 -0.4663
 1145TIP3    H1 3399   7.105   0.692   2.672  0.9900 -0.0773 -0.3739
 1145TIP3    H2 3400   7.096   0.833   2.726 -0.1653 -0.1058 -0.4515
 1146TIP3   OH2 3401   5.900   2.729   4.730  0.0784 -0.1393  0.3561
 1146TIP3    H1 3402   5.894   2.820   4.758  1.2031  0.2951 -0.7141
 1146TIP3    H2 3403   5.819   2.713   4.683  0.2027  0.5679 -0.1160
 1147TIP3   OH2 3404   0.908   5.921   0.911  0.0638  0.7171  0.4222
 1147TIP3    H1 3405   0.898   5.837   0.867 -1.1089  1.3247 -0.5282
 1147TIP3    H2 3406   0.826   5.932   0.959 -0.6652  2.2317 -1.1042
 1148TIP3   OH2 3407   4.761   1.723   0.173 -0.0308  0.5654  0.0009
 1148TIP3    H1 3408   4.703   1.683   0.238  1.2126 -0.1306  0.7243
 1148TIP3    H2 3409   4.794   1.801   0.217 -3.5637  3.4273 -1.9124
 1149TIP3   OH2 3410   4.622   2.503   3.946 -0.3589 -0.0169  0.2704
 1149TIP3    H1 3411   4.620   2.582   4.000 -0.7515 -0.0807  0.3512
 1149TIP3    H2 3412   4.604   2.432   4.008  3.6965 -0.6713  1.0400
 1150TIP3   OH2 3413   0.625   3.853   4.351  0.1987  0.1131  0.2152
 1150TIP3    H1 3414   0.682   3.918   4.393 -0.9261 -0.4246  2.7283
 1150TIP3    H2 3415   0.538   3.872   4.385 -0.2380 -2.4097  0.6569
 1151TIP3   OH2 3416   6.674   5.014   5.611 -0.1835 -0.2312 -0.2301
 1151TIP3    H1 3417   6.689   5.094   5.561  0.1842  0.9271  1.6701
 1151TIP3    H2 3418   6.677   5.041   5.703  1.1231 -2.6156  0.5179
 1152TIP3   OH2 3419   5.464   3.334   1.270 -0.0681  0.4794  0.1575
 1152TIP3    H1 3420   5.456   3.328   1.365 -0.0822 -4.1405  0.0839
 1152TIP3    H2 3421   5.408   3.409   1.246 -2.5152 -0.0277  3.5444
 1153TIP3   OH2 3422   2.097   5.794   5.209  0.5129  0.2621 -0.4377
 1153TIP3    H1 3423   2.123   5.845   5.286  0.9445 -0.0051 -0.4028
 1153TIP3    H2 3424   2.009   5.764   5.229 -0.8050  3.0604 -1.5109
 1154TIP3   OH2 3425   4.220   3.577   0.097 -0.1721  0.1023 -0.0507
 1154TIP3    H1 3426   4.256   3.555   0.183 -2.7418 -0.7906  0.8786
 1154TIP3    H2 3427   4.222   3.672   0.093  1.3876  0.1159  0.3056
 1155TIP3   OH2 3428   4.987   4.409   4.843 -0.3513  0.0726 -0.4106
 1155TIP3    H1 3429   4.910   4.353   4.843 -0.8615  0.7711 -0.3965
 1155TIP3    H2 3430   5.060   4.348   4.856 -0.9599 -0.4991  0.4498
 1156TIP3   OH2 3431   0.576   1.806   3.512  0.1907 -0.2572  0.0453
 1156TIP3    H1 3432   0.560   1.759   3.594 -0.7561  0.8455  0.5169
 1156TIP3    H2 3433   0.656   1.766   3.477 -0.9471 -2.7056  0.0376
 1157TIP3   OH2 3434   4.859   3.315   5.056  0.8406  0.5553  0.4401
 1157TIP3    H1 3435   4.920   3.274   5.116 -0.9467 -0.4568  1.6666
 1157TIP3    H2 3436   4.773   3.285   5.085 -0.4374  3.5773  0.1036
 1158TIP3   OH2 3437   6.766   2.988   5.263  0.2810  0.0195 -0.4398
 1158TIP3    H1 3438   6.693   2.927   5.246  0.7885 -0.7165 -0.0485
 1158TIP3    H2 3439   6.761   3.006   5.356  0.1043  0.6271 -0.5646
 1159TIP3   OH2 3440   0.657   0.142   3.549 -0.0907 -0.3164  1.0851
 1159TIP3    H1 3441   0.577   0.147   3.497 -1.9022  3.4711  3.7439
 1159TIP3    H2 3442   0.722   0.192   3.500 -1.1194  1.3728  1.3894
 1160TIP3   OH2 3443   4.945   3.491   3.874 -0.1925 -0.1106 -0.4149
 1160TIP3    H1 3444   4.852   3.508   3.883 -0.0005  1.0109 -0.4843
 1160TIP3    H2 3445   4.977   3.480   3.964 -0.2579  0.2630 -0.3449
 1161TIP3   OH2 3446   4.024   1.367   4.752  0.0166 -0.4972 -0.2604
 1161TIP3    H1 3447   4.094   1.331   4.806 -1.8978  0.6410  3.3149
 1161TIP3    H2 3448   3.996   1.294   4.696  2.1607 -1.7523  0.2207
 1162TIP3   OH2 3449   3.224   0.127   1.117  0.4388  0.1444  0.0704
 1162TIP3    H1 3450   3.136   0.156   1.141  1.1412  0.9985  1.7822
 1162TIP3    H2 3451   3.210   0.057   1.053 -1.4649  0.4450  0.1129
 1163TIP3   OH2 3452   5.805   3.856   5.625 -0.0542  0.4223 -0.4024
 1163TIP3    H1 3453   5.721   3.898   5.606 -1.0612 -0.8813  0.8954
 1163TIP3    H2 3454   5.841   3.908   5.697 -0.8744 -0.3476  0.5969
 1164TIP3   OH2 3455   6.281   1.726   3.137  0.4469 -0.0594 -0.2178
 1164TIP3    H1 3456   6.197   1.680   3.145  0.2524  0.1440 -1.0139
 1164TIP3    H2 3457   6.336   1.688   3.206  0.0798 -1.0276 -0.4449
 1165TIP3   OH2 3458   0.380   3.750   1.432  0.0884  0.2082 -0.0471
 1165TIP3    H1 3459   0.456   3.695   1.414  0.9733  1.4655 -0.2175
 1165TIP3    H2 3460   0.376   3.756   1.528 -0.0388 -0.1588 -0.0253
 1166TIP3   OH2 3461   5.584   0.141   4.837 -0.1840  0.1415  0.3858
 1166TIP3    H1 3462   5.520   0.079   4.802  0.0295 -0.1210  0.4632
 1166TIP3    H2 3463   5.657   0.087   4.867  0.5112  0.5072 -0.5974
 1167TIP3   OH2 3464   4.664   1.152   2.082 -0.3409  0.2202  0.1504
 1167TIP3    H1 3465   4.682   1.106   2.000 -1.9975  0.7359 -0.5461
 1167TIP3    H2 3466   4.597   1.099   2.125 -0.4075  0.6309  0.5563
 1168TIP3   OH2 3467   3.407   1.448   1.311  0.2521 -0.0973 -0.1388
 1168TIP3    H1 3468   3.425   1.417   1.400 -1.2351 -1.8397 -0.3802
 1168TIP3    H2 3469   3.494   1.463   1.274  0.9019  1.1852  1.7440
 1169TIP3   OH2 3470   2.845   6.005   1.910  0.2114  0.3112 -0.4888
 1169TIP3    H1 3471   2.838   5.934   1.847 -0.5574  0.0643 -0.1418
 1169TIP3    H2 3472   2.790   6.075   1.874 -0.9475 -0.1509  0.3062
 1170TIP3   OH2 3473   2.657   1.340   0.707  0.3418  0.3041 -0.3510
 1170TIP3    H1 3474   2.661   1.351   0.802  1.5764 -0.2442 -0.3124
 1170TIP3    H2 3475   2.593   1.270   0.694 -0.9680  1.4210 -0.0330
 1171TIP3   OH2 3476   2.399   6.525   4.502 -0.0325  0.4667 -0.3485
 1171TIP3    H1 3477   2.399   6.509   4.407  0.7528  0.0746 -0.2877
 1171TIP3    H2 3478   2.491   6.534   4.525 -0.1099 -0.7755  0.5865
 1172TIP3   OH2 3479   4.091   1.104   0.258  0.1381  0.7675  1.0674
 1172TIP3    H1 3480   4.080   1.188   0.302  0.6212  0.6246  1.4645
 1172TIP3    H2 3481   4.177   1.110   0.216 -0.1496  0.7566  0.4556
 1173TIP3   OH2 3482   5.775   4.296   1.518  0.3716 -0.2627 -0.4827
 1173TIP3    H1 3483   5.852   4.280   1.465  0.7415 -0.4467  0.0962
 1173TIP3    H2 3484   5.789   4.244   1.597  1.2183  2.1907  1.1099
 1174TIP3   OH2 3485   5.983   3.543   0.490  0.1576  0.1807  0.5737
 1174TIP3    H1 3486   5.905   3.497   0.458  0.6195 -1.1246  1.2570
 1174TIP3    H2 3487   6.029   3.570   0.411 -0.2360 -0.3497  0.1572
 1175TIP3   OH2 3488   2.851   1.388   4.453  0.0018  0.3158  0.2186
 1175TIP3    H1 3489   2.796   1.349   4.521 -0.5747 -0.2220 -0.5374
 1175TIP3    H2 3490   2.903   1.454   4.499 -0.7704  0.3464  1.0798
 1176TIP3   OH2 3491   2.528   2.994   2.242  0.6307 -0.5973 -0.3743
 1176TIP3    H1 3492   2.489   2.956   2.163 -1.0807  0.2072  0.0199
 1176TIP3    H2 3493   2.622   2.992   2.227  0.4267 -2.1869 -1.6218
 1177TIP3   OH2 3494   5.440   0.265   4.094  0.0044  0.3138  0.2809
 1177TIP3    H1 3495   5.452   0.360   4.091  0.4273  0.2812  0.7757
 1177TIP3    H2 3496   5.487   0.237   4.173 -3.2951  0.1674  2.4074
 1178TIP3   OH2 3497   3.707   4.427   5.425  0.6684 -0.3744 -0.3231
 1178TIP3    H1 3498   3.729   4.483   5.500  3.0528 -1.8978  0.1937
 1178TIP3    H2 3499   3.619   4.395   5.445  1.2590 -0.7920  1.9105
 1179TIP3   OH2 3500   5.687   0.473   2.310  0.7556 -0.7792  0.4488
 1179TIP3    H1 3501   5.703   0.501   2.400 -0.5095 -1.5976  0.9619
 1179TIP3    H2 3502   5.678   0.378   2.316  2.2630 -1.0434 -0.8241
 1180TIP3   OH2 3503   0.854   5.151   3.181 -0.2468 -0.0587 -0.0165
 1180TIP3    H1 3504   0.815   5.171   3.266 -1.9888 -0.7747 -0.6041
 1180TIP3    H2 3505   0.817   5.066   3.157 -0.0756  0.2942 -1.6559
 1181TIP3   OH2 3506   1.942   0.993   5.595  0.2297  0.0722  0.2113
 1181TIP3    H1 3507   1.961   0.905   5.627 -0.4684  0.3370  1.4099
 1181TIP3    H2 3508   1.853   0.987   5.558  0.8728 -0.1355 -1.3953
 1182TIP3   OH2 3509   7.127   6.113   4.154  0.2781  0.1287  0.2804
 1182TIP3    H1 3510   7.149   6.026   4.120  0.5275 -0.0187  0.8100
 1182TIP3    H2 3511   7.038   6.128   4.124  0.3347 -0.1860 -0.0623
 1183TIP3   OH2 3512   6.809   6.341   0.961 -0.2415  0.4111 -0.6294
 1183TIP3    H1 3513   6.870   6.399   0.916 -0.0792  1.3425  0.7187
 1183TIP3    H2 3514   6.731   6.394   0.975 -1.1210 -0.5569 -1.7220
 1184TIP3   OH2 3515   0.055   5.924   5.079 -0.1513 -0.1440  0.5494
 1184TIP3    H1 3516  -0.013   5.857   5.091  0.0875 -1.3919 -3.5707
 1184TIP3    H2 3517   0.007   6.002   5.052 -0.0985 -0.9449 -2.0845
 1185TIP3   OH2 3518   4.959   1.120   3.601 -0.7402  0.4229 -0.1400
 1185TIP3    H1 3519   4.949   1.028   3.625  1.6326 -0.1870 -1.2175
 1185TIP3    H2 3520   4.901   1.131   3.526 -0.6206 -0.3746 -0.3626
 1186TIP3   OH2 3521   2.525   5.114   2.377  0.2886  0.0946 -0.2047
 1186TIP3    H1 3522   2.608   5.139   2.337 -0.0124  1.2053 -0.1743
 1186TIP3    H2 3523   2.465   5.184   2.353 -0.2302  0.1153  1.0975
 1187TIP3   OH2 3524   1.921   2.889   0.973 -0.3048  0.3792  0.2440
 1187TIP3    H1 3525   1.990   2.854   1.030 -0.9692 -1.1539  0.1607
 1187TIP3    H2 3526   1.923   2.834   0.895 -0.8121  1.1122 -0.3053
 1188TIP3   OH2 3527   2.517   0.136   2.759  0.1488 -0.6196 -0.2468
 1188TIP3    H1 3528   2.569   0.069   2.802  2.0674  0.6515 -0.4637
 1188TIP3    H2 3529   2.502   0.202   2.826 -0.4983 -0.5817 -0.4178
 1189TIP3   OH2 3530   4.238   5.279   2.670 -0.4116  0.2306 -0.0197
 1189TIP3    H1 3531   4.178   5.305   2.738 -1.7725  0.0517 -1.1078
 1189TIP3    H2 3532   4.182   5.245   2.600  0.9868 -0.5979 -0.7908
 1190TIP3   OH2 3533   6.702   0.842   3.518  0.1507 -0.8819  0.6237
 1190TIP3    H1 3534   6.689   0.815   3.609 -0.1520  0.6622  1.0706
 1190TIP3    H2 3535   6.614   0.854   3.484  0.1850  2.4239  1.3966
 1191TIP3   OH2 3536   5.637   5.858   3.770 -0.3591 -0.1219 -0.0795
 1191TIP3    H1 3537   5.676   5.774   3.746  0.1120 -0.2424  1.0558
 1191TIP3    H2 3538   5.551   5.857   3.729  0.8448  0.2461 -2.8467
 1192TIP3   OH2 3539   1.419   5.020   3.676  0.3512  0.7666  0.7377
 1192TIP3    H1 3540   1.336   5.043   3.719 -0.0611  0.7812 -0.0456
 1192TIP3    H2 3541   1.399   5.022   3.583  1.0426  0.0149  0.5612
 1193TIP3   OH2 3542   2.653   1.035   3.655  0.6392  0.2867  0.5040
 1193TIP3    H1 3543   2.621   1.102   3.595  0.0034  1.3671  2.0161
 1193TIP3    H2 3544   2.737   1.008   3.618 -0.9462 -1.1706 -2.4455
 1194TIP3   OH2 3545   3.235   3.642   0.893 -0.3861 -0.3165  0.0721
 1194TIP3    H1 3546   3.141   3.626   0.899 -0.8231  2.1825  1.3550
 1194TIP3    H2 3547   3.242   3.736   0.876  1.8911 -0.4306  0.1142
 1195TIP3   OH2 3548   2.043   0.716   5.241  0.1758 -0.2017  0.1138
 1195TIP3    H1 3549   2.079   0.680   5.322 -0.0746 -1.6456 -0.3852
 1195TIP3    H2 3550   2.078   0.659   5.172 -2.2144 -1.0536 -0.4858
 1196TIP3   OH2 3551   0.387   1.145   1.788  0.0649  0.1409 -0.1646
 1196TIP3    H1 3552   0.397   1.136   1.694  0.5661 -0.5002 -0.0588
 1196TIP3    H2 3553   0.316   1.208   1.799  0.1770  0.4159 -0.9647
 1197TIP3   OH2 3554   5.928   2.150   4.180  0.4900 -0.4753  0.4267
 1197TIP3    H1 3555   5.911   2.243   4.193  2.2324  0.0979 -0.9985
 1197TIP3    H2 3556   5.982   2.124   4.255 -1.5925 -0.8948  1.8786
 1198TIP3   OH2 3557   4.138   4.503   0.962 -0.8638 -0.5605 -0.1091
 1198TIP3    H1 3558   4.111   4.554   1.038  1.6571  0.2611  0.3348
 1198TIP3    H2 3559   4.136   4.412   0.992  0.2212 -0.2369  1.0396
 1199TIP3   OH2 3560   1.654   1.964   3.044  0.3344 -0.4032  0.4577
 1199TIP3    H1 3561   1.621   2.042   2.999  0.3593 -1.2119 -1.0126
 1199TIP3    H2 3562   1.578   1.928   3.089 -0.2496 -0.8634 -0.8547
 1200TIP3   OH2 3563   1.587   6.747   5.346 -0.1281 -0.1213 -0.6040
 1200TIP3    H1 3564   1.607   6.675   5.287 -0.9962 -0.9505  0.0760
 1200TIP3    H2 3565   1.672   6.778   5.377  0.2319 -2.1299  0.5706
 1201TIP3   OH2 3566   2.602   6.546   5.672 -0.4909 -0.0768 -0.1181
 1201TIP3    H1 3567   2.666   6.502   5.728 -0.6164 -1.5260 -1.0577
 1201TIP3    H2 3568   2.655   6.607   5.620  0.2147 -1.4183 -1.0437
 1202TIP3   OH2 3569   0.110   3.413   3.098 -0.5682 -0.2631  0.5830
 1202TIP3    H1 3570   0.169   3.410   3.173  1.5085 -1.0916 -1.0033
 1202TIP3    H2 3571   0.143   3.347   3.038 -0.9170  1.6973 -1.9557
 1203TIP3   OH2 3572   6.949   3.315   0.015 -0.2235 -0.6355 -0.4896
 1203TIP3    H1 3573   6.885   3.386   0.007  1.3389  0.6846 -1.8161
 1203TIP3    H2 3574   7.012   3.346   0.079 -0.3849 -1.5372  0.1225
 1204TIP3   OH2 3575   1.216   6.286   0.380  0.0585  0.3444  0.1057
 1204TIP3    H1 3576   1.176   6.371   0.364  1.0014  0.9287  0.7585
 1204TIP3    H2 3577   1.186   6.261   0.467 -0.5982 -0.2372 -0.2691
 1205TIP3   OH2 3578   6.061   4.030   3.024  0.0292 -0.0356  0.5481
 1205TIP3    H1 3579   6.002   3.983   3.083 -0.6479 -0.6590 -0.5973
 1205TIP3    H2 3580   6.050   4.122   3.049  0.5230 -0.3613  2.0559
 1206TIP3   OH2 3581   1.539   4.287   1.761 -0.0903 -0.3111 -0.1026
 1206TIP3    H1 3582   1.594   4.336   1.822 -2.3932  2.2457  0.1243
 1206TIP3    H2 3583   1.520   4.205   1.806  0.4676  0.3612  1.4218
 1207TIP3   OH2 3584   2.192   4.270   2.696  0.5224  0.5469 -0.0798
 1207TIP3    H1 3585   2.147   4.245   2.777 -1.0435  0.7334 -0.8585
 1207TIP3    H2 3586   2.160   4.358   2.677  0.2459  0.1943 -1.3239
 1208TIP3   OH2 3587   3.856   0.572   4.512 -0.6743  0.4647 -0.3137
 1208TIP3    H1 3588   3.942   0.546   4.545  0.4412  3.5239 -0.4724
 1208TIP3    H2 3589   3.857   0.544   4.420 -0.3737 -0.5629 -0.0174
 1209TIP3   OH2 3590   2.050   2.828   1.229  0.6153 -0.0073 -0.4492
 1209TIP3    H1 3591   2.141   2.852   1.210  0.9174 -1.0140 -0.3013
 1209TIP3    H2 3592   2.029   2.878   1.308  0.9472  0.4468 -0.6425
 1210TIP3   OH2 3593   4.466   2.730   0.229  0.0854 -0.1010 -0.6460
 1210TIP3    H1 3594   4.541   2.726   0.170  1.5294 -0.9251  1.1557
 1210TIP3    H2 3595   4.495   2.685   0.308 -2.2412 -0.2410  0.2119
 1211TIP3   OH2 3596   5.109   3.858   0.760 -0.1512 -0.4071 -0.2203
 1211TIP3    H1 3597   5.086   3.769   0.735  0.4583 -0.0589 -2.1789
 1211TIP3    H2 3598   5.034   3.911   0.734 -0.0946 -0.2094  0.0118
 1212TIP3   OH2 3599   1.679   6.288   3.986 -0.4430  0.1639 -0.5658
 1212TIP3    H1 3600   1.691   6.278   4.080  1.1817 -1.8312 -0.9081
 1212TIP3    H2 3601   1.592   6.328   3.976 -0.4485  0.8424  1.7602
 1213TIP3   OH2 3602   3.616   0.087   0.701  0.1918  0.0141  0.1019
 1213TIP3    H1 3603   3.598   0.095   0.794  0.9977 -1.0195  0.3688
 1213TIP3    H2 3604   3.627  -0.007   0.687  0.1313  0.1585 -1.0295
 1214TIP3   OH2 3605   2.939   2.733   2.653 -1.0721 -0.0179  0.4410
 1214TIP3    H1 3606   2.875   2.732   2.582 -0.7143  0.7683  0.0976
 1214TIP3    H2 3607   2.966   2.641   2.662 -0.8528 -0.0813 -0.6847
 1215TIP3   OH2 3608   2.783   5.338   1.184  0.1784  0.2575  0.1498
 1215TIP3    H1 3609   2.827   5.356   1.267 -0.1134 -1.2981  0.6828
 1215TIP3    H2 3610   2.805   5.246   1.165  0.6764  0.7274 -1.7751
 1216TIP3   OH2 3611   6.100   4.810   2.481 -0.0202  0.0076  0.0678
 1216TIP3    H1 3612   6.179   4.796   2.534  0.2522  2.7593  0.5291
 1216TIP3    H2 3613   6.030   4.769   2.532  0.9869 -2.1520 -0.1637
 1217TIP3   OH2 3614   1.768   1.604   3.708  0.1344  0.0092  0.4009
 1217TIP3    H1 3615   1.722   1.659   3.644  1.1055  1.2255  0.7080
 1217TIP3    H2 3616   1.773   1.518   3.666 -1.8086  0.0014  0.0845
 1218TIP3   OH2 3617   2.246   3.463   3.593 -0.2085 -0.1326 -0.3031
 1218TIP3    H1 3618   2.321   3.510   3.630 -0.0104 -1.3919  0.9752
 1218TIP3    H2 3619   2.226   3.510   3.512 -0.1223  2.2220  0.9547
 1219TIP3   OH2 3620   5.064   5.690   0.559  0.0897 -0.2217 -0.0724
 1219TIP3    H1 3621   5.143   5.637   0.566  0.7431  0.8185  0.7443
 1219TIP3    H2 3622   5.064   5.724   0.470  1.6339  1.3310  0.4586
 1220TIP3   OH2 3623   3.174   3.309   1.116  0.0895  0.0673 -0.0390
 1220TIP3    H1 3624   3.234   3.314   1.042  0.1365  1.4540  0.0625
 1220TIP3    H2 3625   3.095   3.268   1.081 -0.1189  1.2883 -1.0266
 1221TIP3   OH2 3626   1.750   5.008   0.326 -0.0679  0.6423  0.0896
 1221TIP3    H1 3627   1.811   5.067   0.369 -1.8565  3.2861 -0.7822
 1221TIP3    H2 3628   1.738   5.046   0.239  0.1887 -2.1717 -1.2958
 1222TIP3   OH2 3629   2.668   1.719   0.046  0.9779  0.1634  0.1565
 1222TIP3    H1 3630   2.643   1.777   0.118 -0.8713  0.0019 -0.2908
 1222TIP3    H2 3631   2.690   1.778  -0.026  2.0049  0.3112  0.5718
 1223TIP3   OH2 3632   6.356   3.709   1.608  0.0775 -0.4077  0.2376
 1223TIP3    H1 3633   6.343   3.666   1.524  0.2195 -0.1332  0.0729
 1223TIP3    H2 3634   6.365   3.637   1.671  0.0268 -0.6136  0.0116
 1224TIP3   OH2 3635   4.704   3.531   3.026 -0.0170 -0.1136 -0.1446
 1224TIP3    H1 3636   4.667   3.445   3.047  0.1152  0.1780  1.3316
 1224TIP3    H2 3637   4.648   3.593   3.071  1.1711  0.4458  0.5997
 1225TIP3   OH2 3638   4.807   2.501   3.094 -0.0027 -0.2308 -0.0493
 1225TIP3    H1 3639   4.876   2.480   3.032  0.2721  1.0928 -0.2157
 1225TIP3    H2 3640   4.774   2.586   3.065  0.4455  0.6478  1.8725
 1226TIP3   OH2 3641   3.735   0.068   0.407  0.0479 -0.4795 -0.4964
 1226TIP3    H1 3642   3.658   0.032   0.362  1.2298 -0.6062 -2.5542
 1226TIP3    H2 3643   3.703   0.092   0.494 -2.3811 -0.2708 -1.3656
 1227TIP3   OH2 3644   5.434   0.823   4.407  0.1674 -0.8004 -0.1396
 1227TIP3    H1 3645   5.526   0.812   4.429 -0.1343 -1.4732  0.8367
 1227TIP3    H2 3646   5.397   0.734   4.410  0.0814 -1.0107 -3.4341
 1228TIP3   OH2 3647   0.268   1.818   2.040 -0.1423  0.0423  0.1789
 1228TIP3    H1 3648   0.253   1.884   1.972  0.1224  0.8102  0.8525
 1228TIP3    H2 3649   0.189   1.819   2.093 -0.2961 -0.4664 -0.0324
 1229TIP3   OH2 3650   6.352   3.852   0.125  0.3370  0.3283  0.0306
 1229TIP3    H1 3651   6.357   3.889   0.037 -3.0772 -0.1929 -0.5284
 1229TIP3    H2 3652   6.400   3.769   0.119  0.6042  0.5506 -1.1931
 1230TIP3   OH2 3653   1.143   1.093   3.076  0.5044  0.1318  0.5022
 1230TIP3    H1 3654   1.186   1.011   3.100  2.3449  0.8525 -0.1845
 1230TIP3    H2 3655   1.122   1.135   3.159  2.9594  0.6521  0.9232
 1231TIP3   OH2 3656   2.131   1.699   5.608  0.2111 -0.4977 -0.5924
 1231TIP3    H1 3657   2.187   1.705   5.531  0.3769 -3.3097 -0.7675
 1231TIP3    H2 3658   2.082   1.618   5.597 -0.5126 -0.4611  1.7821
 1232TIP3   OH2 3659   4.240   2.179   3.257 -0.9760  0.6192 -0.8186
 1232TIP3    H1 3660   4.211   2.225   3.335 -2.8919 -1.2387 -0.3183
 1232TIP3    H2 3661   4.312   2.124   3.287  1.0471  2.8373 -1.3337
 1233TIP3   OH2 3662   5.858   1.678   3.851  0.2829 -0.4666 -0.7329
 1233TIP3    H1 3663   5.843   1.625   3.773  2.8779 -2.0530 -0.2473
 1233TIP3    H2 3664   5.788   1.653   3.911 -0.1414 -1.2614 -1.5433
 1234TIP3   OH2 3665   4.034   3.329   5.803  0.4929 -0.5006  0.1205
 1234TIP3    H1 3666   3.961   3.278   5.838  0.3806 -1.6183 -1.5694
 1234TIP3    H2 3667   3.996   3.380   5.732  0.6385  1.9426  1.7119
 1235TIP3   OH2 3668   5.487   2.206   0.129  0.8933 -0.2176  0.3527
 1235TIP3    H1 3669   5.576   2.173   0.137  1.1639 -0.2073 -1.8560
 1235TIP3    H2 3670   5.431   2.131   0.149  1.3300 -0.0321  2.4917
 1236TIP3   OH2 3671   2.611   0.608   5.783 -0.4506 -0.1599 -0.2852
 1236TIP3    H1 3672   2.633   0.697   5.811 -1.7468  0.3779 -0.8600
 1236TIP3    H2 3673   2.685   0.581   5.728  0.8286 -0.1886  1.3822
 1237TIP3   OH2 3674   2.785   4.354   1.122  0.5221  0.1188  0.7699
 1237TIP3    H1 3675   2.728   4.408   1.178 -0.7623  0.6456 -0.9562
 1237TIP3    H2 3676   2.739   4.349   1.038  2.0970 -1.1304 -0.0832
 1238TIP3   OH2 3677   5.877   3.124   3.808  0.0500  0.0584  0.4445
 1238TIP3    H1 3678   5.856   3.217   3.825  1.7409  0.3769  0.9590
 1238TIP3    H2 3679   5.934   3.126   3.731  1.7213 -0.3277  1.6159
 1239TIP3   OH2 3680   6.475   3.874   5.508 -0.3651  0.4679  0.3309
 1239TIP3    H1 3681   6.380   3.881   5.497 -0.5957 -1.5123  0.7505
 1239TIP3    H2 3682   6.511   3.891   5.420 -1.0483  1.5848  0.2433
 1240TIP3   OH2 3683   2.337   1.063   3.828  0.5781 -0.4922  0.6235
 1240TIP3    H1 3684   2.332   1.061   3.732  0.0445 -0.0517  0.6364
 1240TIP3    H2 3685   2.246   1.058   3.856  0.7862 -1.5414  1.1350
 1241TIP3   OH2 3686   5.875   3.111   3.081  0.8508 -0.3679  0.2959
 1241TIP3    H1 3687   5.964   3.141   3.100  1.0080 -0.0197 -0.8651
 1241TIP3    H2 3688   5.834   3.185   3.036 -0.2523 -0.2879  1.3856
 1242TIP3   OH2 3689   4.678   5.259   1.287 -0.3783  0.2871 -0.1692
 1242TIP3    H1 3690   4.647   5.200   1.217  1.4837 -0.5584 -0.3560
 1242TIP3    H2 3691   4.657   5.212   1.368  1.0726 -0.7108 -0.3161
 1243TIP3   OH2 3692   4.660   6.499   0.122  0.2011 -0.2252 -0.1316
 1243TIP3    H1 3693   4.646   6.541   0.208  1.0801  0.8231 -0.4718
 1243TIP3    H2 3694   4.698   6.569   0.068 -1.6828 -0.4140 -1.8312
 1244TIP3   OH2 3695   3.520   4.087   5.154 -0.0572  0.0904  0.1139
 1244TIP3    H1 3696   3.584   4.149   5.190 -1.3198 -0.6529  4.0845
 1244TIP3    H2 3697   3.574   4.014   5.122  1.2249  0.2978  1.6537
 1245TIP3   OH2 3698   0.217   5.660   4.376  0.1917 -0.1301  0.1303
 1245TIP3    H1 3699   0.303   5.622   4.360  0.9837  1.5687  0.1064
 1245TIP3    H2 3700   0.174   5.599   4.436  0.9885 -1.5324 -0.6717
 1246TIP3   OH2 3701   3.896   4.094   1.108 -0.3627 -0.0479  0.1378
 1246TIP3    H1 3702   3.900   4.007   1.148  0.6991  0.4947  1.3031
 1246TIP3    H2 3703   3.873   4.078   1.017  1.6232 -1.6997 -0.1388
 1247TIP3   OH2 3704   4.373   0.517   3.210  0.3494 -0.6608  0.7718
 1247TIP3    H1 3705   4.456   0.537   3.168  0.4020  1.8584  1.8958
 1247TIP3    H2 3706   4.311   0.504   3.138  1.0748  0.4904 -0.0869
 1248TIP3   OH2 3707   3.342   3.349   0.906  0.3385 -0.5036  0.4028
 1248TIP3    H1 3708   3.294   3.401   0.843  0.1271 -2.7544 -1.4173
 1248TIP3    H2 3709   3.422   3.399   0.923  0.8944 -0.2743 -2.4688
 1249TIP3   OH2 3710   5.931   4.367   4.102  0.0604  0.3796 -0.5281
 1249TIP3    H1 3711   5.963   4.427   4.170 -0.9443 -0.1260  0.4134
 1249TIP3    H2 3712   5.839   4.355   4.122 -0.1977  0.0331 -1.8653
 1250TIP3   OH2 3713   0.904   5.242   4.172 -0.3830  0.6913  0.0616
 1250TIP3    H1 3714   0.824   5.195   4.194 -0.3553  0.5866 -0.0595
 1250TIP3    H2 3715   0.884   5.334   4.192 -0.4534  0.6342  0.2500
 1251TIP3   OH2 3716   6.184   2.893   0.899  0.3521 -0.8978 -0.0896
 1251TIP3    H1 3717   6.236   2.902   0.819  0.2624 -1.6623 -0.2422
 1251TIP3    H2 3718   6.202   2.973   0.948 -0.1616 -0.0793 -1.1913
 1252TIP3   OH2 3719   1.584   5.368   4.943 -0.3277 -0.5210 -0.6011
 1252TIP3    H1 3720   1.501   5.390   4.983  0.1200  0.0678  0.0130
 1252TIP3    H2 3721   1.560   5.316   4.866 -1.3416  0.9284 -1.3091
 1253TIP3   OH2 3722   4.025   3.780   3.175 -0.1876  0.2053  0.6714
 1253TIP3    H1 3723   3.957   3.847   3.171  0.6639  1.0923  0.5343
 1253TIP3    H2 3724   4.106   3.827   3.154  0.4865 -0.7920  0.9497
 1254TIP3   OH2 3725   3.452   5.592   1.950 -0.3164  0.1108  0.5241
 1254TIP3    H1 3726   3.462   5.681   1.983 -2.7013 -0.3558  2.7911
 1254TIP3    H2 3727   3.434   5.603   1.856  1.7852  1.7987  0.2500
 1255TIP3   OH2 3728   2.828   4.165   3.017  0.1851  0.5907 -0.2908
 1255TIP3    H1 3729   2.882   4.229   2.969  0.8253 -0.2987 -0.7938
 1255TIP3    H2 3730   2.892   4.104   3.055 -0.3890  0.5327  0.6041
 1256TIP3   OH2 3731   3.896   4.275   1.382 -0.1081 -1.1047 -0.0425
 1256TIP3    H1 3732   3.824   4.336   1.364  0.1692 -0.3702  1.2305
 1256TIP3    H2 3733   3.880   4.202   1.322 -0.8226 -0.0958 -1.1499
 1257TIP3   OH2 3734   6.322   3.506   3.938  0.2819  0.7041 -0.5024
 1257TIP3    H1 3735   6.390   3.489   4.003  0.0749 -0.9719 -0.6784
 1257TIP3    H2 3736   6.370   3.516   3.856  0.3149 -1.1180 -0.7385
 1258TIP3   OH2 3737   0.897   1.822   0.873  0.3064  0.0762 -0.6813
 1258TIP3    H1 3738   0.907   1.901   0.820 -1.2171  0.6366 -0.1967
 1258TIP3    H2 3739   0.909   1.750   0.812  0.9880  0.6930 -1.2858
 1259TIP3   OH2 3740   6.055   0.383   3.111  0.0421  0.3143  0.2553
 1259TIP3    H1 3741   5.961   0.400   3.101 -0.6395 -1.2000  3.0207
 1259TIP3    H2 3742   6.069   0.300   3.067  0.0710  0.5028 -0.0925
 1260TIP3   OH2 3743   1.613   3.101   2.911 -0.0422  0.3686  0.4730
 1260TIP3    H1 3744   1.644   3.173   2.856  2.0425 -2.7235 -2.8583
 1260TIP3    H2 3745   1.538   3.065   2.865  1.3954 -1.9395 -0.2626
 1261TIP3   OH2 3746   3.522   1.604   4.154 -0.3002  0.4932 -0.1851
 1261TIP3    H1 3747   3.448   1.559   4.195  0.1752 -1.6555 -1.5226
 1261TIP3    H2 3748   3.559   1.658   4.224 -1.0406 -1.0606  1.4794
 1262TIP3   OH2 3749   0.308   3.610   4.555  0.1471 -0.2877  0.1251
 1262TIP3    H1 3750   0.321   3.609   4.650 -1.9578 -1.6245  0.4601
 1262TIP3    H2 3751   0.353   3.531   4.524 -0.6822 -0.8344  0.2801
 1263TIP3   OH2 3752   1.684   0.272   1.504  0.5858 -0.1959  0.4852
 1263TIP3    H1 3753   1.658   0.272   1.412  2.5228  0.0955 -0.1237
 1263TIP3    H2 3754   1.604   0.291   1.552 -0.2703  0.7686 -1.2197
 1264TIP3   OH2 3755   0.966   6.070   4.758  0.6011 -0.6445  0.4822
 1264TIP3    H1 3756   0.887   6.075   4.811  0.6100 -0.9758  0.5246
 1264TIP3    H2 3757   1.026   6.134   4.799  0.2826 -0.2353  0.3185
 1265TIP3   OH2 3758   5.364   0.877   3.760  0.4724 -0.4516 -0.1330
 1265TIP3    H1 3759   5.345   0.784   3.772 -1.3967 -0.2249 -1.0248
 1265TIP3    H2 3760   5.412   0.902   3.840 -2.0566 -1.3912  1.8176
 1266TIP3   OH2 3761   0.289   0.152   0.370 -0.0687 -0.3729 -0.4501
 1266TIP3    H1 3762   0.359   0.095   0.338  0.2785 -1.0446  1.3982
 1266TIP3    H2 3763   0.320   0.240   0.349  1.5586 -0.6316  0.6673
 1267TIP3   OH2 3764   4.687   5.235   3.654  0.1410 -1.0910  0.7712
 1267TIP3    H1 3765   4.756   5.275   3.706 -1.1508  0.3591  1.4511
 1267TIP3    H2 3766   4.683   5.144   3.685  1.3779 -1.0643  1.0594
 1268TIP3   OH2 3767   0.690   0.740   3.909  0.7047 -0.2138  0.0736
 1268TIP3    H1 3768   0.598   0.720   3.926  1.1202 -1.4086  1.0446
 1268TIP3    H2 3769   0.735   0.717   3.990  2.0797 -1.2564 -0.9229
 1269TIP3   OH2 3770   1.844   0.474   1.858  0.2121 -0.7097 -0.4399
 1269TIP3    H1 3771   1.825   0.390   1.898 -1.9720  0.8471  2.1486
 1269TIP3    H2 3772   1.776   0.486   1.791 -1.2205  0.0677  1.0810
 1270TIP3   OH2 3773   6.244   3.716   2.763  0.6203 -0.1907  0.4168
 1270TIP3    H1 3774   6.252   3.681   2.851  0.3720 -0.7992  0.2075
 1270TIP3    H2 3775   6.151   3.740   2.755  1.0222  1.7030  0.9761
 1271TIP3   OH2 3776   5.017   4.643   4.167  0.3666  0.0553 -0.3700
 1271TIP3    H1 3777   4.944   4.677   4.115 -0.6917  0.0089  0.9998
 1271TIP3    H2 3778   5.086   4.708   4.157 -0.5751  1.1217 -0.1687
 1272TIP3   OH2 3779   6.970   4.641   0.083  0.7050 -0.0974 -0.6107
 1272TIP3    H1 3780   6.942   4.556   0.049  2.7307 -0.7692 -0.7116
 1272TIP3    H2 3781   6.984   4.695   0.006  2.9753 -0.8708 -0.8022
 1273TIP3   OH2 3782   4.267   3.145   0.512 -0.2521 -0.2229 -0.7857
 1273TIP3    H1 3783   4.193   3.191   0.552  0.3385  0.2288 -0.1942
 1273TIP3    H2 3784   4.300   3.206   0.446 -0.2494 -0.3271 -0.8821
 1274TIP3   OH2 3785   6.191   6.171   5.237  0.1699 -0.5668 -0.0843
 1274TIP3    H1 3786   6.140   6.199   5.160 -0.7464 -0.8974  0.3886
 1274TIP3    H2 3787   6.174   6.238   5.302  0.1398 -0.8033  0.1533
 1275TIP3   OH2 3788   1.237   0.775   4.343 -0.1074 -0.4228 -0.1936
 1275TIP3    H1 3789   1.266   0.733   4.424 -0.7373 -0.1103  0.2064
 1275TIP3    H2 3790   1.143   0.760   4.341 -0.2079  0.2012 -0.4942
 1276TIP3   OH2 3791   2.877   5.870   5.531 -0.0069  0.0630 -0.4893
 1276TIP3    H1 3792   2.856   5.801   5.468 -0.0974  0.2707 -0.6869
 1276TIP3    H2 3793   2.965   5.898   5.508 -0.1090  0.2649 -0.6417
 1277TIP3   OH2 3794   1.451   6.681   0.563 -0.2934 -0.1487  0.0267
 1277TIP3    H1 3795   1.439   6.751   0.499  0.7012  0.0818  0.0697
 1277TIP3    H2 3796   1.493   6.725   0.638  1.2186 -0.9378 -0.3100
 1278TIP3   OH2 3797   2.404   6.528   1.026 -0.1382  0.1503  0.1510
 1278TIP3    H1 3798   2.338   6.597   1.023  2.9050  3.2979  0.6063
 1278TIP3    H2 3799   2.411   6.505   1.118 -0.2444  0.1468  0.1582
 1279TIP3   OH2 3800   6.083   3.542   1.962 -0.3672  0.0413  0.2838
 1279TIP3    H1 3801   6.035   3.619   1.933  1.1808  1.2318  0.7476
 1279TIP3    H2 3802   6.164   3.577   1.999  1.2967 -1.9154 -1.2858
 1280TIP3   OH2 3803   4.021   3.712   3.951  0.1145 -0.3323  0.1270
 1280TIP3    H1 3804   4.055   3.636   3.999 -0.0269 -1.2184 -1.1458
 1280TIP3    H2 3805   3.954   3.676   3.893 -0.9008  0.9654  0.4436
 1281TIP3   OH2 3806   4.051   2.551   1.716  0.1035 -0.1170  0.4683
 1281TIP3    H1 3807   4.096   2.624   1.671 -1.7337  0.1125 -1.1155
 1281TIP3    H2 3808   4.043   2.581   1.806  0.0450  1.3447  0.0138
 1282TIP3   OH2 3809   3.833   0.578   3.914  0.0530 -0.5136 -0.1024
 1282TIP3    H1 3810   3.849   0.618   3.829 -0.4435  0.4227  0.2322
 1282TIP3    H2 3811   3.896   0.506   3.919  0.9886  0.2421 -0.7099
 1283TIP3   OH2 3812   4.846   0.072   2.140 -0.4352  0.9262 -0.4860
 1283TIP3    H1 3813   4.892   0.068   2.223 -2.3332  0.4494  0.6010
 1283TIP3    H2 3814   4.885   0.147   2.094  0.4511  1.3730  0.9497
 1284TIP3   OH2 3815   5.764   0.067   1.656  0.1745 -0.2707 -1.0978
 1284TIP3    H1 3816   5.763   0.005   1.728  1.1939 -0.0979 -0.9314
 1284TIP3    H2 3817   5.758   0.153   1.697 -1.4881 -0.2254 -1.3377
 1285TIP3   OH2 3818   0.325   2.738   2.589  0.2238 -0.4237 -0.6014
 1285TIP3    H1 3819   0.378   2.772   2.517  0.6688  1.0668  0.3833
 1285TIP3    H2 3820   0.251   2.695   2.547  0.4303  0.4936 -1.9480
 1286TIP3   OH2 3821   7.141   6.031   0.476 -0.7259 -0.2388 -0.8741
 1286TIP3    H1 3822   7.172   6.084   0.403  1.7607 -0.2455  0.0817
 1286TIP3    H2 3823   7.185   5.946   0.466 -2.4894 -1.2057 -0.8481
 1287TIP3   OH2 3824   6.610   0.389   0.143 -0.1716 -0.0930  0.1313
 1287TIP3    H1 3825   6.531   0.385   0.089  0.1114 -0.2527 -0.2770
 1287TIP3    H2 3826   6.596   0.465   0.199 -0.6432 -0.1552  0.1099
 1288TIP3   OH2 3827   2.973   4.912   3.699  0.3280  0.0738 -0.3264
 1288TIP3    H1 3828   2.958   4.918   3.794  0.9846 -1.1019 -0.1248
 1288TIP3    H2 3829   3.064   4.940   3.688  0.4333 -0.3464 -0.5336
 1289TIP3   OH2 3830   5.876   0.112   3.983  0.3974 -0.6324 -0.0319
 1289TIP3    H1 3831   5.915   0.024   3.984  0.2574 -0.7607 -2.0021
 1289TIP3    H2 3832   5.784   0.096   3.963  0.4915 -0.0137 -1.0018
 1290TIP3   OH2 3833   3.488   5.394   1.046  0.1411 -0.1002  0.1733
 1290TIP3    H1 3834   3.441   5.377   0.964 -2.2134  1.2792  1.1134
 1290TIP3    H2 3835   3.535   5.476   1.030  2.6134 -1.6040 -0.8488
 1291TIP3   OH2 3836   1.590   3.129   2.302  0.8204 -0.0563 -0.2617
 1291TIP3    H1 3837   1.586   3.051   2.247 -0.2655  0.0489 -0.3676
 1291TIP3    H2 3838   1.499   3.161   2.305  1.1452  0.8761  0.2417
 1292TIP3   OH2 3839   1.928   6.089   3.838  0.2434 -0.6263 -0.4832
 1292TIP3    H1 3840   1.850   6.039   3.863  0.9205 -0.9876  0.9982
 1292TIP3    H2 3841   1.893   6.168   3.797 -1.0306  0.2350  1.9977
 1293TIP3   OH2 3842   5.916   0.514   4.236  0.0702 -0.0569  0.4164
 1293TIP3    H1 3843   5.831   0.537   4.200  0.0468 -0.9531 -0.1474
 1293TIP3    H2 3844   5.902   0.429   4.277  0.2919  0.5802  1.8731
 1294TIP3   OH2 3845   0.569   3.993   5.214 -0.0344 -0.2952 -0.1843
 1294TIP3    H1 3846   0.579   4.083   5.247  1.0053 -0.1497 -0.8324
 1294TIP3    H2 3847   0.635   3.986   5.145  0.7532 -1.9603  0.6900
 1295TIP3   OH2 3848   3.532   0.346   0.439 -0.0158  0.1605 -0.1471
 1295TIP3    H1 3849   3.593   0.306   0.377 -0.0623 -1.3862  0.7706
 1295TIP3    H2 3850   3.452   0.295   0.429 -0.2315  0.3227  0.7307
 1296TIP3   OH2 3851   2.447   0.294   2.957 -0.5231 -0.0736 -0.2663
 1296TIP3    H1 3852   2.440   0.388   2.941  0.6529  0.2496  0.9902
 1296TIP3    H2 3853   2.398   0.279   3.037 -1.2997 -0.6712 -0.8365
 1297TIP3   OH2 3854   4.057   0.161   1.469  0.0084  0.3737  0.8055
 1297TIP3    H1 3855   3.980   0.202   1.508 -1.1518  0.0131 -1.0158
 1297TIP3    H2 3856   4.066   0.203   1.384  0.2250 -1.4249 -0.1039
 1298TIP3   OH2 3857   0.727   1.993   4.751  0.0376 -0.2483  0.4282
 1298TIP3    H1 3858   0.652   1.951   4.793  1.5585 -0.6220  2.9838
 1298TIP3    H2 3859   0.726   2.083   4.785 -0.4728  0.4264 -1.2765
 1299TIP3   OH2 3860   4.319   2.811   3.993 -0.4416 -0.6063  0.0912
 1299TIP3    H1 3861   4.260   2.887   3.997  0.7439  0.3329  0.3413
 1299TIP3    H2 3862   4.323   2.779   4.083  0.5301  0.2305  0.3680
 1300TIP3   OH2 3863   6.738   0.217   5.105 -0.0550 -0.2214 -0.1919
 1300TIP3    H1 3864   6.743   0.313   5.105 -0.1730 -0.2148 -0.3024
 1300TIP3    H2 3865   6.764   0.193   5.016  0.1950 -0.3048 -0.0984
 1301TIP3   OH2 3866   0.240   4.643   2.978  0.1555  0.6091  0.2834
 1301TIP3    H1 3867   0.296   4.605   2.910 -0.6301 -0.0447 -0.0089
 1301TIP3    H2 3868   0.242   4.737   2.959  1.5602  0.6723  0.5979
 1302TIP3   OH2 3869   1.550   5.847   1.158 -0.2293  0.1296  0.0463
 1302TIP3    H1 3870   1.560   5.891   1.074 -0.4267  0.0339 -0.0265
 1302TIP3    H2 3871   1.484   5.898   1.205  1.4433  1.5164  1.0262
 1303TIP3   OH2 3872   7.126   4.105   5.004 -0.9353 -0.1545  0.0733
 1303TIP3    H1 3873   7.073   4.169   5.052 -1.6151 -1.5968  1.3324
 1303TIP3    H2 3874   7.067   4.031   4.988 -0.6768  0.1708 -2.9132
 1304TIP3   OH2 3875   1.507   1.397   3.620 -0.2954  0.1139 -0.1848
 1304TIP3    H1 3876   1.515   1.358   3.707 -2.0775  1.0448  0.4532
 1304TIP3    H2 3877   1.504   1.491   3.636  0.0161  0.3251 -1.3189
 1305TIP3   OH2 3878   0.794   4.571   3.474 -0.4192 -0.0130 -0.0458
 1305TIP3    H1 3879   0.742   4.637   3.519  0.9540  0.6418  0.6311
 1305TIP3    H2 3880   0.830   4.516   3.543 -0.8346 -0.9565 -0.5535
 1306TIP3   OH2 3881   1.987   0.965   3.583  0.1336 -0.2050  0.1291
 1306TIP3    H1 3882   2.080   0.970   3.562  0.3398  1.2550  1.1950
 1306TIP3    H2 3883   1.982   0.990   3.675 -1.2366 -1.1777  0.3505
 1307TIP3   OH2 3884   3.408   6.435   3.224 -0.2341 -0.2980 -0.0900
 1307TIP3    H1 3885   3.368   6.371   3.283  0.2342 -0.5005  0.0109
 1307TIP3    H2 3886   3.468   6.384   3.170  0.2811  0.0825  0.1187
 1308TIP3   OH2 3887   6.076   1.547   4.893  0.1678  0.5864  0.5931
 1308TIP3    H1 3888   6.162   1.511   4.913  0.2490  1.7167  2.6021
 1308TIP3    H2 3889   6.032   1.551   4.978 -2.1003 -0.4743 -0.4402
 1309TIP3   OH2 3890   5.419   3.182   5.555 -0.1121 -0.2221 -0.0669
 1309TIP3    H1 3891   5.392   3.265   5.594  1.1976  0.3584 -0.3266
 1309TIP3    H2 3892   5.456   3.132   5.627  0.6888  0.1358 -0.2198
 1310TIP3   OH2 3893   5.207   4.096   2.891  0.0866  0.1096 -0.0616
 1310TIP3    H1 3894   5.281   4.158   2.894 -0.2615  0.4872  1.6352
 1310TIP3    H2 3895   5.181   4.095   2.799 -0.9255  3.7958 -0.0046
 1311TIP3   OH2 3896   6.774   2.925   3.029 -0.2917 -0.7555 -0.4512
 1311TIP3    H1 3897   6.842   2.874   3.072  1.2346  0.3129 -1.5117
 1311TIP3    H2 3898   6.705   2.934   3.095  1.1544 -0.7386  1.1215
 1312TIP3   OH2 3899   4.593   4.049   4.072  0.2373 -0.5105  0.4723
 1312TIP3    H1 3900   4.616   4.136   4.105  0.7000  0.1672 -1.4868
 1312TIP3    H2 3901   4.501   4.056   4.048 -0.1230 -1.0284  1.6224
 1313TIP3   OH2 3902   3.151   5.608   5.292 -0.4416 -0.5496  0.2064
 1313TIP3    H1 3903   3.185   5.535   5.239  0.2576  0.5129 -0.8522
 1313TIP3    H2 3904   3.206   5.608   5.370 -2.4679 -3.1240  1.8238
 1314TIP3   OH2 3905   2.293   4.813   1.544  0.1267  0.2557  0.0635
 1314TIP3    H1 3906   2.350   4.889   1.555  0.8105 -0.2133 -0.1775
 1314TIP3    H2 3907   2.279   4.808   1.449 -0.6987  0.6349  0.1539
 1315TIP3   OH2 3908   5.945   0.538   0.955  0.6148 -0.5949  0.6393
 1315TIP3    H1 3909   5.998   0.502   0.884 -1.2639 -0.2100 -1.0544
 1315TIP3    H2 3910   5.855   0.533   0.923 -0.3332 -0.3951  3.0185
 1316TIP3   OH2 3911   0.134   3.400   3.668  0.1633  0.2709 -0.0478
 1316TIP3    H1 3912   0.095   3.453   3.737 -1.4115  1.4047 -1.7040
 1316TIP3    H2 3913   0.101   3.312   3.684  1.1097  0.1780  1.5327
 1317TIP3   OH2 3914   0.090   0.237   2.293 -0.1248 -0.2495 -0.4723
 1317TIP3    H1 3915   0.089   0.293   2.370 -0.7306 -2.3722  1.1574
 1317TIP3    H2 3916   0.006   0.254   2.250 -1.2186 -1.3081  1.1274
 1318TIP3   OH2 3917   5.649   1.808   2.680  0.0912 -0.0502  0.1272
 1318TIP3    H1 3918   5.635   1.748   2.607  0.7228  0.0908 -0.1110
 1318TIP3    H2 3919   5.714   1.764   2.735 -0.3897 -0.1610  0.6126
 1319TIP3   OH2 3920   4.298   6.594   5.346 -0.2813  0.1407  0.0223
 1319TIP3    H1 3921   4.376   6.538   5.342 -0.2217  0.2716 -0.6474
 1319TIP3    H2 3922   4.250   6.574   5.266 -1.3496 -0.5381  0.8193
 1320TIP3   OH2 3923   3.123   2.975   2.994  0.3898  0.1313 -0.4514
 1320TIP3    H1 3924   3.147   2.932   2.912 -2.2877  1.1718 -1.8789
 1320TIP3    H2 3925   3.049   2.924   3.028  0.1616  0.9114  0.2557
 1321TIP3   OH2 3926   3.969   5.100   3.557  0.3026  0.1812  0.0147
 1321TIP3    H1 3927   3.971   5.055   3.642  0.0660 -0.7247 -0.4487
 1321TIP3    H2 3928   4.054   5.081   3.518 -0.5978 -1.8755 -1.1646
 1322TIP3   OH2 3929   6.423   0.186   4.961  0.2122 -0.3363  0.3319
 1322TIP3    H1 3930   6.444   0.178   4.868 -2.4832  2.0229 -0.6315
 1322TIP3    H2 3931   6.491   0.244   4.996  0.5320 -0.2030 -0.4868
 1323TIP3   OH2 3932   1.110   4.743   0.903 -0.2961 -0.1275  0.4545
 1323TIP3    H1 3933   1.079   4.653   0.914 -1.7577  0.3093  0.2048
 1323TIP3    H2 3934   1.129   4.751   0.809  1.1257 -0.5425  0.6876
 1324TIP3   OH2 3935   4.437   6.241   5.780  0.0718  0.0633 -0.1143
 1324TIP3    H1 3936   4.372   6.170   5.779  1.1236 -0.9556 -1.9228
 1324TIP3    H2 3937   4.521   6.197   5.791  0.6636  1.1363 -0.2156
 1325TIP3   OH2 3938   4.164   2.380   2.597  0.5370 -0.3857 -0.5749
 1325TIP3    H1 3939   4.239   2.439   2.606  0.2961 -0.3297  1.3754
 1325TIP3    H2 3940   4.200   2.293   2.612  0.5352 -0.5696 -1.5456
 1326TIP3   OH2 3941   3.149   4.578   4.668  0.3163 -0.0559  0.5781
 1326TIP3    H1 3942   3.233   4.606   4.705  0.4101 -1.6811  1.7428
 1326TIP3    H2 3943   3.116   4.513   4.731 -1.7018  0.3566  0.0222
 1327TIP3   OH2 3944   4.925   1.351   3.336 -0.0891 -0.1380  0.4944
 1327TIP3    H1 3945   4.893   1.263   3.354 -0.5996 -0.1856 -0.5668
 1327TIP3    H2 3946   5.017   1.349   3.363 -0.4271 -0.6061  1.6711
 1328TIP3   OH2 3947   2.694   1.956   5.435 -0.0590  0.1564  0.4773
 1328TIP3    H1 3948   2.619   1.905   5.466  1.1454 -1.2841  1.2052
 1328TIP3    H2 3949   2.683   1.961   5.340 -2.8928  3.0970  0.7899
 1329TIP3   OH2 3950   0.755   6.229   0.155 -0.4790 -0.2498  0.3156
 1329TIP3    H1 3951   0.735   6.235   0.249 -0.3823 -1.0655  0.3901
 1329TIP3    H2 3952   0.675   6.194   0.115 -1.4382  2.3971 -0.2803
 1330TIP3   OH2 3953   2.112   1.221   1.711  0.3342  0.0086 -0.5745
 1330TIP3    H1 3954   2.150   1.150   1.763  1.2130  0.3255 -0.7689
 1330TIP3    H2 3955   2.133   1.198   1.621 -0.7407 -0.2740 -0.7708
 1331TIP3   OH2 3956   5.587   5.759   1.384 -0.0096 -0.7118  0.2447
 1331TIP3    H1 3957   5.531   5.732   1.456  0.1886  1.3268  1.2389
 1331TIP3    H2 3958   5.674   5.767   1.423  0.0967  0.4198 -0.1945
 1332TIP3   OH2 3959   0.892   5.887   0.452  0.4290  0.1159  0.1971
 1332TIP3    H1 3960   0.979   5.849   0.462  0.0800 -0.7978 -0.1200
 1332TIP3    H2 3961   0.869   5.873   0.360 -0.3061 -0.2461  0.4203
 1333TIP3   OH2 3962   0.379   4.289   5.706 -0.0311  0.2912  0.1706
 1333TIP3    H1 3963   0.336   4.204   5.710  2.8842 -1.3156  0.0796
 1333TIP3    H2 3964   0.313   4.350   5.740 -1.4209 -2.3283  2.7040
 1334TIP3   OH2 3965   0.482   1.306   0.004  0.0284 -0.1591  0.1523
 1334TIP3    H1 3966   0.408   1.281   0.060 -0.9613  0.6804 -0.7451
 1334TIP3    H2 3967   0.548   1.239   0.021 -0.4915 -0.2980  1.8242
 1335TIP3   OH2 3968   0.459   1.830   1.479  0.2022 -0.8059 -0.3955
 1335TIP3    H1 3969   0.520   1.762   1.453  1.9581 -0.1523  1.6942
 1335TIP3    H2 3970   0.487   1.856   1.567 -1.1246  1.7552 -0.6069
 1336TIP3   OH2 3971   5.420   1.250   4.618 -0.4947  0.3685  0.0321
 1336TIP3    H1 3972   5.399   1.340   4.593 -1.1645  0.1215 -0.3363
 1336TIP3    H2 3973   5.335   1.206   4.619 -0.1432 -0.3195 -0.0384
 1337TIP3   OH2 3974   7.188   5.228   2.531  0.4995  0.3670  0.3449
 1337TIP3    H1 3975   7.154   5.261   2.614  0.9025 -0.3840  0.8202
 1337TIP3    H2 3976   7.126   5.259   2.465  0.3119  1.1822  0.8979
 1338TIP3   OH2 3977   1.647   6.097   5.415  0.2957  0.6781  0.2771
 1338TIP3    H1 3978   1.635   6.041   5.492 -0.5433  0.2763 -0.1242
 1338TIP3    H2 3979   1.577   6.161   5.421  0.2711  0.6888 -0.1112
 1339TIP3   OH2 3980   1.504   0.073   3.278  0.2991  0.1914  0.1705
 1339TIP3    H1 3981   1.423   0.122   3.296  0.6913  0.3197  1.7648
 1339TIP3    H2 3982   1.506   0.064   3.183 -1.9111 -0.3646  0.1227
 1340TIP3   OH2 3983   4.087   3.137   3.178  0.3581 -0.2790 -0.4680
 1340TIP3    H1 3984   4.036   3.089   3.243  0.6536 -0.1233 -0.1129
 1340TIP3    H2 3985   4.060   3.101   3.094 -0.6561  0.0985 -0.3214
 1341TIP3   OH2 3986   5.807   5.940   2.618  0.4801  0.1209 -0.3340
 1341TIP3    H1 3987   5.810   6.018   2.562 -2.5477 -0.7790 -1.9997
 1341TIP3    H2 3988   5.733   5.955   2.676  2.8378  0.5043  2.8450
 1342TIP3   OH2 3989   3.806   5.149   5.625  0.0273 -0.1215  0.6018
 1342TIP3    H1 3990   3.882   5.193   5.586  0.0696 -0.6689  0.0576
 1342TIP3    H2 3991   3.778   5.208   5.695 -0.7496  1.4538 -0.9632
 1343TIP3   OH2 3992   1.000   2.523   5.750  0.3646  0.2348  0.3505
 1343TIP3    H1 3993   0.985   2.518   5.844  2.2375 -0.3679  0.6494
 1343TIP3    H2 3994   0.914   2.546   5.714 -0.2181  1.2996  2.2480
 1344TIP3   OH2 3995   0.514   1.384   3.847  0.2057  0.0250  0.6281
 1344TIP3    H1 3996   0.468   1.314   3.893 -1.8123  0.6819 -0.2762
 1344TIP3    H2 3997   0.555   1.435   3.916 -0.4143 -0.6026  1.4789
 1345TIP3   OH2 3998   6.963   6.718   4.305 -0.0259 -0.3552  0.4947
 1345TIP3    H1 3999   6.957   6.624   4.326  1.0277 -0.4267  0.5087
 1345TIP3    H2 4000   6.952   6.722   4.210 -0.3711 -0.4541  0.5265
 1346TIP3   OH2 4001   6.683   4.246   5.129  0.3016 -0.2311  0.2008
 1346TIP3    H1 4002   6.604   4.259   5.076 -0.1866 -0.7607  0.7759
 1346TIP3    H2 4003   6.650   4.243   5.219  1.2798  2.3879  0.7344
 1347TIP3   OH2 4004   5.924   1.983   1.937 -0.2237  0.1780  0.0413
 1347TIP3    H1 4005   5.900   2.067   1.899 -0.1681  1.6481  2.9921
 1347TIP3    H2 4006   6.020   1.983   1.937 -0.1732 -0.8655 -1.7944
 1348TIP3   OH2 4007   1.722   5.536   4.654 -0.1273  0.0141  0.0403
 1348TIP3    H1 4008   1.801   5.589   4.641  0.7028 -1.1896  0.0324
 1348TIP3    H2 4009   1.675   5.580   4.725 -0.8405  2.2847 -1.7002
 1349TIP3   OH2 4010   1.197   1.546   1.104 -0.2236  0.3442  0.1110
 1349TIP3    H1 4011   1.105   1.570   1.109 -0.1053  0.6364  1.3324
 1349TIP3    H2 4012   1.243   1.617   1.150  0.5684  0.0020 -0.1288
 1350TIP3   OH2 4013   1.112   4.098   5.445  0.0360  0.5787 -0.2701
 1350TIP3    H1 4014   1.024   4.068   5.422 -0.5019  3.2470 -2.0997
 1350TIP3    H2 4015   1.169   4.057   5.380 -0.0208 -0.0587  0.0729
 1351TIP3   OH2 4016   1.290   1.041   4.364 -0.1318 -0.2159  0.1885
 1351TIP3    H1 4017   1.308   1.069   4.454  1.6867 -0.4554 -0.0558
 1351TIP3    H2 4018   1.279   0.946   4.370 -1.3447 -0.0824  0.3215
 1352TIP3   OH2 4019   6.334   2.632   2.055 -0.2164 -0.2790  0.0312
 1352TIP3    H1 4020   6.309   2.592   2.138 -0.9957 -1.8242 -0.9055
 1352TIP3    H2 4021   6.286   2.582   1.988  2.2118 -0.6618 -1.5433
 1353TIP3   OH2 4022   3.431   3.112   1.648 -0.0737  0.2089  0.1157
 1353TIP3    H1 4023   3.496   3.167   1.603 -0.1445  1.2343  1.2115
 1353TIP3    H2 4024   3.478   3.031   1.667  0.6933  0.6920  0.3304
 1354TIP3   OH2 4025   3.417   3.483   4.516  0.7516  0.1423 -0.3897
 1354TIP3    H1 4026   3.483   3.503   4.583  2.8068 -0.4475 -2.1261
 1354TIP3    H2 4027   3.370   3.408   4.551  2.1482 -0.4897  0.2166
 1355TIP3   OH2 4028   1.357   2.469   1.487  0.1971 -0.2062  0.9812
 1355TIP3    H1 4029   1.448   2.492   1.470 -0.7539  2.3839 -1.5153
 1355TIP3    H2 4030   1.342   2.389   1.437  0.7827  0.1219  0.2584
 1356TIP3   OH2 4031   1.593   4.874   5.312 -0.0606  0.1551  0.1511
 1356TIP3    H1 4032   1.671   4.920   5.280  0.2206 -0.5720 -0.2397
 1356TIP3    H2 4033   1.575   4.809   5.245 -0.1871 -0.5971  0.8975
 1357TIP3   OH2 4034   1.022   4.233   2.713 -0.2637 -0.6251  0.0063
 1357TIP3    H1 4035   0.966   4.161   2.741 -1.3580  0.9019  1.9948
 1357TIP3    H2 4036   0.976   4.272   2.639 -1.6142  0.2578  1.2616
 1358TIP3   OH2 4037   0.726   1.482   5.511 -0.0198 -0.2999  0.3602
 1358TIP3    H1 4038   0.666   1.557   5.512 -1.5551 -1.4801  1.8094
 1358TIP3    H2 4039   0.687   1.419   5.572  1.6588 -1.9535 -0.1866
 1359TIP3   OH2 4040   6.246   5.618   4.476  0.1031  0.7159  0.2520
 1359TIP3    H1 4041   6.245   5.703   4.431  0.3025 -0.1593 -1.4925
 1359TIP3    H2 4042   6.202   5.635   4.559 -0.4170  2.3895 -0.3163
 1360TIP3   OH2 4043   4.476   1.537   1.246  0.4746 -0.7700  0.0322
 1360TIP3    H1 4044   4.449   1.474   1.180 -1.9839  0.3800 -0.1600
 1360TIP3    H2 4045   4.432   1.619   1.222 -0.2937 -0.2171  2.8737
 1361TIP3   OH2 4046   5.092   6.016   1.220  0.1185  0.0790 -0.7330
 1361TIP3    H1 4047   5.069   6.081   1.286  1.8307  0.2720 -0.2899
 1361TIP3    H2 4048   5.077   5.932   1.262  1.0328  0.2035 -0.1269
 1362TIP3   OH2 4049   2.833   3.692   4.804  0.0463  0.5128 -0.1631
 1362TIP3    H1 4050   2.905   3.752   4.787 -0.0791  0.8212  0.3530
 1362TIP3    H2 4051   2.868   3.629   4.867 -0.3348  1.0834  0.6384
 1363TIP3   OH2 4052   0.695   1.770   5.444 -0.5959  0.5684  0.2703
 1363TIP3    H1 4053   0.600   1.769   5.428 -0.5347  2.0855 -0.3276
 1363TIP3    H2 4054   0.733   1.804   5.363  0.3196  1.4884  1.0580
 1364TIP3   OH2 4055   6.527   2.942   4.223  0.7859 -0.3121  0.5396
 1364TIP3    H1 4056   6.607   2.967   4.178 -0.6479  0.1302 -1.9714
 1364TIP3    H2 4057   6.554   2.921   4.312  3.5122  0.7066  0.0244
 1365TIP3   OH2 4058   2.510   0.806   3.546  0.8686  0.0825 -0.1063
 1365TIP3    H1 4059   2.545   0.889   3.577 -1.7458  1.0992  0.4223
 1365TIP3    H2 4060   2.502   0.752   3.625  0.8645  0.0174 -0.1508
 1366TIP3   OH2 4061   2.252   5.189   3.987  0.6817 -0.0978  0.3326
 1366TIP3    H1 4062   2.235   5.236   4.069 -0.7377  0.3454 -0.1943
 1366TIP3    H2 4063   2.213   5.244   3.919  2.8078  0.1107 -0.8083
 1367TIP3   OH2 4064   5.556   6.603   3.140 -0.0468 -0.0676  0.2803
 1367TIP3    H1 4065   5.496   6.532   3.160  0.5209 -0.5788  0.2109
 1367TIP3    H2 4066   5.641   6.561   3.132  0.1345  0.4717 -0.7988
 1368TIP3   OH2 4067   5.747   6.057   2.020 -0.2241  0.1232  0.1288
 1368TIP3    H1 4068   5.794   5.999   2.079 -0.7451  0.1511  0.5787
 1368TIP3    H2 4069   5.770   6.026   1.932  1.0107  0.4400  0.3244
 1369TIP3   OH2 4070   6.709   6.774   3.621  0.4681  0.2589 -0.1103
 1369TIP3    H1 4071   6.631   6.789   3.567 -0.1678 -1.0692  0.3964
 1369TIP3    H2 4072   6.757   6.706   3.574  1.0025  0.6017 -0.0713
 1370TIP3   OH2 4073   4.553   3.951   2.358  0.2044 -0.9305 -0.0114
 1370TIP3    H1 4074   4.563   4.040   2.393  0.4365 -0.9658  0.0085
 1370TIP3    H2 4075   4.641   3.925   2.332 -0.0807 -0.6044 -1.3586
 1371TIP3   OH2 4076   3.489   4.848   0.453  0.6500 -0.3330  0.0837
 1371TIP3    H1 4077   3.478   4.943   0.447 -1.6460 -0.4731  1.0734
 1371TIP3    H2 4078   3.437   4.823   0.529 -0.1935 -2.5634 -1.1349
 1372TIP3   OH2 4079   4.399   3.425   1.669  0.3937 -0.0568  0.1068
 1372TIP3    H1 4080   4.345   3.488   1.718 -0.4972 -1.3211  0.8129
 1372TIP3    H2 4081   4.442   3.478   1.602  0.6582  1.5200  1.4534
 1373TIP3   OH2 4082   0.347   5.005   5.153 -0.2852  0.0905  0.2266
 1373TIP3    H1 4083   0.319   4.916   5.174  1.9050 -0.7184 -0.0586
 1373TIP3    H2 4084   0.388   5.037   5.234 -0.4246  0.5818  0.1070
 1374TIP3   OH2 4085   5.256   3.856   3.340  0.5155  0.4467 -0.0443
 1374TIP3    H1 4086   5.330   3.799   3.319  0.6701  0.9483 -0.9100
 1374TIP3    H2 4087   5.199   3.851   3.264  1.8719  3.5729 -1.4803
 1375TIP3   OH2 4088   3.992   4.123   5.322 -0.1586  0.3865  0.0951
 1375TIP3    H1 4089   3.973   4.114   5.229  1.6054 -0.1607 -0.2534
 1375TIP3    H2 4090   4.007   4.217   5.335  0.7823  0.3220 -0.4500
 1376TIP3   OH2 4091   2.811   6.393   5.819 -0.0468  0.0352 -0.0368
 1376TIP3    H1 4092   2.875   6.349   5.762 -1.4048  0.8875 -2.3512
 1376TIP3    H2 4093   2.848   6.386   5.907  2.9971  0.1164 -1.2101
 1377TIP3   OH2 4094   3.988   0.060   2.532  0.4358  0.4200 -0.2948
 1377TIP3    H1 4095   4.051   0.126   2.561  0.4616 -0.1426  0.9821
 1377TIP3    H2 4096   3.939   0.103   2.461  1.0338  1.4908 -0.0723
 1378TIP3   OH2 4097   6.768   4.712   0.659  0.0390  0.0528 -0.1192
 1378TIP3    H1 4098   6.735   4.705   0.749  0.8681  0.0855  0.1972
 1378TIP3    H2 4099   6.854   4.669   0.662  0.3833  0.6945 -0.7289
 1379TIP3   OH2 4100   5.294   4.774   2.892 -0.5683  0.3023 -0.3420
 1379TIP3    H1 4101   5.270   4.686   2.863 -0.9669  0.5276 -0.7135
 1379TIP3    H2 4102   5.385   4.785   2.865 -0.7081  0.2315 -0.8545
 1380TIP3   OH2 4103   4.661   0.912   0.269 -0.3052 -0.1011  0.2346
 1380TIP3    H1 4104   4.707   0.894   0.187  0.0514  0.0390  0.4006
 1380TIP3    H2 4105   4.570   0.889   0.251 -0.3641  0.6268 -0.4286
 1381TIP3   OH2 4106   6.959   3.829   4.416  0.1787  0.4895 -0.3178
 1381TIP3    H1 4107   6.971   3.923   4.423  0.8791  0.3798  0.1704
 1381TIP3    H2 4108   6.871   3.817   4.381 -0.1417  1.3116  0.1897
 1382TIP3   OH2 4109   4.566   4.962   4.018  0.5480 -0.0400 -0.9858
 1382TIP3    H1 4110   4.645   4.950   4.071 -0.1310 -0.3997 -0.0325
 1382TIP3    H2 4111   4.494   4.950   4.080 -0.2612 -0.0820 -1.9226
 1383TIP3   OH2 4112   2.539   2.790   2.826  0.9307  0.1870  0.5183
 1383TIP3    H1 4113   2.455   2.765   2.790  1.6253  0.5845 -1.5089
 1383TIP3    H2 4114   2.521   2.869   2.877 -0.2794 -1.0722  2.1515
 1384TIP3   OH2 4115   0.649   4.767   2.529 -0.0492 -0.4767 -0.6962
 1384TIP3    H1 4116   0.719   4.798   2.588  0.7714 -1.2905 -1.2156
 1384TIP3    H2 4117   0.646   4.672   2.544  0.5479 -0.7866 -2.3384
 1385TIP3   OH2 4118   4.306   4.156   4.081  0.9625 -0.1594 -0.0683
 1385TIP3    H1 4119   4.269   4.151   4.169 -0.9653  0.0005 -0.8381
 1385TIP3    H2 4120   4.311   4.249   4.061  0.9151 -0.2100 -0.3250
 1386TIP3   OH2 4121   3.404   3.174   5.422  0.1498  0.2667  0.2021
 1386TIP3    H1 4122   3.396   3.169   5.327 -1.6426 -0.0370  0.3302
 1386TIP3    H2 4123   3.447   3.093   5.447  0.9741  0.5191 -0.3706
 1387TIP3   OH2 4124   5.436   0.955   1.075 -0.1428 -0.3906 -0.1827
 1387TIP3    H1 4125   5.502   0.886   1.074 -0.6903 -0.9202 -0.0403
 1387TIP3    H2 4126   5.353   0.909   1.087 -0.6264  0.1897 -1.1671
 1388TIP3   OH2 4127   0.350   4.439   2.365 -0.0796  0.0129 -0.0007
 1388TIP3    H1 4128   0.408   4.379   2.411 -0.2765 -0.2750 -0.1189
 1388TIP3    H2 4129   0.386   4.445   2.276 -0.5425 -0.6180 -0.2446
 1389TIP3   OH2 4130   7.146   2.971   1.804  0.2735  0.2886  0.3750
 1389TIP3    H1 4131   7.224   3.020   1.832  0.1134  0.8102 -0.0882
 1389TIP3    H2 4132   7.162   2.882   1.836  1.2180  0.3067  0.0079
 1390TIP3   OH2 4133   0.288   1.800   3.786 -0.1507  0.4025 -0.0080
 1390TIP3    H1 4134   0.219   1.809   3.852 -0.0199 -2.5470  0.6813
 1390TIP3    H2 4135   0.261   1.859   3.716 -3.5221 -0.7047  0.1661
 1391TIP3   OH2 4136   3.168   2.728   5.071  0.3914 -0.1410  0.6813
 1391TIP3    H1 4137   3.259   2.704   5.053  0.9653 -0.2296  3.3177
 1391TIP3    H2 4138   3.164   2.821   5.052  0.8275 -0.2711 -0.1063
 1392TIP3   OH2 4139   3.123   2.969   1.218  0.1654 -0.2877  0.1066
 1392TIP3    H1 4140   3.100   2.949   1.309  0.9583  1.0265  0.6217
 1392TIP3    H2 4141   3.206   3.015   1.224 -0.8253  1.8120 -1.0849
 1393TIP3   OH2 4142   3.916   0.327   4.368  0.3264  0.1763 -0.2844
 1393TIP3    H1 4143   4.001   0.304   4.330  0.8158 -0.8704  1.3328
 1393TIP3    H2 4144   3.921   0.295   4.458 -1.6264  0.5171 -0.0172
 1394TIP3   OH2 4145   2.907   6.382   2.186  0.2035  0.1202 -0.1434
 1394TIP3    H1 4146   2.970   6.381   2.258  0.8263  0.7043 -0.6665
 1394TIP3    H2 4147   2.920   6.299   2.141 -0.6528 -0.5435  0.7992
 1395TIP3   OH2 4148   3.672   2.827   1.166  0.1223  0.2989  0.1531
 1395TIP3    H1 4149   3.578   2.816   1.153  0.0764 -0.6927  1.2415
 1395TIP3    H2 4150   3.680   2.888   1.239  0.3451  0.7276 -0.2183
 1396TIP3   OH2 4151   2.445   6.058   4.542 -0.4348  0.3399 -0.1064
 1396TIP3    H1 4152   2.445   6.020   4.630  0.9440 -0.0553 -0.2543
 1396TIP3    H2 4153   2.358   6.097   4.532 -0.7211  0.0909  1.2975
 1397TIP3   OH2 4154   2.718   3.069   2.753 -0.0369  0.1355  0.5891
 1397TIP3    H1 4155   2.782   3.090   2.685  1.1777  1.8186  2.1689
 1397TIP3    H2 4156   2.634   3.099   2.718  0.5515  0.9068 -0.1795
 1398TIP3   OH2 4157   4.040   1.498   2.501 -0.2841 -0.1039 -0.4224
 1398TIP3    H1 4158   4.019   1.408   2.476 -1.9931  0.4112 -0.9949
 1398TIP3    H2 4159   4.110   1.490   2.565 -2.2623 -2.0427  1.6678
 1399TIP3   OH2 4160   6.038   2.624   4.923 -0.1330 -0.0870  0.2095
 1399TIP3    H1 4161   6.018   2.541   4.880  0.2321 -0.2701  0.3868
 1399TIP3    H2 4162   5.979   2.687   4.882  0.9334 -0.0226 -1.3661
 1400TIP3   OH2 4163   0.825   1.215   5.323 -0.7095  0.5775 -0.1265
 1400TIP3    H1 4164   0.810   1.218   5.417 -3.3396  0.3112 -0.4712
 1400TIP3    H2 4165   0.776   1.290   5.288  0.0001  0.5178 -1.3095
 1401TIP3   OH2 4166   2.150   5.772   3.446  0.2870  0.8956 -0.3335
 1401TIP3    H1 4167   2.117   5.826   3.518  0.1778 -0.1047  0.3979
 1401TIP3    H2 4168   2.203   5.705   3.490  1.2213  0.9821 -1.2933
 1402TIP3   OH2 4169   7.032   2.590   4.765  0.4833 -0.2901  0.0772
 1402TIP3    H1 4170   7.013   2.681   4.745 -1.3938 -0.3725  1.2796
 1402TIP3    H2 4171   7.050   2.549   4.680 -2.1936  0.4418 -0.9229
 1403TIP3   OH2 4172   3.233   5.581   3.039  0.0545 -0.5076 -0.3425
 1403TIP3    H1 4173   3.212   5.489   3.054 -2.1724 -0.3021 -1.8046
 1403TIP3    H2 4174   3.150   5.627   3.053  0.9212  1.1789 -0.4987
 1404TIP3   OH2 4175   1.994   3.343   0.913 -0.3444  0.1597 -0.4220
 1404TIP3    H1 4176   2.036   3.394   0.844  0.2561 -0.4876 -0.5500
 1404TIP3    H2 4177   1.919   3.396   0.941  0.0393  0.9151 -0.8166
 1405TIP3   OH2 4178   6.624   5.948   2.721  0.0491 -0.5085 -0.0341
 1405TIP3    H1 4179   6.590   5.902   2.644 -0.0660  1.7996 -1.4558
 1405TIP3    H2 4180   6.708   5.983   2.693  0.8429 -1.1014  1.5090
 1406TIP3   OH2 4181   0.686   1.697   1.218 -0.4596 -0.2655  0.0684
 1406TIP3    H1 4182   0.680   1.777   1.165  0.6317  1.2383  2.0268
 1406TIP3    H2 4183   0.621   1.638   1.182 -1.7440  1.7657 -1.1055
 1407TIP3   OH2 4184   5.457   1.453   4.015  0.1137  0.1729 -0.2369
 1407TIP3    H1 4185   5.378   1.507   4.009  0.0066  0.1126  0.5208
 1407TIP3    H2 4186   5.437   1.375   3.962 -1.1227 -0.7642  1.4861
 1408TIP3   OH2 4187   3.805   2.258   3.228 -0.3878  0.5019  0.0324
 1408TIP3    H1 4188   3.866   2.185   3.235 -0.9276  0.0528  0.1236
 1408TIP3    H2 4189   3.752   2.253   3.308 -1.0371  0.4213 -0.3873
 1409TIP3   OH2 4190   6.403   2.932   1.770 -0.1177 -0.0724 -0.3218
 1409TIP3    H1 4191   6.445   2.849   1.749 -0.2665 -0.1184 -0.4350
 1409TIP3    H2 4192   6.320   2.930   1.723  0.2655  0.5144 -1.0364
 1410TIP3   OH2 4193   1.387   4.146   5.316 -0.3453 -0.6493  0.2638
 1410TIP3    H1 4194   1.475   4.148   5.279 -1.0830 -0.1341 -1.5795
 1410TIP3    H2 4195   1.397   4.185   5.403  1.1200  0.0867 -0.1988
 1411TIP3   OH2 4196   4.938   0.566   4.177  0.2102  0.9336 -0.1320
 1411TIP3    H1 4197   4.862   0.616   4.148 -2.7509 -3.9422 -2.0579
 1411TIP3    H2 4198   4.907   0.515   4.252  1.0195 -2.0272 -1.6463
 1412TIP3   OH2 4199   6.990   6.050   0.700  0.0341  0.2469  0.2770
 1412TIP3    H1 4200   7.026   6.028   0.614 -0.4337 -0.1670  0.1848
 1412TIP3    H2 4201   7.065   6.087   0.748  0.7422 -1.0739  0.2587
 1413TIP3   OH2 4202   5.824   4.342   2.651  0.4394  0.9534  0.0799
 1413TIP3    H1 4203   5.857   4.258   2.682  1.5381  1.1520 -0.5185
 1413TIP3    H2 4204   5.843   4.344   2.558 -2.8002  0.3912 -0.7149
 1414TIP3   OH2 4205   4.558   1.844   1.498  0.5872  0.0764 -0.0610
 1414TIP3    H1 4206   4.540   1.927   1.453 -2.0242 -0.4961 -0.2503
 1414TIP3    H2 4207   4.522   1.857   1.586 -0.9915 -1.1883 -0.4604
 1415TIP3   OH2 4208   2.749   2.402   0.780 -0.1584  0.3432  0.0768
 1415TIP3    H1 4209   2.665   2.390   0.734  0.4554 -0.3169 -0.9095
 1415TIP3    H2 4210   2.787   2.314   0.782  0.2696  0.5431  1.0099
 1416TIP3   OH2 4211   3.004   1.554   4.584  0.4079  0.0151  0.1232
 1416TIP3    H1 4212   3.081   1.520   4.538  0.4807  0.2227  0.0895
 1416TIP3    H2 4213   3.037   1.584   4.668  0.0217 -1.7307  0.9263
 1417TIP3   OH2 4214   1.093   6.261   0.614 -0.8615  0.2919  0.3719
 1417TIP3    H1 4215   1.118   6.264   0.706  0.6104 -1.8360  0.1167
 1417TIP3    H2 4216   1.028   6.190   0.609  0.5426 -0.9924 -0.4716
 1418TIP3   OH2 4217   1.276   4.487   4.398 -0.4414  0.8038  0.5053
 1418TIP3    H1 4218   1.218   4.441   4.337  2.1216 -1.1274 -0.6553
 1418TIP3    H2 4219   1.314   4.557   4.345  1.9788 -1.0282 -0.3825
 1419TIP3   OH2 4220   4.045   4.370   0.462 -0.4533 -0.1531  0.1248
 1419TIP3    H1 4221   4.021   4.343   0.373 -0.6683  0.5756 -0.0519
 1419TIP3    H2 4222   3.975   4.335   0.517 -1.7806  1.5917 -0.3380
 1420TIP3   OH2 4223   4.272   1.606   0.502  0.3330  0.3092 -0.1158
 1420TIP3    H1 4224   4.361   1.588   0.472  0.4870  1.6140 -0.4715
 1420TIP3    H2 4225   4.245   1.525   0.546  1.0584 -0.7055 -1.4774
 1421TIP3   OH2 4226   5.174   2.597   1.049  0.4137  0.4559 -0.0549
 1421TIP3    H1 4227   5.204   2.604   1.139  1.6757  0.5863 -0.4667
 1421TIP3    H2 4228   5.218   2.519   1.015  0.2909  0.6506 -0.6815
 1422TIP3   OH2 4229   7.215   3.697   4.788  0.4562 -0.1818 -0.4939
 1422TIP3    H1 4230   7.144   3.644   4.753  0.4225 -0.1148 -0.5273
 1422TIP3    H2 4231   7.215   3.776   4.734 -0.8870  0.8227  0.8749
 1423TIP3   OH2 4232   6.427   1.090   5.821 -0.4885 -0.0166  0.5331
 1423TIP3    H1 4233   6.427   1.122   5.912 -1.7658 -2.4495  1.4721
 1423TIP3    H2 4234   6.384   1.005   5.825  0.8678 -0.9421 -2.1404
 1424TIP3   OH2 4235   4.446   5.566   5.832 -0.3817  0.5863  0.4447
 1424TIP3    H1 4236   4.417   5.589   5.743 -1.3868  0.0080  0.6122
 1424TIP3    H2 4237   4.431   5.472   5.838  0.1433  0.5418  1.0646
 1425TIP3   OH2 4238   4.097   5.933   3.038  0.0429 -0.2397 -0.0712
 1425TIP3    H1 4239   4.181   5.923   2.994  0.0163 -0.6083 -0.0430
 1425TIP3    H2 4240   4.057   5.846   3.034 -0.1997 -0.1439  0.1900
 1426TIP3   OH2 4241   4.702   2.080   5.315  0.8607  0.1493  0.4334
 1426TIP3    H1 4242   4.698   1.991   5.281 -0.7986  0.5253 -0.4336
 1426TIP3    H2 4243   4.638   2.082   5.386 -1.3105  1.3637 -1.4314
 1427TIP3   OH2 4244   1.941   3.713   3.055 -0.2449  0.2864 -0.2756
 1427TIP3    H1 4245   1.926   3.684   3.145  1.4137 -0.7073 -0.2800
 1427TIP3    H2 4246   1.853   3.729   3.020 -0.9171  0.8543  1.5512
 1428TIP3   OH2 4247   3.903   0.640   1.186 -0.1288 -0.0916 -0.1221
 1428TIP3    H1 4248   3.910   0.717   1.130 -1.4433  0.3817  0.3389
 1428TIP3    H2 4249   3.914   0.672   1.275 -0.5548 -0.4490  0.0660
 1429TIP3   OH2 4250   7.130   5.163   0.863 -0.1423  0.0083  0.2961
 1429TIP3    H1 4251   7.133   5.253   0.830 -2.6995  0.0506 -0.0642
 1429TIP3    H2 4252   7.051   5.161   0.917 -0.9026 -2.3253 -0.7846
 1430TIP3   OH2 4253   5.144   1.321   4.266 -0.5848  0.4819 -0.3647
 1430TIP3    H1 4254   5.204   1.252   4.295  0.8801  0.9970 -2.0029
 1430TIP3    H2 4255   5.174   1.400   4.311 -1.5299  0.3164  0.6028
 1431TIP3   OH2 4256   4.349   6.292   0.386  0.0591  0.2669 -0.0937
 1431TIP3    H1 4257   4.337   6.252   0.472  1.4132  1.5429  0.7392
 1431TIP3    H2 4258   4.325   6.384   0.399  1.3407  0.7168 -0.7698
 1432TIP3   OH2 4259   3.014   5.273   0.955  0.1851  0.5822 -0.3696
 1432TIP3    H1 4260   3.034   5.180   0.961 -0.2963  0.5506  1.0714
 1432TIP3    H2 4261   3.090   5.317   0.995  0.3498  0.8007 -0.9175
 1433TIP3   OH2 4262   3.579   0.968   1.426  0.2159  0.0265 -0.2180
 1433TIP3    H1 4263   3.569   0.880   1.390 -0.5014  0.5932 -1.4905
 1433TIP3    H2 4264   3.530   1.024   1.365  0.0623  1.2101  0.9504
 1434TIP3   OH2 4265   1.018   0.706   3.513 -0.0503 -0.6531 -0.8609
 1434TIP3    H1 4266   0.969   0.663   3.583 -0.1120  0.6252 -0.0882
 1434TIP3    H2 4267   0.954   0.719   3.443 -0.1109 -1.5016 -0.9659
 1435TIP3   OH2 4268   1.126   6.031   1.066 -0.1021 -0.7551  0.2021
 1435TIP3    H1 4269   1.128   6.117   1.024 -0.1635 -0.8182  0.0699
 1435TIP3    H2 4270   1.043   5.993   1.038 -0.1384 -0.8031  0.3704
 1436TIP3   OH2 4271   6.463   0.992   2.684 -0.3198  0.1523 -0.3344
 1436TIP3    H1 4272   6.547   0.947   2.668 -0.3091  0.2952 -0.6987
 1436TIP3    H2 4273   6.444   1.035   2.601  0.1893  1.6884  0.3075
 1437TIP3   OH2 4274   3.914   3.228   2.144 -0.1883  0.6494  0.5631
 1437TIP3    H1 4275   3.824   3.245   2.114 -0.2699 -0.5089  0.1188
 1437TIP3    H2 4276   3.905   3.221   2.239 -0.9454 -1.4002  0.3952
 1438TIP3   OH2 4277   1.541   1.018   2.245  0.0354 -0.4399  0.4342
 1438TIP3    H1 4278   1.491   0.943   2.214  0.0866 -0.7363  1.0685
 1438TIP3    H2 4279   1.474   1.085   2.263 -0.0666 -0.5727  0.5468
 1439TIP3   OH2 4280   6.142   2.956   0.103 -0.4470 -0.2747  0.4511
 1439TIP3    H1 4281   6.089   3.035   0.117  1.4810  1.4145 -1.1864
 1439TIP3    H2 4282   6.226   2.989   0.072  0.1980 -3.0291 -1.0005
 1440TIP3   OH2 4283   5.464   6.626   1.051 -0.3695 -0.1896  0.2803
 1440TIP3    H1 4284   5.528   6.589   0.990  0.1850 -0.7370  1.1721
 1440TIP3    H2 4285   5.486   6.719   1.054 -0.8080 -0.0349 -0.8214
 1441TIP3   OH2 4286   5.289   5.839   2.686  0.6636  0.0665 -0.0623
 1441TIP3    H1 4287   5.272   5.932   2.704 -0.1416 -0.0709 -0.0709
 1441TIP3    H2 4288   5.229   5.817   2.616  0.6886 -0.5226  0.0983
 1442TIP3   OH2 4289   5.620   1.699   2.047  0.2288  0.6880 -0.0186
 1442TIP3    H1 4290   5.673   1.729   1.973  0.3410  0.2858 -0.1015
 1442TIP3    H2 4291   5.644   1.758   2.119  3.4555 -1.5621  0.9751
 1443TIP3   OH2 4292   4.721   5.511   4.164 -0.6612  0.2630 -0.4279
 1443TIP3    H1 4293   4.647   5.471   4.209 -0.6770  0.3395 -0.3872
 1443TIP3    H2 4294   4.772   5.437   4.132 -0.0521  0.1861  0.6745
 1444TIP3   OH2 4295   4.312   4.853   0.862  0.4754  0.3465  0.1625
 1444TIP3    H1 4296   4.364   4.847   0.781  1.6125  0.6491  0.8515
 1444TIP3    H2 4297   4.248   4.783   0.854  0.3484  0.5807 -1.1589
 1445TIP3   OH2 4298   3.503   3.694   5.299  0.2641  0.7093  0.3674
 1445TIP3    H1 4299   3.556   3.749   5.358  0.7483  0.0420  0.5571
 1445TIP3    H2 4300   3.565   3.636   5.257  0.0635  1.7880 -1.5486
 1446TIP3   OH2 4301   0.109   6.285   4.049 -0.0505 -0.1748  0.0590
 1446TIP3    H1 4302   0.053   6.269   3.973 -0.6647 -1.5250  0.7568
 1446TIP3    H2 4303   0.057   6.254   4.124  0.1416  1.9612  1.1778
 1447TIP3   OH2 4304   3.432   2.983   0.548  0.0621 -0.8806 -0.0430
 1447TIP3    H1 4305   3.512   2.984   0.601  1.8203 -0.1701 -2.5642
 1447TIP3    H2 4306   3.420   2.891   0.526  0.7356 -0.8859 -0.4165
 1448TIP3   OH2 4307   6.821   6.364   5.900  0.1104 -0.1439 -0.1554
 1448TIP3    H1 4308   6.912   6.334   5.888 -0.4585 -1.8797 -0.3975
 1448TIP3    H2 4309   6.772   6.321   5.830 -0.8274  1.2390 -0.3847
 1449TIP3   OH2 4310   6.686   1.281   3.526 -0.3056  0.0038 -0.1566
 1449TIP3    H1 4311   6.780   1.292   3.511 -0.1342 -1.5194 -0.3760
 1449TIP3    H2 4312   6.658   1.218   3.460 -1.5741  0.6979 -0.3279
 1450TIP3   OH2 4313   0.431   4.912   2.858 -0.0982 -0.4089  0.2349
 1450TIP3    H1 4314   0.416   4.920   2.764  0.0434  1.4960  0.3450
 1450TIP3    H2 4315   0.343   4.920   2.897  0.1214  2.1231  0.3941
 1451TIP3   OH2 4316   6.377   6.480   0.351 -0.3781  0.2116 -0.2249
 1451TIP3    H1 4317   6.462   6.445   0.379 -0.8090 -0.8662 -0.2174
 1451TIP3    H2 4318   6.398   6.536   0.277  0.5081  1.2137  0.7433
 1452TIP3   OH2 4319   1.620   2.317   3.306  0.6752  0.2592  0.2317
 1452TIP3    H1 4320   1.635   2.411   3.314  0.1515  0.2616  1.5238
 1452TIP3    H2 4321   1.704   2.276   3.325  0.7800  0.4564  0.1845
 1453TIP3   OH2 4322   3.236   2.222   0.490 -0.3274  0.0437 -0.0173
 1453TIP3    H1 4323   3.324   2.203   0.457 -0.5951 -0.7414 -0.2903
 1453TIP3    H2 4324   3.186   2.245   0.412 -0.3851  0.4414  0.1331
 1454TIP3   OH2 4325   5.425   4.875   3.287 -0.8625 -0.0424 -0.1001
 1454TIP3    H1 4326   5.490   4.907   3.224  0.0103 -1.0341  0.2542
 1454TIP3    H2 4327   5.381   4.953   3.319  0.5899  0.7396  0.0837
 1455TIP3   OH2 4328   2.735   1.402   3.400 -0.0685 -0.0106 -0.1570
 1455TIP3    H1 4329   2.676   1.409   3.475  0.5180  0.7372  0.2500
 1455TIP3    H2 4330   2.793   1.478   3.407 -0.9486  0.9314 -2.2230
 1456TIP3   OH2 4331   5.139   0.976   0.493 -0.0888 -0.0437  0.0315
 1456TIP3    H1 4332   5.220   1.000   0.447  1.1976 -1.4938  1.4264
 1456TIP3    H2 4333   5.069   1.012   0.438  1.3624 -1.1638 -2.7768
 1457TIP3   OH2 4334   2.676   1.954   4.885 -0.2537 -0.0077  0.0334
 1457TIP3    H1 4335   2.684   2.014   4.811 -0.4307  1.1505  0.9221
 1457TIP3    H2 4336   2.583   1.933   4.890 -0.0950 -0.9282 -0.7018
 1458TIP3   OH2 4337   5.755   0.069   4.537 -0.2092 -0.3523 -0.3579
 1458TIP3    H1 4338   5.778   0.054   4.628  0.7200 -2.1307 -0.8289
 1458TIP3    H2 4339   5.686   0.005   4.518  1.2545 -1.6828 -1.4801
 1459TIP3   OH2 4340   3.431   1.773   5.590 -0.3037 -0.1183 -0.1617
 1459TIP3    H1 4341   3.409   1.847   5.533  2.1819 -0.0427 -1.1764
 1459TIP3    H2 4342   3.372   1.781   5.664 -0.2266  2.8168 -0.2985
 1460TIP3   OH2 4343   0.263   1.435   3.140 -0.0024  0.5367 -0.0786
 1460TIP3    H1 4344   0.168   1.439   3.132  0.0313 -0.6941 -1.4683
 1460TIP3    H2 4345   0.278   1.411   3.232 -1.1946 -2.1789 -0.4835
 1461TIP3   OH2 4346   6.592   5.249   2.487  0.4132  0.3457  0.1067
 1461TIP3    H1 4347   6.641   5.198   2.551  2.6201  0.7043 -1.1764
 1461TIP3    H2 4348   6.508   5.267   2.529  0.9818 -1.1722  2.0339
 1462TIP3   OH2 4349   4.593   6.572   2.695 -0.8507  0.2487 -0.0252
 1462TIP3    H1 4350   4.685   6.592   2.715 -0.7229 -0.8132  0.5242
 1462TIP3    H2 4351   4.591   6.562   2.600 -0.0568 -1.2177  0.0797
 1463TIP3   OH2 4352   6.740   1.894   0.362 -0.1294  0.8327  0.0259
 1463TIP3    H1 4353   6.799   1.831   0.405  0.6911  1.7478  0.2755
 1463TIP3    H2 4354   6.659   1.845   0.348  0.8979 -0.6769 -0.9539
 1464TIP3   OH2 4355   2.443   0.268   0.807  0.4473  0.6621  0.0166
 1464TIP3    H1 4356   2.459   0.185   0.762 -1.5508  0.8764 -1.1554
 1464TIP3    H2 4357   2.366   0.305   0.765 -1.1310  1.2373  3.1198
 1465TIP3   OH2 4358   7.034   3.089   5.640  0.0674  0.3225 -0.4514
 1465TIP3    H1 4359   7.104   3.028   5.663  1.2552  1.1555 -1.7223
 1465TIP3    H2 4360   6.960   3.033   5.618 -0.0860 -0.5681  1.9517
 1466TIP3   OH2 4361   1.572   3.717   4.029  0.1382 -0.0030 -0.0677
 1466TIP3    H1 4362   1.552   3.773   4.104  0.2045  0.6865 -0.5551
 1466TIP3    H2 4363   1.653   3.672   4.055  0.3226  0.4487  0.1637
 1467TIP3   OH2 4364   5.544   5.866   2.778 -0.4220 -0.9296 -0.8196
 1467TIP3    H1 4365   5.599   5.820   2.842  0.4988 -1.0632 -1.6860
 1467TIP3    H2 4366   5.468   5.809   2.766 -0.7881 -0.7359  0.4095
 1468TIP3   OH2 4367   4.218   1.982   4.575 -0.1148  0.0825  0.0048
 1468TIP3    H1 4368   4.275   2.046   4.616 -0.1176 -1.6129  2.9198
 1468TIP3    H2 4369   4.251   1.974   4.485  0.9379  2.8085  0.0816
 1469TIP3   OH2 4370   4.850   1.340   1.835 -0.1516  0.0363 -0.6670
 1469TIP3    H1 4371   4.834   1.278   1.764  0.6288  0.8528 -1.5955
 1469TIP3    H2 4372   4.764   1.357   1.872 -0.4627 -1.0510 -0.8646
 1470TIP3   OH2 4373   5.096   6.312   2.212  0.0060  0.1056 -0.0747
 1470TIP3    H1 4374   5.084   6.236   2.269 -1.2152 -0.3778 -0.9351
 1470TIP3    H2 4375   5.183   6.299   2.174 -0.4960 -1.3211 -0.8210
 1471TIP3   OH2 4376   4.783   4.035   4.368  0.1935 -0.0038 -0.4210
 1471TIP3    H1 4377   4.866   4.044   4.415 -0.0650 -0.5395  0.1513
 1471TIP3    H2 4378   4.734   3.970   4.418  0.0336 -0.8296 -1.6128
 1472TIP3   OH2 4379   1.555   4.394   2.867  0.1756  0.4863  0.5404
 1472TIP3    H1 4380   1.491   4.460   2.894 -0.6787  0.0634 -0.3557
 1472TIP3    H2 4381   1.505   4.312   2.868  1.4902 -0.3681  2.7067
 1473TIP3   OH2 4382   0.912   4.739   2.982  0.4295 -0.2456  0.5736
 1473TIP3    H1 4383   0.835   4.741   3.040  0.6433 -0.7969  0.8924
 1473TIP3    H2 4384   0.984   4.769   3.037  0.4059  0.5219  0.1992
 1474TIP3   OH2 4385   5.745   3.529   1.002 -0.0219  0.3780  0.5413
 1474TIP3    H1 4386   5.778   3.446   1.036  0.8631  0.7196  0.5255
 1474TIP3    H2 4387   5.807   3.594   1.032  1.7852  0.5268 -3.0328
 1475TIP3   OH2 4388   3.128   2.867   0.470  0.4300 -0.4734 -0.3578
 1475TIP3    H1 4389   3.127   2.835   0.560  2.9110  0.3778  0.0542
 1475TIP3    H2 4390   3.194   2.814   0.426 -1.0447 -1.1595 -1.8544
 1476TIP3   OH2 4391   2.227   1.685   2.266 -0.3822 -0.1625  0.2419
 1476TIP3    H1 4392   2.313   1.674   2.224 -0.5560  0.5284 -0.3158
 1476TIP3    H2 4393   2.247   1.694   2.359  0.2201  0.6234  0.0520
 1477TIP3   OH2 4394   2.884   2.471   3.004  0.2076  0.1466  0.1582
 1477TIP3    H1 4395   2.827   2.483   2.928  0.3353  0.5777  0.1322
 1477TIP3    H2 4396   2.861   2.384   3.037 -0.2773  0.2071 -0.0132
 1478TIP3   OH2 4397   0.279   1.383   1.385  0.1273  0.4104 -0.0403
 1478TIP3    H1 4398   0.373   1.366   1.384 -0.2809 -2.3262  1.1971
 1478TIP3    H2 4399   0.246   1.347   1.303 -0.0386 -0.0196  0.2124
 1479TIP3   OH2 4400   5.183   0.217   0.002 -0.0000  0.2100  0.7536
 1479TIP3    H1 4401   5.247   0.289   0.007 -1.0151  1.2092 -0.0024
 1479TIP3    H2 4402   5.147   0.212   0.091  0.1376  0.5770  0.8344
 1480TIP3   OH2 4403   1.627   4.764   1.743  0.2623 -0.1779 -0.6378
 1480TIP3    H1 4404   1.641   4.691   1.683 -0.4223 -1.4496  0.7016
 1480TIP3    H2 4405   1.534   4.784   1.737  0.3335  0.1865 -0.5609
 1481TIP3   OH2 4406   2.256   6.198   3.578  0.2843 -0.2201 -0.7165
 1481TIP3    H1 4407   2.185   6.230   3.522 -1.0774 -1.6042  0.1567
 1481TIP3    H2 4408   2.243   6.244   3.661 -0.4402 -1.4613 -0.1204
 1482TIP3   OH2 4409   2.304   1.536   4.043 -0.2954  1.1196  0.1861
 1482TIP3    H1 4410   2.375   1.582   3.997 -0.5493  1.4787  0.1434
 1482TIP3    H2 4411   2.226   1.588   4.022 -0.3688  1.4573  1.2585
 1483TIP3   OH2 4412   0.317   3.967   5.737 -0.5735  0.7952 -0.0433
 1483TIP3    H1 4413   0.234   3.949   5.782 -0.6777  1.9869  0.2850
 1483TIP3    H2 4414   0.323   3.899   5.670 -1.0509 -0.2400  0.9204
 1484TIP3   OH2 4415   3.400   3.157   4.060  0.3823 -0.2840 -0.3354
 1484TIP3    H1 4416   3.314   3.196   4.072  0.1651 -0.4186 -1.3280
 1484TIP3    H2 4417   3.385   3.063   4.069  0.0502 -0.4618 -2.3035
 1485TIP3   OH2 4418   2.401   3.051   3.962 -0.0097 -0.3189 -0.0758
 1485TIP3    H1 4419   2.329   3.098   4.003  0.4479  0.0426  0.3280
 1485TIP3    H2 4420   2.461   3.120   3.933  0.7046 -0.6449  0.5845
 1486TIP3   OH2 4421   2.514   2.100   0.693  0.7988  0.1124  0.4318
 1486TIP3    H1 4422   2.561   2.052   0.761  0.7647  2.0599  1.9257
 1486TIP3    H2 4423   2.428   2.058   0.688  1.7124 -1.7860 -0.4245
 1487TIP3   OH2 4424   0.290   5.214   1.867  0.1351 -0.1382 -0.1025
 1487TIP3    H1 4425   0.209   5.180   1.830 -0.4259  1.7144 -0.6888
 1487TIP3    H2 4426   0.307   5.294   1.817  0.4613  1.3557  2.2441
 1488TIP3   OH2 4427   0.121   2.438   0.506  0.4375  0.2532 -0.1395
 1488TIP3    H1 4428   0.153   2.348   0.499  1.0942  0.5106 -0.6240
 1488TIP3    H2 4429   0.027   2.430   0.520  0.3360 -0.4964 -1.1254
 1489TIP3   OH2 4430   5.672   3.130   5.429  0.1669 -0.1173  0.1740
 1489TIP3    H1 4431   5.604   3.122   5.496  0.5324  0.0608  0.5731
 1489TIP3    H2 4432   5.731   3.056   5.446  0.7742  0.4606  0.6503
 1490TIP3   OH2 4433   0.946   6.481   3.418 -0.3455 -0.0131  0.3082
 1490TIP3    H1 4434   1.037   6.488   3.447 -0.0319  2.0212 -0.9650
 1490TIP3    H2 4435   0.952   6.460   3.325 -1.1064  1.0595 -0.0086
 1491TIP3   OH2 4436   0.734   0.002   5.244  0.4154 -0.3585 -0.3930
 1491TIP3    H1 4437   0.639   0.009   5.247  0.4372 -0.4086  0.8718
 1491TIP3    H2 4438   0.763   0.030   5.331  1.6156  0.5463 -1.0491
 1492TIP3   OH2 4439   1.678   3.366   5.010 -0.5303  0.2361  0.4552
 1492TIP3    H1 4440   1.743   3.297   4.996 -0.1483  0.5429  0.6702
 1492TIP3    H2 4441   1.667   3.369   5.105 -2.5133 -1.3044  0.3150
 1493TIP3   OH2 4442   6.965   4.886   1.170 -0.1827  0.0107 -0.3616
 1493TIP3    H1 4443   7.060   4.896   1.173  0.0523 -0.4033 -3.2789
 1493TIP3    H2 4444   6.931   4.950   1.232  1.9473  1.9645 -1.0876
 1494TIP3   OH2 4445   2.178   1.341   2.264 -0.4248  0.2210  0.5362
 1494TIP3    H1 4446   2.163   1.248   2.277  1.0709  0.0091  0.9348
 1494TIP3    H2 4447   2.119   1.384   2.325 -2.0010 -0.4014 -0.4951
 1495TIP3   OH2 4448   4.414   4.134   2.888 -0.1458  0.1919 -0.4781
 1495TIP3    H1 4449   4.409   4.038   2.891 -0.0284  0.2010  0.3551
 1495TIP3    H2 4450   4.507   4.154   2.902 -0.2559  0.4366 -0.0698
 1496TIP3   OH2 4451   6.537   1.855   1.070 -0.4473 -0.8694 -0.2366
 1496TIP3    H1 4452   6.567   1.899   0.991 -2.8889  0.5322 -0.5025
 1496TIP3    H2 4453   6.611   1.859   1.130  0.5348  0.5517 -1.4864
 1497TIP3   OH2 4454   1.607   6.590   3.265 -0.1310 -0.1873 -0.3914
 1497TIP3    H1 4455   1.571   6.615   3.180  0.0284  0.4888 -0.2592
 1497TIP3    H2 4456   1.590   6.665   3.322  1.3397  0.1016 -0.2812
 1498TIP3   OH2 4457   2.746   0.351   4.261 -0.1873  0.1967 -0.2367
 1498TIP3    H1 4458   2.676   0.296   4.296 -0.5255  0.5514 -0.3556
 1498TIP3    H2 4459   2.794   0.294   4.202  1.5807 -1.0248  2.1885
 1499TIP3   OH2 4460   3.804   2.115   3.682 -0.1061  0.0791 -0.3673
 1499TIP3    H1 4461   3.873   2.177   3.705  0.5693 -0.1899 -1.5677
 1499TIP3    H2 4462   3.727   2.169   3.666 -0.4274  0.3222  1.7733
 1500TIP3   OH2 4463   6.020   5.856   0.327 -0.2345  0.2351 -0.3428
 1500TIP3    H1 4464   5.956   5.848   0.256 -1.2130 -0.7972  0.6154
 1500TIP3    H2 4465   5.971   5.895   0.399  0.5251  0.4725  0.0524
 1501TIP3   OH2 4466   6.503   4.951   0.092  0.5454  0.1602 -0.1027
 1501TIP3    H1 4467   6.527   5.020   0.030 -0.1156  0.1174 -0.4131
 1501TIP3    H2 4468   6.409   4.937   0.078  0.4900 -0.1877  0.5745
 1502TIP3   OH2 4469   4.403   5.029   2.051 -0.1326  0.0825 -0.0273
 1502TIP3    H1 4470   4.386   4.938   2.075  0.3220 -0.2712 -1.0199
 1502TIP3    H2 4471   4.460   5.062   2.121 -0.0156 -0.4908  0.1487
 1503TIP3   OH2 4472   4.058   4.692   0.763 -1.1418  0.3511 -0.4231
 1503TIP3    H1 4473   3.983   4.653   0.718 -0.5137 -0.8169 -0.4884
 1503TIP3    H2 4474   4.100   4.619   0.807  0.1176  0.9414 -0.6138
 1504TIP3   OH2 4475   5.995   6.134   4.465  0.2851 -0.0686  0.0278
 1504TIP3    H1 4476   6.030   6.198   4.404  1.7561 -1.5078 -0.7207
 1504TIP3    H2 4477   6.045   6.148   4.546 -1.2812  1.4683  0.8029
 1505TIP3   OH2 4478   4.551   1.241   5.232  0.3824 -0.3883  0.1137
 1505TIP3    H1 4479   4.560   1.335   5.243 -0.2365 -0.3476  0.3209
 1505TIP3    H2 4480   4.624   1.216   5.176 -0.4880  0.4951 -1.4794
 1506TIP3   OH2 4481   0.695   6.188   2.990  0.0052 -0.5197  0.0185
 1506TIP3    H1 4482   0.685   6.167   3.082 -0.3899 -0.2405  0.0417
 1506TIP3    H2 4483   0.698   6.283   2.987 -0.2436 -0.5173 -0.2775
 1507TIP3   OH2 4484   4.575   0.950   3.262 -0.0216 -0.2529 -0.0799
 1507TIP3    H1 4485   4.495   0.913   3.225  0.0326 -0.6198  0.1656
 1507TIP3    H2 4486   4.629   0.874   3.285  0.5474 -0.0053 -0.5606
 1508TIP3   OH2 4487   4.314   2.249   5.780 -0.6900  0.0545  0.1862
 1508TIP3    H1 4488   4.228   2.282   5.755 -0.9077  0.0756  0.9425
 1508TIP3    H2 4489   4.371   2.326   5.776 -0.3971 -0.2017 -1.5945
 1509TIP3   OH2 4490   0.794   3.252   3.324 -0.1823 -0.0512 -0.4577
 1509TIP3    H1 4491   0.866   3.193   3.347  1.3547  2.3101  1.1946
 1509TIP3    H2 4492   0.829   3.307   3.255 -1.1473 -0.1925 -1.0787
 1510TIP3   OH2 4493   4.485   3.370   2.922 -0.0057 -0.1135  0.7900
 1510TIP3    H1 4494   4.496   3.354   3.016 -2.2035 -0.1391  1.0857
 1510TIP3    H2 4495   4.516   3.290   2.880  0.4365 -0.3275  1.5028
 1511TIP3   OH2 4496   5.420   0.301   2.740  0.2827  0.0352  0.0468
 1511TIP3    H1 4497   5.489   0.367   2.740 -1.2370  1.7527 -1.6961
 1511TIP3    H2 4498   5.420   0.266   2.651  1.3764 -2.8241  1.0300
 1512TIP3   OH2 4499   3.118   4.341   4.872 -0.2500  0.1493  0.3502
 1512TIP3    H1 4500   3.085   4.420   4.916 -0.4329  0.5284 -0.4432
 1512TIP3    H2 4501   3.212   4.342   4.888 -0.4883 -0.5337  1.9986
 1513TIP3   OH2 4502   3.519   2.768   2.339 -0.4120 -0.5063 -0.3554
 1513TIP3    H1 4503   3.467   2.767   2.420 -1.2713  1.8869 -0.7691
 1513TIP3    H2 4504   3.490   2.692   2.290 -1.4503 -0.8053  0.6861
 1514TIP3   OH2 4505   2.497   5.526   3.339 -0.6553  0.3137 -0.6286
 1514TIP3    H1 4506   2.492   5.595   3.405 -1.4037 -0.3504  0.0208
 1514TIP3    H2 4507   2.465   5.567   3.259 -1.4382  0.6379 -0.1658
 1515TIP3   OH2 4508   2.476   3.735   5.449  0.0516  0.1409 -0.0912
 1515TIP3    H1 4509   2.485   3.644   5.423 -0.4250 -0.1219  0.6335
 1515TIP3    H2 4510   2.484   3.784   5.367  1.2119 -0.4743 -0.3750
 1516TIP3   OH2 4511   6.112   5.504   3.807 -0.4857  0.3862 -0.1592
 1516TIP3    H1 4512   6.169   5.436   3.843 -0.6615 -0.6559 -1.7778
 1516TIP3    H2 4513   6.157   5.586   3.828  0.3878 -0.2845  0.6884
 1517TIP3   OH2 4514   5.568   1.801   3.633 -0.3035 -0.6375 -0.3450
 1517TIP3    H1 4515   5.524   1.780   3.551 -0.2001 -2.1744 -0.0364
 1517TIP3    H2 4516   5.659   1.774   3.619  0.3599  1.4973 -0.5940
 1518TIP3   OH2 4517   2.118   1.666   3.151 -0.3237 -0.0775  0.1579
 1518TIP3    H1 4518   2.175   1.654   3.075  1.0696  0.4682  1.0719
 1518TIP3    H2 4519   2.052   1.728   3.121 -0.1145 -0.2749 -0.7576
 1519TIP3   OH2 4520   4.745   2.043   3.287 -0.1778  0.1072  0.4988
 1519TIP3    H1 4521   4.799   2.122   3.281  1.2118 -0.8025  0.6948
 1519TIP3    H2 4522   4.677   2.056   3.221  1.1264  0.6393 -0.7869
 1520TIP3   OH2 4523   6.089   3.456   0.878  0.0999  0.4498 -0.0630
 1520TIP3    H1 4524   6.049   3.380   0.922 -0.1011  1.1050  0.9284
 1520TIP3    H2 4525   6.016   3.517   0.866 -0.3619 -0.5709 -3.4051
 1521TIP3   OH2 4526   0.559   3.406   2.774 -0.5206  0.2301 -0.1190
 1521TIP3    H1 4527   0.583   3.496   2.796 -1.3780  0.3844  0.2322
 1521TIP3    H2 4528   0.483   3.415   2.716 -0.9608 -0.2669  0.3639
 1522TIP3   OH2 4529   5.616   4.084   0.121 -0.4510 -0.0091 -0.3941
 1522TIP3    H1 4530   5.564   4.005   0.107 -0.6870 -0.1516  1.1494
 1522TIP3    H2 4531   5.643   4.080   0.213  0.7641  0.9843 -0.6752
 1523TIP3   OH2 4532   4.425   4.627   4.899 -0.4377  0.2276 -0.5722
 1523TIP3    H1 4533   4.396   4.536   4.912 -1.3058  0.7093  1.1895
 1523TIP3    H2 4534   4.399   4.647   4.809  0.5099 -1.5012 -1.2983
 1524TIP3   OH2 4535   2.081   4.277   2.957  0.5020  0.4279 -0.2255
 1524TIP3    H1 4536   1.996   4.319   2.946  0.4738  0.8581  1.3168
 1524TIP3    H2 4537   2.060   4.188   2.987  0.5732  0.6565  0.5349
 1525TIP3   OH2 4538   2.035   1.210   3.110  0.1503 -0.0359 -0.6016
 1525TIP3    H1 4539   2.040   1.145   3.180 -1.8060  2.3428  1.9806
 1525TIP3    H2 4540   1.941   1.223   3.097  0.5015  0.8374 -2.4813
 1526TIP3   OH2 4541   5.310   6.791   4.972 -0.1213 -0.3490  0.1933
 1526TIP3    H1 4542   5.315   6.836   4.888 -0.9986 -0.3175  0.1442
 1526TIP3    H2 4543   5.362   6.712   4.961  2.3083  1.0919  0.5967
 1527TIP3   OH2 4544   0.705   3.587   5.759  0.3126 -0.8141 -0.1178
 1527TIP3    H1 4545   0.631   3.591   5.820  0.3465 -0.0853 -0.1201
 1527TIP3    H2 4546   0.689   3.659   5.697  2.0851  0.7264  1.1090
 1528TIP3   OH2 4547   1.554   5.797   0.128 -0.6950  0.0093 -0.4923
 1528TIP3    H1 4548   1.530   5.707   0.109 -0.9141 -0.1680  0.5785
 1528TIP3    H2 4549   1.527   5.811   0.219  0.0380  0.9116 -0.3974
 1529TIP3   OH2 4550   3.106   5.982   5.428 -0.0641  0.1922 -0.3362
 1529TIP3    H1 4551   3.131   6.073   5.441 -0.8108  0.2503  0.7975
 1529TIP3    H2 4552   3.151   5.956   5.348  0.7859  1.3219 -0.2456
 1530TIP3   OH2 4553   0.285   3.758   3.524 -0.1685  0.3425  0.1180
 1530TIP3    H1 4554   0.256   3.677   3.481  0.5332 -0.5398  1.2731
 1530TIP3    H2 4555   0.277   3.740   3.617  1.3848  1.0912  0.4198
 1531TIP3   OH2 4556   1.172   1.640   4.929  1.2518 -0.2606 -0.0082
 1531TIP3    H1 4557   1.100   1.583   4.953  0.0685  1.0224 -0.3434
 1531TIP3    H2 4558   1.247   1.608   4.978 -0.0513 -0.3598  2.0040
 1532TIP3   OH2 4559   0.317   5.640   2.533 -0.6352 -0.1532 -0.4457
 1532TIP3    H1 4560   0.236   5.600   2.566  0.4327 -1.8956  0.2134
 1532TIP3    H2 4561   0.310   5.633   2.438 -1.1959 -0.3931 -0.3950
 1533TIP3   OH2 4562   1.871   4.272   3.531 -0.0766  0.4686  0.2865
 1533TIP3    H1 4563   1.792   4.234   3.570 -1.1275  1.8554 -0.3748
 1533TIP3    H2 4564   1.902   4.205   3.470 -0.6104 -0.1939  0.7235
 1534TIP3   OH2 4565   3.261   3.441   0.442 -0.4858  0.3563  0.7259
 1534TIP3    H1 4566   3.322   3.370   0.423 -1.9114 -0.6916 -0.1064
 1534TIP3    H2 4567   3.314   3.507   0.485  1.0203 -0.9474  0.9532
 1535TIP3   OH2 4568   1.407   2.209   1.783 -0.1961  0.3071 -0.1650
 1535TIP3    H1 4569   1.355   2.287   1.798 -0.0639  0.3580  0.0332
 1535TIP3    H2 4570   1.496   2.241   1.767 -0.0333  0.1726  0.4494
 1536TIP3   OH2 4571   0.027   6.235   0.282  0.0416  0.2361  0.2187
 1536TIP3    H1 4572   0.097   6.232   0.348  0.3099  1.1685  0.0013
 1536TIP3    H2 4573  -0.015   6.320   0.297  0.2683  0.5741 -0.9521
 1537TIP3   OH2 4574   5.300   0.572   1.935 -0.4255  0.1488 -0.3615
 1537TIP3    H1 4575   5.238   0.569   2.007 -0.8870 -0.7766 -0.7817
 1537TIP3    H2 4576   5.379   0.529   1.968  0.6344  2.7321  0.7198
 1538TIP3   OH2 4577   3.318   6.406   1.765 -0.3112  0.1157  0.4533
 1538TIP3    H1 4578   3.339   6.319   1.731  0.7900  0.3154  0.6173
 1538TIP3    H2 4579   3.287   6.390   1.854  0.9110 -0.0320  0.8716
 1539TIP3   OH2 4580   6.991   0.286   0.513  0.0585 -0.1773  0.2421
 1539TIP3    H1 4581   7.084   0.304   0.530  0.0929  0.8444 -0.8618
 1539TIP3    H2 4582   6.948   0.371   0.524 -0.5086 -0.3378 -0.6693
 1540TIP3   OH2 4583   6.638   5.052   0.799  0.1226 -0.0879  0.1954
 1540TIP3    H1 4584   6.718   5.031   0.847  0.5166 -2.8697 -1.4486
 1540TIP3    H2 4585   6.665   5.056   0.708 -1.1400  2.0334 -0.1450
 1541TIP3   OH2 4586   1.700   3.290   4.072  0.1874 -0.0963  0.5215
 1541TIP3    H1 4587   1.660   3.223   4.017 -0.7746  1.0300 -0.1854
 1541TIP3    H2 4588   1.759   3.241   4.130  0.1114 -1.4571 -0.5028
 1542TIP3   OH2 4589   7.039   5.783   1.641  0.0676 -0.8980 -0.0967
 1542TIP3    H1 4590   7.111   5.748   1.693 -0.4714  1.0990  2.2350
 1542TIP3    H2 4591   6.961   5.766   1.694 -0.4994  1.3708 -0.0693
 1543TIP3   OH2 4592   5.317   2.247   3.284  0.1229  0.1979 -0.2071
 1543TIP3    H1 4593   5.376   2.171   3.284 -0.7859 -0.5446  1.1739
 1543TIP3    H2 4594   5.256   2.230   3.212  1.5865  1.0372 -1.7406
 1544TIP3   OH2 4595   0.340   1.328   2.792  0.5573  0.6729  0.4456
 1544TIP3    H1 4596   0.326   1.408   2.843  4.0783  1.7644 -0.0591
 1544TIP3    H2 4597   0.435   1.320   2.784  0.2896 -1.2792 -3.0805
 1545TIP3   OH2 4598   2.961   3.599   1.627 -0.1617 -0.0410 -0.1946
 1545TIP3    H1 4599   3.024   3.662   1.662 -0.5962  0.1091  0.3377
 1545TIP3    H2 4600   2.881   3.616   1.677 -1.5426  1.7638 -2.7548
 1546TIP3   OH2 4601   5.957   3.155   2.531  0.5174 -0.0264 -0.4010
 1546TIP3    H1 4602   5.891   3.090   2.554 -1.2447  1.8463  0.0173
 1546TIP3    H2 4603   6.018   3.107   2.475 -0.6459 -2.0610 -0.0287
 1547TIP3   OH2 4604   6.071   5.778   2.956 -0.2349  0.0309 -0.6441
 1547TIP3    H1 4605   6.145   5.743   3.006 -0.8840 -1.2399 -0.5218
 1547TIP3    H2 4606   6.003   5.793   3.022 -0.9459 -1.2344 -1.0456
 1548TIP3   OH2 4607   5.156   3.861   3.088  0.5025  0.6494  0.0419
 1548TIP3    H1 4608   5.186   3.914   3.014  2.6892 -0.7443 -0.1387
 1548TIP3    H2 4609   5.077   3.817   3.056 -0.8130  2.9544 -0.1197
 1549TIP3   OH2 4610   0.860   2.651   4.697 -0.0349  0.4359 -0.0488
 1549TIP3    H1 4611   0.905   2.591   4.637 -0.9872 -1.5444  1.1157
 1549TIP3    H2 4612   0.885   2.621   4.784  0.4012  2.5356  0.6006
 1550TIP3   OH2 4613   4.757   4.264   4.235  0.2973 -0.4724  0.4242
 1550TIP3    H1 4614   4.760   4.321   4.312  0.4162  0.3897 -0.2097
 1550TIP3    H2 4615   4.746   4.176   4.271  0.1793 -0.0612  1.4192
 1551TIP3   OH2 4616   4.639   6.309   2.417  0.4578  0.2577 -0.2883
 1551TIP3    H1 4617   4.621   6.320   2.324  2.9056 -1.9427 -1.1316
 1551TIP3    H2 4618   4.734   6.314   2.425  0.4618 -1.3438  1.7753
 1552TIP3   OH2 4619   6.463   1.924   2.848 -0.3343  0.6633 -0.3438
 1552TIP3    H1 4620   6.529   1.967   2.793 -1.1070  3.1695  0.5770
 1552TIP3    H2 4621   6.505   1.918   2.934 -0.8403  1.1386 -0.0594
 1553TIP3   OH2 4622   1.022   5.467   1.631  0.9174 -0.0510  0.6464
 1553TIP3    H1 4623   0.998   5.554   1.662 -2.5579 -1.0432  1.2194
 1553TIP3    H2 4624   1.055   5.481   1.542 -1.2070  1.7554  0.0695
 1554TIP3   OH2 4625   3.562   1.603   5.368  0.2594 -0.0564  0.2701
 1554TIP3    H1 4626   3.538   1.645   5.450 -0.6340  1.1565 -0.5712
 1554TIP3    H2 4627   3.625   1.663   5.328  1.8524 -1.3604  0.7103
 1555TIP3   OH2 4628   1.251   5.347   2.129 -0.0872  0.2773 -0.0558
 1555TIP3    H1 4629   1.323   5.409   2.133 -0.5907  0.9228 -0.7748
 1555TIP3    H2 4630   1.230   5.339   2.036  0.9132 -2.0991 -0.1512
 1556TIP3   OH2 4631   0.262   3.510   5.125 -0.4990  0.0823 -0.3076
 1556TIP3    H1 4632   0.299   3.468   5.203 -1.5577  0.2401  0.2955
 1556TIP3    H2 4633   0.215   3.586   5.159 -0.2177  0.6705 -1.1995
 1557TIP3   OH2 4634   2.949   2.504   1.841 -0.2141 -0.1762 -0.4602
 1557TIP3    H1 4635   3.005   2.460   1.777  0.4138  1.4839 -1.1184
 1557TIP3    H2 4636   2.872   2.532   1.791 -1.0797 -1.3562  0.1689
 1558TIP3   OH2 4637   5.668   1.172   2.534  0.3917 -0.0458  0.1927
 1558TIP3    H1 4638   5.606   1.221   2.480  1.0620  1.9302  1.0907
 1558TIP3    H2 4639   5.616   1.140   2.608  0.0949  0.0512  0.0266
 1559TIP3   OH2 4640   2.086   6.552   1.871 -0.3508  0.0735 -0.1000
 1559TIP3    H1 4641   2.055   6.481   1.928 -1.1208  0.9811  0.6530
 1559TIP3    H2 4642   2.179   6.561   1.892 -0.2541 -0.6691 -0.1717
 1560TIP3   OH2 4643   0.808   5.519   0.978  0.1614  0.2441 -0.2946
 1560TIP3    H1 4644   0.753   5.457   1.025  0.8107  0.1316  0.3181
 1560TIP3    H2 4645   0.748   5.589   0.951 -0.6267 -0.7724 -1.2308
 1561TIP3   OH2 4646   6.890   3.430   3.313 -0.2459  0.2758 -0.1893
 1561TIP3    H1 4647   6.858   3.387   3.234  0.5360 -0.9558  0.1384
 1561TIP3    H2 4648   6.813   3.474   3.350 -1.0519 -0.7779 -0.5893
 1562TIP3   OH2 4649   1.194   1.046   3.378 -0.5763 -0.0040  0.2193
 1562TIP3    H1 4650   1.229   1.131   3.405  1.2141  0.0991 -2.1247
 1562TIP3    H2 4651   1.225   0.986   3.446 -1.0185  1.0271  1.3722
 1563TIP3   OH2 4652   4.767   2.523   5.846  0.0282  0.2702 -0.4507
 1563TIP3    H1 4653   4.704   2.557   5.783 -1.8423  1.1945  1.7904
 1563TIP3    H2 4654   4.826   2.596   5.864  0.3898  0.0890 -0.8532
 1564TIP3   OH2 4655   1.262   4.737   1.324 -0.4231 -0.5633  0.2377
 1564TIP3    H1 4656   1.322   4.706   1.256 -2.4412 -1.6679 -1.1507
 1564TIP3    H2 4657   1.319   4.774   1.392  1.7053  0.6155 -2.0203
 1565TIP3   OH2 4658   0.968   0.642   3.185 -0.2099  0.0188 -0.2253
 1565TIP3    H1 4659   0.902   0.651   3.253  0.3755  0.8458  0.2503
 1565TIP3    H2 4660   1.038   0.592   3.226  0.1926  0.6160 -0.1775
 1566TIP3   OH2 4661   3.879   5.622   5.672 -0.1847 -0.0913 -0.1326
 1566TIP3    H1 4662   3.945   5.593   5.609  1.8881 -0.3712  2.0172
 1566TIP3    H2 4663   3.913   5.706   5.704  0.2634 -1.1723  2.4498
 1567TIP3   OH2 4664   2.676   1.565   1.931  0.1347 -0.0928 -0.3331
 1567TIP3    H1 4665   2.651   1.484   1.885  1.0873 -0.8561  0.4451
 1567TIP3    H2 4666   2.626   1.634   1.887 -0.5476 -1.0751 -1.1495
 1568TIP3   OH2 4667   5.671   0.579   4.119  0.1206  0.2230  0.2053
 1568TIP3    H1 4668   5.580   0.557   4.103  0.1894  0.4989 -0.6087
 1568TIP3    H2 4669   5.703   0.612   4.035  0.7171  1.0000  0.7198
 1569TIP3   OH2 4670   3.784   2.408   0.791  0.1013 -0.1239 -0.5590
 1569TIP3    H1 4671   3.867   2.399   0.838  0.0169 -2.4616 -0.7180
 1569TIP3    H2 4672   3.799   2.481   0.731  1.5125  0.4647  0.4363
 1570TIP3   OH2 4673   4.061   5.829   0.565 -0.5829  0.1129 -0.1289
 1570TIP3    H1 4674   4.128   5.897   0.576  0.4032 -1.0571  1.6962
 1570TIP3    H2 4675   3.978   5.875   0.571  0.0684  1.1750  1.2118
 1571TIP3   OH2 4676   2.694   4.869   3.944  1.1131 -0.0763 -0.5088
 1571TIP3    H1 4677   2.628   4.924   3.987  0.7089 -1.4026  0.6463
 1571TIP3    H2 4678   2.662   4.859   3.855 -0.4774 -0.9373  0.1042
 1572TIP3   OH2 4679   4.480   6.578   0.778  0.2152 -0.1679 -0.3774
 1572TIP3    H1 4680   4.428   6.642   0.827 -1.3054 -0.7673 -1.1565
 1572TIP3    H2 4681   4.491   6.618   0.691 -0.8380 -0.9868 -0.9018
 1573TIP3   OH2 4682   3.017   5.363   2.105 -0.3174 -0.4944  0.4585
 1573TIP3    H1 4683   3.064   5.342   2.185  0.2935 -0.3222  0.1532
 1573TIP3    H2 4684   3.019   5.282   2.054 -0.9155 -0.6776  0.7059
 1574TIP3   OH2 4685   2.020   4.633   4.158  0.7864  0.4797 -0.4189
 1574TIP3    H1 4686   1.975   4.711   4.125 -0.4930 -0.2823 -0.5335
 1574TIP3    H2 4687   2.096   4.668   4.205  1.7968  1.6753 -2.7665
 1575TIP3   OH2 4688   0.128   3.263   5.410  0.7036 -0.0559  0.0362
 1575TIP3    H1 4689   0.147   3.180   5.453 -0.1707 -0.3307 -0.0791
 1575TIP3    H2 4690   0.119   3.240   5.317 -0.7014 -0.0527  0.1540
 1576TIP3   OH2 4691   5.655   0.680   3.493  0.0870  0.0593  0.7703
 1576TIP3    H1 4692   5.717   0.706   3.561 -0.1513 -0.3784  1.1546
 1576TIP3    H2 4693   5.672   0.742   3.421  0.9919 -0.0778  0.8512
 1577TIP3   OH2 4694   5.831   0.164   5.267 -0.0292 -0.2986  0.1077
 1577TIP3    H1 4695   5.863   0.203   5.349  0.8776 -0.4669 -0.1558
 1577TIP3    H2 4696   5.889   0.089   5.252  0.3732  0.2381 -1.1318
 1578TIP3   OH2 4697   1.162   6.720   5.691 -0.1312 -0.1453  0.3816
 1578TIP3    H1 4698   1.229   6.745   5.628  2.0524 -0.0795  2.5551
 1578TIP3    H2 4699   1.126   6.638   5.657  1.6697 -0.6189 -0.4844
 1579TIP3   OH2 4700   6.745   3.212   0.996 -0.2212  0.4079  0.1413
 1579TIP3    H1 4701   6.805   3.241   0.927 -0.9582  1.2010 -0.1854
 1579TIP3    H2 4702   6.741   3.117   0.986  0.0344  0.4704 -0.6181
 1580TIP3   OH2 4703   2.424   1.547   1.223 -0.3119 -0.7740 -0.9502
 1580TIP3    H1 4704   2.383   1.462   1.206 -0.1574 -1.2152  0.6957
 1580TIP3    H2 4705   2.427   1.553   1.319 -0.1864  1.0303 -1.0358
 1581TIP3   OH2 4706   3.495   2.391   4.812 -0.3490  0.5104 -0.2994
 1581TIP3    H1 4707   3.494   2.445   4.891  0.1533 -0.2856  0.2646
 1581TIP3    H2 4708   3.521   2.452   4.742  2.0192  0.6646  0.6172
 1582TIP3   OH2 4709   0.083   1.689   0.263  0.1921  0.4796 -0.0984
 1582TIP3    H1 4710  -0.011   1.681   0.245 -0.0369  1.1840  0.7365
 1582TIP3    H2 4711   0.125   1.675   0.178 -0.6653  0.2221 -0.4903
 1583TIP3   OH2 4712   0.879   0.522   2.223  0.1678 -0.2310 -0.3853
 1583TIP3    H1 4713   0.903   0.461   2.153 -1.9896 -0.7351 -0.7733
 1583TIP3    H2 4714   0.787   0.501   2.243  0.1774  1.1065  1.3560
 1584TIP3   OH2 4715   5.398   5.021   3.815 -0.0274 -0.0302 -0.1885
 1584TIP3    H1 4716   5.392   4.931   3.847 -1.1485 -0.1608 -0.7236
 1584TIP3    H2 4717   5.355   5.074   3.883 -0.5292 -0.0607 -0.4766
 1585TIP3   OH2 4718   0.442   0.791   2.120  0.2077 -0.4569 -0.1075
 1585TIP3    H1 4719   0.348   0.810   2.111  0.7391  3.1123  0.4431
 1585TIP3    H2 4720   0.469   0.761   2.034 -1.1604 -0.0952 -0.6937
 1586TIP3   OH2 4721   4.521   2.205   3.864 -0.4321 -0.1480  0.4216
 1586TIP3    H1 4722   4.473   2.288   3.868 -1.4868 -0.6006 -1.3405
 1586TIP3    H2 4723   4.603   2.227   3.820 -1.1544 -0.1700 -1.0040
 1587TIP3   OH2 4724   0.866   4.223   3.529  0.0890 -0.9058  0.0243
 1587TIP3    H1 4725   0.898   4.299   3.579 -1.2164 -0.7965  0.7407
 1587TIP3    H2 4726   0.919   4.150   3.561  0.9884 -0.4058 -0.2761
 1588TIP3   OH2 4727   0.771   4.842   2.751 -0.5025  0.0502 -0.0211
 1588TIP3    H1 4728   0.831   4.794   2.808  0.0736  0.1209 -0.5494
 1588TIP3    H2 4729   0.752   4.923   2.799 -0.5497 -0.1830  0.3569
 1589TIP3   OH2 4730   5.098   3.933   1.536  0.0736 -0.4888 -0.1970
 1589TIP3    H1 4731   5.117   3.977   1.619  0.3455 -0.0491 -0.4904
 1589TIP3    H2 4732   5.164   3.966   1.475 -0.3095 -0.5784 -0.6679
 1590TIP3   OH2 4733   3.529   2.239   0.215  0.2860  0.2781  0.2453
 1590TIP3    H1 4734   3.624   2.234   0.199  0.0566  0.6794 -1.3270
 1590TIP3    H2 4735   3.517   2.322   0.260  0.8260 -0.4061  1.7244
 1591TIP3   OH2 4736   6.222   4.841   0.511 -0.4661  0.2593 -0.4586
 1591TIP3    H1 4737   6.300   4.794   0.541 -0.9002 -0.8995 -1.1125
 1591TIP3    H2 4738   6.213   4.914   0.573  0.6808 -0.0409  0.0865
 1592TIP3   OH2 4739   2.367   5.525   1.571  0.0179 -0.1529 -0.5780
 1592TIP3    H1 4740   2.317   5.585   1.517 -1.4786 -1.6770 -0.9625
 1592TIP3    H2 4741   2.354   5.556   1.660 -1.1806 -0.2055 -0.7244
 1593TIP3   OH2 4742   1.470   0.319   4.742 -0.2385  0.8337 -0.3868
 1593TIP3    H1 4743   1.471   0.230   4.777 -2.2669  0.2456 -1.6836
 1593TIP3    H2 4744   1.411   0.367   4.800 -0.2536  0.9597 -0.5053
 1594TIP3   OH2 4745   5.552   0.656   3.118  0.4141 -0.1446  0.0094
 1594TIP3    H1 4746   5.631   0.689   3.160  0.1496  0.6116 -0.0732
 1594TIP3    H2 4747   5.522   0.728   3.063 -0.6678 -0.1947  0.5002
 1595TIP3   OH2 4748   7.035   2.324   0.716 -1.0126  0.4861  0.0734
 1595TIP3    H1 4749   7.018   2.369   0.633  1.9866 -0.6599 -1.3078
 1595TIP3    H2 4750   7.048   2.395   0.779 -1.5153  1.4287 -0.8417
 1596TIP3   OH2 4751   5.905   3.626   0.046  0.2653 -0.4922  0.0595
 1596TIP3    H1 4752   5.953   3.697   0.089  0.5075 -1.3566  1.2807
 1596TIP3    H2 4753   5.878   3.569   0.118  1.2537 -2.3632 -0.9813
 1597TIP3   OH2 4754   3.198   1.808   3.364  0.1778  0.2947  0.2784
 1597TIP3    H1 4755   3.285   1.837   3.337 -0.0023  0.8080  0.2401
 1597TIP3    H2 4756   3.140   1.881   3.342 -0.4735 -0.5341 -0.9061
 1598TIP3   OH2 4757   1.259   5.732   2.142 -0.2025 -0.6234 -0.2720
 1598TIP3    H1 4758   1.229   5.726   2.233  0.0160  0.6224 -0.0866
 1598TIP3    H2 4759   1.333   5.672   2.136 -0.8368 -1.4549  0.0934
 1599TIP3   OH2 4760   4.339   0.056   4.670  0.0732  0.3791  0.0725
 1599TIP3    H1 4761   4.382   0.015   4.746  0.5793  0.6188 -0.0794
 1599TIP3    H2 4762   4.258   0.006   4.658 -0.5906  1.0493  1.4804
 1600TIP3   OH2 4763   0.731   0.131   2.561  0.2857 -0.7424  0.7367
 1600TIP3    H1 4764   0.818   0.158   2.591 -0.2789 -0.6260  2.3451
 1600TIP3    H2 4765   0.735   0.035   2.559 -0.3873 -0.9357  3.7350
 1601TIP3   OH2 4766   2.666   3.596   3.922  0.1030 -0.5663  0.1562
 1601TIP3    H1 4767   2.728   3.604   3.849 -0.1598  0.2854  0.0171
 1601TIP3    H2 4768   2.714   3.546   3.988  0.5592 -0.8309 -0.3649
 1602TIP3   OH2 4769   4.215   6.083   4.150  0.4668  0.3361  0.0241
 1602TIP3    H1 4770   4.233   6.177   4.144  1.3298  0.2383  0.7111
 1602TIP3    H2 4771   4.164   6.062   4.072  0.5355  1.3184 -0.2926
 1603TIP3   OH2 4772   0.259   0.856   3.791 -0.3081  0.5848 -0.7449
 1603TIP3    H1 4773   0.338   0.853   3.737  0.4840  1.1947  0.3235
 1603TIP3    H2 4774   0.270   0.935   3.844 -0.3101 -0.7411  1.3598
 1604TIP3   OH2 4775   2.625   5.149   1.391 -0.4755 -0.3276  0.3092
 1604TIP3    H1 4776   2.565   5.079   1.366 -4.1181  2.0725  1.5012
 1604TIP3    H2 4777   2.649   5.190   1.307 -1.2170 -0.8367 -0.1686
 1605TIP3   OH2 4778   5.134   2.095   3.119 -0.3297  0.5070  0.2362
 1605TIP3    H1 4779   5.195   2.078   3.046  0.6798 -0.5634  1.2823
 1605TIP3    H2 4780   5.057   2.133   3.077  0.8162  1.3472 -1.2096
 1606TIP3   OH2 4781   3.494   1.505   3.662 -0.1601  0.2711  0.6342
 1606TIP3    H1 4782   3.405   1.486   3.693  0.4195  1.0494  2.9915
 1606TIP3    H2 4783   3.550   1.480   3.736  1.7969 -1.7618 -1.3811
 1607TIP3   OH2 4784   2.284   4.879   2.224 -0.6805  0.4417  0.0211
 1607TIP3    H1 4785   2.327   4.910   2.144 -0.1700  0.5059  0.3172
 1607TIP3    H2 4786   2.265   4.787   2.207 -1.0291  0.5779 -0.3630
 1608TIP3   OH2 4787   6.049   3.159   3.554  0.3994 -0.3602  0.7154
 1608TIP3    H1 4788   5.985   3.109   3.503 -1.5893  0.7869  1.9697
 1608TIP3    H2 4789   6.102   3.092   3.598  1.6570 -1.3718 -2.0941
 1609TIP3   OH2 4790   0.039   2.690   1.050  0.6071  0.2048 -0.2550
 1609TIP3    H1 4791   0.083   2.691   1.134  2.3790  1.6534 -1.1264
 1609TIP3    H2 4792   0.105   2.662   0.987 -1.2901 -3.2175 -0.9767
 1610TIP3   OH2 4793   5.505   4.450   2.184 -0.3690 -0.6686  0.2609
 1610TIP3    H1 4794   5.420   4.473   2.145 -0.4834  0.4383  1.1128
 1610TIP3    H2 4795   5.508   4.355   2.180 -1.7845 -0.7488  0.4858
 1611TIP3   OH2 4796   4.721   5.903   2.918 -0.3700 -0.0537 -0.5127
 1611TIP3    H1 4797   4.652   5.967   2.938  0.8709  2.3669 -3.2649
 1611TIP3    H2 4798   4.675   5.835   2.869 -1.7654 -1.6396  2.6813
 1612TIP3   OH2 4799   2.692   2.806   0.274 -0.0939  0.1734 -0.4360
 1612TIP3    H1 4800   2.761   2.739   0.274 -0.3891 -0.1926  1.5423
 1612TIP3    H2 4801   2.716   2.864   0.346 -1.1368  0.8174 -0.5931
 1613TIP3   OH2 4802   2.779   3.419   1.016  0.4637 -0.2030 -0.3664
 1613TIP3    H1 4803   2.761   3.382   1.102 -0.2172  0.1633 -0.3454
 1613TIP3    H2 4804   2.697   3.460   0.990  1.1422  1.1271 -0.4801
 1614TIP3   OH2 4805   5.902   6.698   2.828  0.1365  0.1954  0.2583
 1614TIP3    H1 4806   5.920   6.741   2.745 -2.4675  0.2279 -0.3662
 1614TIP3    H2 4807   5.973   6.634   2.838 -0.0019 -0.5104 -2.5136
 1615TIP3   OH2 4808   5.093   5.278   3.237 -0.1400  0.0508 -0.2683
 1615TIP3    H1 4809   5.026   5.292   3.170  0.5357  1.1035 -0.7581
 1615TIP3    H2 4810   5.048   5.295   3.320 -1.1445 -1.8592 -0.3646
 1616TIP3   OH2 4811   1.210   4.246   5.828  0.2261  0.5946 -0.3580
 1616TIP3    H1 4812   1.293   4.221   5.789 -0.4519  2.1693 -3.0944
 1616TIP3    H2 4813   1.147   4.182   5.793  0.1863 -0.4829  1.5502
 1617TIP3   OH2 4814   3.604   3.069   4.932 -0.1883 -0.4077  0.0237
 1617TIP3    H1 4815   3.523   3.078   4.882 -0.3033 -2.5099 -0.2430
 1617TIP3    H2 4816   3.582   3.009   5.004  0.8320 -0.0473  0.6678
 1618TIP3   OH2 4817   4.323   2.521   4.940  0.1997  0.5263 -0.1417
 1618TIP3    H1 4818   4.273   2.547   4.862  1.1265  2.4011 -0.1652
 1618TIP3    H2 4819   4.304   2.589   5.004  1.5839  0.4798  0.3311
 1619TIP3   OH2 4820   6.901   0.247   5.534 -0.5814 -0.1495 -0.3691
 1619TIP3    H1 4821   6.902   0.202   5.449  0.5389 -1.1998  0.1492
 1619TIP3    H2 4822   6.826   0.210   5.580 -0.7402 -0.1472 -0.6265
 1620TIP3   OH2 4823   5.040   2.569   4.921 -0.1632 -0.1707 -0.5908
 1620TIP3    H1 4824   5.068   2.653   4.886  1.0430 -0.2024  0.2228
 1620TIP3    H2 4825   5.045   2.579   5.016 -1.2472 -0.7650 -0.4508
 1621TIP3   OH2 4826   1.775   5.982   0.945  0.1472  0.4912 -0.4615
 1621TIP3    H1 4827   1.723   6.046   0.994  0.7891  0.0642  0.8366
 1621TIP3    H2 4828   1.848   6.033   0.909  1.3682  0.3398  1.6340
 1622TIP3   OH2 4829   0.761   3.141   5.390  0.2685  0.3494 -0.1569
 1622TIP3    H1 4830   0.847   3.183   5.388  3.2341 -4.6932  1.3841
 1622TIP3    H2 4831   0.736   3.141   5.483  1.4489 -2.6855  0.2817
 1623TIP3   OH2 4832   3.945   2.639   4.052 -0.1459 -0.2576  0.5695
 1623TIP3    H1 4833   3.920   2.721   4.011 -1.9709 -0.3654  1.3669
 1623TIP3    H2 4834   3.864   2.589   4.059  0.4795 -1.1497  2.2618
 1624TIP3   OH2 4835   1.412   1.061   5.169  0.3800 -0.3334  0.1186
 1624TIP3    H1 4836   1.349   1.025   5.108 -0.1761 -0.5196  0.7880
 1624TIP3    H2 4837   1.455   1.132   5.120 -1.7903  1.2013  0.2704
 1625TIP3   OH2 4838   3.147   3.323   3.350  0.0304 -0.4175 -0.1170
 1625TIP3    H1 4839   3.151   3.410   3.312  0.5232 -0.3664  0.0479
 1625TIP3    H2 4840   3.150   3.263   3.276  1.9182 -0.3464 -0.1456
 1626TIP3   OH2 4841   0.834   3.167   4.168  0.3583  0.5549  0.0025
 1626TIP3    H1 4842   0.889   3.234   4.128  0.6638  0.2758 -0.0494
 1626TIP3    H2 4843   0.761   3.215   4.206  0.6688  0.9347  0.1187
 1627TIP3   OH2 4844   3.130   4.629   4.146  0.1143 -0.5928  0.1889
 1627TIP3    H1 4845   3.108   4.540   4.174  0.0979 -0.0533  2.0341
 1627TIP3    H2 4846   3.075   4.644   4.069  0.1234 -2.1681 -0.1624
 1628TIP3   OH2 4847   6.993   6.115   2.928 -0.8972 -0.1214 -0.5941
 1628TIP3    H1 4848   6.953   6.202   2.931 -0.9762 -0.0615 -2.3324
 1628TIP3    H2 4849   6.997   6.094   2.834 -1.5898 -2.3085 -0.1824
 1629TIP3   OH2 4850   6.344   2.314   4.065  0.1112  0.2532 -0.0881
 1629TIP3    H1 4851   6.376   2.289   3.978  1.6785 -2.4891  1.1374
 1629TIP3    H2 4852   6.265   2.365   4.048 -0.9051 -2.0293 -3.1249
 1630TIP3   OH2 4853   7.153   5.361   3.156 -0.4022 -0.3210  0.1268
 1630TIP3    H1 4854   7.168   5.350   3.250  1.1052  0.2557 -0.0235
 1630TIP3    H2 4855   7.113   5.448   3.148 -0.3477 -0.2880  0.2145
 1631TIP3   OH2 4856   6.875   0.059   0.588  0.1793 -0.4599  0.3203
 1631TIP3    H1 4857   6.906   0.141   0.549  0.7603  0.4960  2.5996
 1631TIP3    H2 4858   6.779   0.067   0.586  0.2292  0.4617  0.8270
 1632TIP3   OH2 4859   3.273   5.035   3.367  0.0264  0.4958  0.1721
 1632TIP3    H1 4860   3.244   5.057   3.278  1.1112 -1.0264 -0.6014
 1632TIP3    H2 4861   3.216   4.963   3.394 -0.4178  1.0713  0.8038
 1633TIP3   OH2 4862   2.618   2.695   2.274  0.2078  0.3028  1.1757
 1633TIP3    H1 4863   2.634   2.788   2.287  1.0965  0.3610 -0.1752
 1633TIP3    H2 4864   2.699   2.652   2.300  0.8988  0.1849 -0.9670
 1634TIP3   OH2 4865   6.746   4.409   5.567  0.4017  0.2530  0.1787
 1634TIP3    H1 4866   6.732   4.503   5.580  2.5637  0.8425 -1.2270
 1634TIP3    H2 4867   6.769   4.376   5.654  0.7839  1.2550  0.4643
 1635TIP3   OH2 4868   6.174   1.986   1.705  1.0620 -0.3166  0.1236
 1635TIP3    H1 4869   6.177   2.014   1.796  0.0479  0.4072 -0.0578
 1635TIP3    H2 4870   6.266   1.969   1.682  1.2573 -1.2199  1.4844
 1636TIP3   OH2 4871   5.169   3.362   1.055 -0.3439 -0.2411  0.1057
 1636TIP3    H1 4872   5.135   3.283   1.099  0.5030  0.2813  1.8007
 1636TIP3    H2 4873   5.192   3.420   1.127  2.6134  0.0550 -0.9800
 1637TIP3   OH2 4874   1.987   2.177   3.210 -0.0955 -0.2295  0.6626
 1637TIP3    H1 4875   1.956   2.232   3.138  0.1693 -0.6621  0.2138
 1637TIP3    H2 4876   2.054   2.230   3.254 -1.8180  0.9590  2.0104
 1638TIP3   OH2 4877   6.675   5.865   3.134 -0.5182 -0.3256  0.3834
 1638TIP3    H1 4878   6.639   5.950   3.162 -0.9466 -0.0838 -0.8347
 1638TIP3    H2 4879   6.620   5.800   3.178 -1.7937  0.0440 -0.5936
 1639TIP3   OH2 4880   5.653   4.526   4.444  0.3661  0.2788 -0.4057
 1639TIP3    H1 4881   5.681   4.505   4.533  0.4242 -2.1931 -0.9247
 1639TIP3    H2 4882   5.561   4.499   4.440  0.5033 -0.1055 -1.2215
 1640TIP3   OH2 4883   0.837   1.505   3.617 -0.2997  0.0110 -0.2207
 1640TIP3    H1 4884   0.905   1.524   3.552 -0.6416  0.3138 -0.4991
 1640TIP3    H2 4885   0.833   1.410   3.621  1.0532 -0.0340  0.7695
 1641TIP3   OH2 4886   6.596   0.540   1.244  0.2467  0.2133 -0.3038
 1641TIP3    H1 4887   6.581   0.453   1.207  0.9403 -0.1908  0.3620
 1641TIP3    H2 4888   6.556   0.600   1.180 -0.8312 -0.6202 -0.4263
 1642TIP3   OH2 4889   2.468   4.037   3.708 -0.0016  0.3904 -0.3175
 1642TIP3    H1 4890   2.443   4.071   3.793  0.1990 -1.7744  0.6682
 1642TIP3    H2 4891   2.386   4.029   3.660 -0.2688  0.4352  0.1275
 1643TIP3   OH2 4892   1.687   4.188   3.142  0.2764 -0.4433 -0.1815
 1643TIP3    H1 4893   1.716   4.277   3.162  0.8552 -0.8022  0.6405
 1643TIP3    H2 4894   1.665   4.150   3.227  1.1181 -1.4499 -0.3968
 1644TIP3   OH2 4895   0.781   5.447   4.615  0.5224  0.4838  0.4419
 1644TIP3    H1 4896   0.859   5.490   4.648 -0.2572  1.2825  1.3010
 1644TIP3    H2 4897   0.814   5.381   4.554  1.7863  1.7158 -0.2672
 1645TIP3   OH2 4898   1.121   1.717   4.088  0.0141  0.6796 -0.5210
 1645TIP3    H1 4899   1.189   1.650   4.087  0.6498  1.3102 -0.2440
 1645TIP3    H2 4900   1.137   1.767   4.168 -0.8625  0.7531 -0.3763
 1646TIP3   OH2 4901   5.788   3.450   2.130  0.3373  0.2205  0.1790
 1646TIP3    H1 4902   5.735   3.435   2.208 -0.1367  0.5443 -0.0730
 1646TIP3    H2 4903   5.871   3.405   2.148  0.0815 -0.0574  0.6933
 1647TIP3   OH2 4904   4.740   6.366   5.530 -0.2076  1.0194  0.1382
 1647TIP3    H1 4905   4.818   6.419   5.517 -0.9078  1.8083 -1.0889
 1647TIP3    H2 4906   4.695   6.406   5.604  0.2807  0.8947  0.5020
 1648TIP3   OH2 4907   5.580   4.242   0.615 -0.4494 -0.0396 -0.3116
 1648TIP3    H1 4908   5.520   4.290   0.558  0.3514  1.0197 -0.2915
 1648TIP3    H2 4909   5.642   4.200   0.556 -0.4942 -0.1421 -0.2853
 1649TIP3   OH2 4910   3.404   3.770   3.324 -0.6512 -0.4621 -0.0622
 1649TIP3    H1 4911   3.315   3.772   3.360 -0.3024  1.0668  0.8073
 1649TIP3    H2 4912   3.443   3.693   3.364 -1.2953 -0.6116  0.3049
 1650TIP3   OH2 4913   4.551   4.553   4.005  0.3131 -0.1818 -0.5161
 1650TIP3    H1 4914   4.468   4.508   3.986  1.2984 -1.2445 -2.5566
 1650TIP3    H2 4915   4.547   4.633   3.953  0.8771 -0.6133 -1.2359
 1651TIP3   OH2 4916   1.221   0.588   3.040  0.2099 -0.1107  0.2912
 1651TIP3    H1 4917   1.209   0.555   3.130  0.4253  0.6146  0.5932
 1651TIP3    H2 4918   1.227   0.683   3.050  1.3946 -0.1031 -0.3746
 1652TIP3   OH2 4919   2.409   5.810   1.409  0.0126 -0.1826  0.0647
 1652TIP3    H1 4920   2.496   5.848   1.419  0.7837 -1.8226 -0.0705
 1652TIP3    H2 4921   2.349   5.877   1.443  1.3497  0.7916  0.5815
 1653TIP3   OH2 4922   4.888   1.605   5.197 -0.3117 -0.1958 -0.3492
 1653TIP3    H1 4923   4.962   1.576   5.142  1.3014 -1.0032  2.1073
 1653TIP3    H2 4924   4.920   1.684   5.240 -1.5023  0.3465 -0.4157
 1654TIP3   OH2 4925   0.716   6.457   3.025  0.3156 -0.2829 -0.3144
 1654TIP3    H1 4926   0.766   6.475   3.104 -2.4470  1.0586  1.2626
 1654TIP3    H2 4927   0.656   6.531   3.017 -1.4463 -1.7859 -2.0415
 1655TIP3   OH2 4928   4.144   2.361   5.566 -0.8231 -0.0370  0.8889
 1655TIP3    H1 4929   4.175   2.297   5.502 -1.1424 -0.3999  1.1008
 1655TIP3    H2 4930   4.095   2.424   5.513  0.7493  0.8932  0.4450
 1656TIP3   OH2 4931   0.905   6.714   1.352  0.1012 -0.3475  0.1632
 1656TIP3    H1 4932   0.916   6.798   1.309 -0.0159  0.6064  1.8879
 1656TIP3    H2 4933   0.983   6.664   1.329  1.3990  1.1672  1.0735
 1657TIP3   OH2 4934   3.965   1.297   4.021  0.8642 -0.1208  0.2166
 1657TIP3    H1 4935   3.898   1.364   4.037  0.0487 -0.9238  0.2233
 1657TIP3    H2 4936   4.038   1.323   4.077 -0.5535 -0.8343  2.5351
 1658TIP3   OH2 4937   0.932   0.761   0.558  0.5791 -0.0815  0.4537
 1658TIP3    H1 4938   0.961   0.794   0.643  0.1084 -0.0459  0.6043
 1658TIP3    H2 4939   0.911   0.840   0.507 -2.3008 -0.1049  1.4275
 1659TIP3   OH2 4940   6.811   6.010   0.910  0.1487 -0.1723  0.5091
 1659TIP3    H1 4941   6.880   6.042   0.853 -0.3823 -0.3025 -0.2247
 1659TIP3    H2 4942   6.784   6.088   0.960 -0.3822  0.2950 -0.4763
 1660TIP3   OH2 4943   7.177   4.600   2.792 -0.1819 -0.0545  0.5605
 1660TIP3    H1 4944   7.100   4.608   2.848 -0.6430  3.5478 -0.3411
 1660TIP3    H2 4945   7.251   4.611   2.851 -0.5594  0.9637  0.8536
 1661TIP3   OH2 4946   0.048   0.305   2.996  0.2258 -0.3015 -0.4846
 1661TIP3    H1 4947   0.075   0.214   3.008 -0.4529 -0.4637 -0.0994
 1661TIP3    H2 4948   0.129   0.356   3.002  0.5044 -0.8059  0.1527
 1662TIP3   OH2 4949   2.007   2.079   4.576  0.4943  0.0393 -0.0729
 1662TIP3    H1 4950   2.050   1.998   4.602  0.9411  0.0724 -0.6859
 1662TIP3    H2 4951   1.943   2.052   4.510 -0.5128 -0.0224  0.8895
 1663TIP3   OH2 4952   5.819   5.034   1.160  0.7021  0.0282  0.0654
 1663TIP3    H1 4953   5.847   5.039   1.068  2.6338  3.4116  0.6728
 1663TIP3    H2 4954   5.762   5.110   1.171 -1.0372 -1.3594  1.3352
 1664TIP3   OH2 4955   2.976   0.195   4.955  0.6643 -0.7466 -0.0203
 1664TIP3    H1 4956   3.066   0.164   4.970  0.6517 -1.6665 -1.5672
 1664TIP3    H2 4957   2.962   0.180   4.861 -0.5001  1.0378 -0.1708
 1665TIP3   OH2 4958   5.799   0.748   5.391  0.0757  0.4559 -0.3351
 1665TIP3    H1 4959   5.745   0.821   5.360  0.3312  0.8938  0.2435
 1665TIP3    H2 4960   5.886   0.786   5.401  0.7487 -0.4675 -2.2023
 1666TIP3   OH2 4961   4.174   0.174   5.161 -0.0438  0.4758 -0.8713
 1666TIP3    H1 4962   4.215   0.247   5.208  0.8123 -0.6843  0.2405
 1666TIP3    H2 4963   4.083   0.175   5.190  0.4649 -0.2151  0.8580
 1667TIP3   OH2 4964   6.070   6.472   4.751  0.0506  0.0460 -0.4717
 1667TIP3    H1 4965   6.154   6.427   4.742 -0.3590 -0.5064 -1.6881
 1667TIP3    H2 4966   6.048   6.502   4.663 -1.2039 -0.1441 -0.2495
 1668TIP3   OH2 4967   3.216   6.744   5.331  0.3616 -0.0471 -0.4319
 1668TIP3    H1 4968   3.253   6.826   5.297  1.1377 -0.1484  0.1637
 1668TIP3    H2 4969   3.290   6.698   5.371 -0.3208 -0.4394  0.4145
 1669TIP3   OH2 4970   0.483   2.007   0.770 -0.3716 -0.0005 -0.0046
 1669TIP3    H1 4971   0.482   1.917   0.803  0.1608  0.1860  0.5573
 1669TIP3    H2 4972   0.492   2.061   0.849 -0.9594  0.5603 -0.3121
 1670TIP3   OH2 4973   5.740   5.149   2.214  0.3166 -0.0132  0.1759
 1670TIP3    H1 4974   5.711   5.104   2.294  1.3808 -0.1503  0.5067
 1670TIP3    H2 4975   5.667   5.207   2.192  0.5514  1.0896  2.0730
 1671TIP3   OH2 4976   4.131   0.234   2.150  0.0158 -0.3120  0.4949
 1671TIP3    H1 4977   4.179   0.295   2.206 -0.9372  1.1844 -0.2574
 1671TIP3    H2 4978   4.039   0.244   2.177 -0.1214 -1.7732  0.6648
 1672TIP3   OH2 4979   0.293   0.352   3.121 -0.1061  0.2473  1.1296
 1672TIP3    H1 4980   0.298   0.296   3.199  2.3966  0.9841  1.5812
 1672TIP3    H2 4981   0.289   0.441   3.155 -2.5260  0.5175  0.3846
 1673TIP3   OH2 4982   6.733   0.086   5.683  0.1428  0.4171 -0.3615
 1673TIP3    H1 4983   6.708  -0.006   5.680  0.5148  0.2809  0.3465
 1673TIP3    H2 4984   6.732   0.107   5.777  1.1933  0.8146 -0.4325
 1674TIP3   OH2 4985   5.712   1.412   3.797  0.3848 -0.4537 -0.0218
 1674TIP3    H1 4986   5.627   1.427   3.756  0.4107 -1.5844 -0.5237
 1674TIP3    H2 4987   5.694   1.417   3.891 -0.8348 -3.2967  0.0141
 1675TIP3   OH2 4988   1.190   3.890   3.423  0.0082 -0.5854  0.2351
 1675TIP3    H1 4989   1.150   3.951   3.362 -0.2694 -0.5796  0.4236
 1675TIP3    H2 4990   1.273   3.865   3.381 -0.0303 -0.3342  0.0079
 1676TIP3   OH2 4991   4.616   2.277   0.733 -0.1220 -0.5351  0.0134
 1676TIP3    H1 4992   4.553   2.276   0.806 -0.4741  1.0890 -0.2311
 1676TIP3    H2 4993   4.675   2.349   0.753  0.9572 -1.2855 -0.3721
 1677TIP3   OH2 4994   4.773   0.146   1.193 -0.2163  0.1229 -0.8772
 1677TIP3    H1 4995   4.752   0.066   1.241 -1.2912 -0.3453 -2.0663
 1677TIP3    H2 4996   4.696   0.202   1.204  0.1625  0.6397 -0.7965
 1678TIP3   OH2 4997   6.576   1.081   5.579 -0.0396  0.8175 -0.5839
 1678TIP3    H1 4998   6.653   1.130   5.608  0.7276 -0.2395 -0.7878
 1678TIP3    H2 4999   6.520   1.076   5.657  1.3336 -0.7250  0.3597
 1679TIP3   OH2 5000   4.560   1.716   4.012  0.1851 -0.4214 -0.1361
 1679TIP3    H1 5001   4.582   1.718   3.919 -0.4383 -1.0205 -0.3031
 1679TIP3    H2 5002   4.644   1.717   4.057  0.5177  2.3548 -0.6281
 1680TIP3   OH2 5003   3.863   0.540   5.709  1.1836  0.4404  0.3429
 1680TIP3    H1 5004   3.824   0.627   5.710 -1.1312 -0.5361  0.2207
 1680TIP3    H2 5005   3.936   0.547   5.647  0.6327  2.1113 -0.1592
 1681TIP3   OH2 5006   5.322   5.137   3.276 -0.0198  0.4735  0.5852
 1681TIP3    H1 5007   5.275   5.217   3.296  1.1385  0.4064  4.4458
 1681TIP3    H2 5008   5.415   5.159   3.288  0.4844 -0.9311 -0.3967
 1682TIP3   OH2 5009   4.586   6.051   0.545  0.1521 -0.4096 -0.3524
 1682TIP3    H1 5010   4.642   6.070   0.471 -0.5438 -0.0937 -0.8095
 1682TIP3    H2 5011   4.642   6.061   0.622  1.2814 -2.1881 -0.8784
 1683TIP3   OH2 5012   2.357   3.782   5.093 -0.8134 -0.4118  0.3455
 1683TIP3    H1 5013   2.430   3.841   5.112  1.7455 -2.4361 -2.2155
 1683TIP3    H2 5014   2.335   3.743   5.178  0.9735  0.3978  1.2318
 1684TIP3   OH2 5015   3.565   3.599   3.466  0.2045  0.5441 -0.2163
 1684TIP3    H1 5016   3.643   3.543   3.471  0.0743  0.4850  1.5929
 1684TIP3    H2 5017   3.492   3.541   3.487 -0.2110  0.8493 -0.7934
 1685TIP3   OH2 5018   5.624   2.597   1.746 -0.3257 -0.4422 -0.1689
 1685TIP3    H1 5019   5.672   2.619   1.826 -0.7632  0.1107 -0.0543
 1685TIP3    H2 5020   5.536   2.632   1.761  0.0851  1.3289 -1.6616
 1686TIP3   OH2 5021   4.924   3.301   1.272 -0.3131  0.1311  0.1692
 1686TIP3    H1 5022   4.892   3.236   1.335 -0.4278  0.7466  0.7612
 1686TIP3    H2 5023   4.853   3.309   1.209  0.4138 -1.6205 -0.9498
 1687TIP3   OH2 5024   3.067   4.641   3.143 -0.0291  0.4078 -0.0974
 1687TIP3    H1 5025   3.018   4.651   3.062  1.9328 -0.3807 -1.4585
 1687TIP3    H2 5026   3.110   4.556   3.136  1.6301  1.1030  0.9381
 1688TIP3   OH2 5027   0.817   0.880   4.869 -0.2189  0.2047 -0.6224
 1688TIP3    H1 5028   0.849   0.970   4.874  0.1707  0.0703 -0.6863
 1688TIP3    H2 5029   0.828   0.846   4.957  2.7061 -0.8153 -1.2618
 1689TIP3   OH2 5030   7.200   4.217   4.282 -0.1120  0.1818  0.1530
 1689TIP3    H1 5031   7.249   4.297   4.300  0.7323  0.1180 -1.5999
 1689TIP3    H2 5032   7.121   4.246   4.236  0.4478  0.0170 -0.9598
 1690TIP3   OH2 5033   5.289   6.122   4.498  0.0930  0.2137  0.5300
 1690TIP3    H1 5034   5.362   6.062   4.482  0.5638  1.3450 -2.1002
 1690TIP3    H2 5035   5.213   6.076   4.464 -0.1334 -0.2005  1.5602
 1691TIP3   OH2 5036   1.422   5.234   4.736  0.3633 -0.7317 -0.2101
 1691TIP3    H1 5037   1.334   5.209   4.709 -1.0107  2.0823  1.2136
 1691TIP3    H2 5038   1.473   5.154   4.727 -2.4217 -2.6234 -0.6210
 1692TIP3   OH2 5039   2.724   1.114   5.207  0.0965 -0.6013 -0.2289
 1692TIP3    H1 5040   2.661   1.184   5.190  0.2492 -0.8331 -1.9414
 1692TIP3    H2 5041   2.794   1.156   5.256 -0.1433  0.2817 -0.6328
 1693TIP3   OH2 5042   6.040   5.305   0.154 -0.3246 -0.1940 -0.0589
 1693TIP3    H1 5043   6.114   5.303   0.093  0.3910 -2.3932  0.7660
 1693TIP3    H2 5044   6.070   5.361   0.226 -0.1893  0.3909 -0.5639
 1694TIP3   OH2 5045   5.294   4.987   4.433  0.6974  0.0538  0.2617
 1694TIP3    H1 5046   5.326   5.038   4.358  1.6951 -1.0311 -0.0810
 1694TIP3    H2 5047   5.199   4.996   4.429  0.8420  2.5321  0.6954
 1695TIP3   OH2 5048   3.606   1.246   5.851  0.0895  0.3420 -0.3593
 1695TIP3    H1 5049   3.655   1.260   5.769  1.1908  0.2010  0.2486
 1695TIP3    H2 5050   3.546   1.320   5.856  0.6589  0.8541 -0.8509
 1696TIP3   OH2 5051   3.019   4.826   2.766  0.1549  0.6160  0.1828
 1696TIP3    H1 5052   3.084   4.758   2.780 -0.4779  0.4073  2.3617
 1696TIP3    H2 5053   3.063   4.890   2.710  2.1698  0.3619  1.3942
 1697TIP3   OH2 5054   1.519   6.341   1.622 -0.2520  0.3125 -0.0758
 1697TIP3    H1 5055   1.516   6.288   1.702 -1.9771 -2.4758 -1.8389
 1697TIP3    H2 5056   1.604   6.320   1.583  0.3102  1.1660  0.6543
 1698TIP3   OH2 5057   0.582   6.531   4.099  0.3470 -0.5441 -0.0716
 1698TIP3    H1 5058   0.500   6.579   4.088  1.0976  0.6873 -0.5669
 1698TIP3    H2 5059   0.620   6.566   4.180 -0.5306 -2.5787  1.3185
 1699TIP3   OH2 5060   3.110   3.227   5.784 -0.8473 -0.3106  0.6056
 1699TIP3    H1 5061   3.060   3.178   5.719  0.1136 -0.4794 -0.0142
 1699TIP3    H2 5062   3.183   3.171   5.806  0.9248  1.2251 -0.9667
 1700TIP3   OH2 5063   2.887   0.113   3.366  0.2072  0.4187  0.1454
 1700TIP3    H1 5064   2.978   0.092   3.388 -0.0364 -0.7016  0.1014
 1700TIP3    H2 5065   2.853   0.157   3.444  1.1461  2.0027 -0.2965
 1701TIP3   OH2 5066   2.694   6.425   2.526 -0.1422  0.5069 -0.3261
 1701TIP3    H1 5067   2.643   6.371   2.586  0.5485  0.0172 -0.1706
 1701TIP3    H2 5068   2.774   6.375   2.510 -0.3043  0.6488 -1.6460
 1702TIP3   OH2 5069   4.194   3.492   3.952 -0.2598  0.0164 -0.0571
 1702TIP3    H1 5070   4.165   3.467   3.864  2.4118 -0.0152 -1.0410
 1702TIP3    H2 5071   4.242   3.574   3.939 -1.3831  1.0253  1.7261
 1703TIP3   OH2 5072   3.025   5.117   2.029 -0.2447  0.1892 -0.0756
 1703TIP3    H1 5073   3.082   5.072   1.967 -0.3561  1.1168 -0.8744
 1703TIP3    H2 5074   2.938   5.084   2.010 -0.2110  0.1076 -0.0874
 1704TIP3   OH2 5075   7.189   3.979   5.732  0.0972  0.0323  0.3514
 1704TIP3    H1 5076   7.123   3.960   5.666 -0.0753  2.2001 -0.1874
 1704TIP3    H2 5077   7.195   3.899   5.785 -0.8435 -1.2230 -1.3477
 1705TIP3   OH2 5078   2.608   0.210   1.090  0.0417 -0.2724  0.5031
 1705TIP3    H1 5079   2.621   0.127   1.045 -1.2902 -1.2957  1.9149
 1705TIP3    H2 5080   2.656   0.200   1.172 -1.9837 -0.5817  1.7016
 1706TIP3   OH2 5081   3.206   0.188   3.837 -0.1846 -0.3107  0.1612
 1706TIP3    H1 5082   3.300   0.169   3.834 -0.1003  0.1734 -0.3908
 1706TIP3    H2 5083   3.200   0.283   3.821 -0.8123 -0.4619 -0.5235
 1707TIP3   OH2 5084   6.943   6.624   3.082  0.3060  0.2023 -0.1290
 1707TIP3    H1 5085   6.900   6.550   3.038 -2.9613  0.9301  1.4942
 1707TIP3    H2 5086   6.937   6.696   3.019 -0.7104  0.2231 -0.0280
 1708TIP3   OH2 5087   3.248   2.179   2.215 -0.1468 -0.2720 -0.1905
 1708TIP3    H1 5088   3.256   2.084   2.223 -0.4275 -0.2777  0.0513
 1708TIP3    H2 5089   3.219   2.193   2.125 -0.5564 -0.4463 -0.0890
 1709TIP3   OH2 5090   4.379   4.231   3.684 -0.4173  0.0451  0.1980
 1709TIP3    H1 5091   4.459   4.256   3.731  0.9913 -0.8706 -1.5684
 1709TIP3    H2 5092   4.318   4.303   3.701  0.5886  0.5419  1.9941
 1710TIP3   OH2 5093   5.365   4.567   5.842  0.0594  0.5043 -0.4447
 1710TIP3    H1 5094   5.443   4.612   5.808  0.2543  0.3651 -0.1841
 1710TIP3    H2 5095   5.309   4.638   5.874  0.5995  0.5347  0.4534
 1711TIP3   OH2 5096   2.846   3.778   2.972 -0.7599 -0.0707  0.4890
 1711TIP3    H1 5097   2.773   3.717   2.982 -2.0820  1.4851  0.8988
 1711TIP3    H2 5098   2.820   3.835   2.899 -0.1794  0.7739  0.9220
 1712TIP3   OH2 5099   5.558   4.864   1.064 -0.2060 -0.0949  0.2932
 1712TIP3    H1 5100   5.586   4.777   1.033 -2.1500 -1.5756  2.3736
 1712TIP3    H2 5101   5.639   4.913   1.074  1.0841 -2.0834  0.1898
 1713TIP3   OH2 5102   3.974   2.948   4.960 -0.2119  0.3648  0.1785
 1713TIP3    H1 5103   3.944   3.038   4.948  1.0180  0.7324 -0.3751
 1713TIP3    H2 5104   3.968   2.932   5.054 -0.1953  1.1281  0.3120
 1714TIP3   OH2 5105   5.977   5.238   3.012  0.2177  0.1409  0.5038
 1714TIP3    H1 5106   5.942   5.163   2.964 -0.6887  1.2339 -0.6092
 1714TIP3    H2 5107   6.043   5.201   3.070 -1.5859 -1.8078  1.4544
 1715TIP3   OH2 5108   0.766   3.927   5.709 -0.1558 -0.1770 -0.0657
 1715TIP3    H1 5109   0.774   3.987   5.634 -1.0985 -0.0322 -0.0624
 1715TIP3    H2 5110   0.672   3.912   5.718  0.0400 -1.3808  0.1682
 1716TIP3   OH2 5111   6.259   1.546   3.597 -0.2156 -0.0342  0.6721
 1716TIP3    H1 5112   6.238   1.606   3.669 -1.4126 -0.3254  0.5998
 1716TIP3    H2 5113   6.183   1.487   3.593  1.4522 -2.3815  1.5540
 1717TIP3   OH2 5114   0.954   1.601   0.726  0.1491  0.8659  0.5673
 1717TIP3    H1 5115   1.041   1.572   0.700  0.2210  1.9589 -0.5534
 1717TIP3    H2 5116   0.914   1.630   0.644 -2.0008 -1.3639  0.7142
 1718TIP3   OH2 5117   2.416   4.044   1.246 -0.0699  0.3261  0.1001
 1718TIP3    H1 5118   2.477   3.990   1.197 -0.1129  0.9397 -0.6535
 1718TIP3    H2 5119   2.340   3.988   1.260 -0.1656  0.2286 -0.7764
 1719TIP3   OH2 5120   6.370   5.262   0.446 -0.0754 -0.5460 -0.2095
 1719TIP3    H1 5121   6.429   5.251   0.372 -1.6170 -0.4010 -1.5059
 1719TIP3    H2 5122   6.309   5.189   0.440  0.9124 -1.7003  2.1264
 1720TIP3   OH2 5123   1.318   2.935   2.975  0.1363  0.4137 -0.0377
 1720TIP3    H1 5124   1.398   2.899   3.013 -0.4219  0.0718  0.8380
 1720TIP3    H2 5125   1.305   2.884   2.895  0.6404  0.2890 -0.0439
 1721TIP3   OH2 5126   4.566   2.958   1.651 -0.9707  0.4673  0.4307
 1721TIP3    H1 5127   4.532   3.047   1.660  1.3059  1.5715 -1.0904
 1721TIP3    H2 5128   4.656   2.963   1.682  0.7684 -0.0696 -3.8659
 1722TIP3   OH2 5129   4.784   4.193   4.808 -0.0930  0.0519  0.1863
 1722TIP3    H1 5130   4.744   4.114   4.773  1.8317 -0.6505 -0.5536
 1722TIP3    H2 5131   4.835   4.163   4.883  0.9270  0.5069 -0.3061
 1723TIP3   OH2 5132   4.615   2.156   1.893  0.2857 -0.3089 -0.5915
 1723TIP3    H1 5133   4.690   2.193   1.846  1.3223 -0.2504  1.0280
 1723TIP3    H2 5134   4.636   2.063   1.901 -0.5735 -0.5908 -1.4690
 1724TIP3   OH2 5135   0.951   2.678   2.510 -0.2131 -0.5408 -0.2844
 1724TIP3    H1 5136   0.954   2.648   2.601  0.0100  0.1216 -0.0638
 1724TIP3    H2 5137   0.883   2.745   2.510  0.0681 -0.2530 -0.5148
 1725TIP3   OH2 5138   2.670   1.624   0.362  0.0611 -0.0700  0.3621
 1725TIP3    H1 5139   2.621   1.544   0.341  0.8904 -0.6474  0.5812
 1725TIP3    H2 5140   2.606   1.680   0.405 -0.6306 -0.4671 -0.1246
 1726TIP3   OH2 5141   5.775   6.760   4.348  0.8734 -0.2398  0.7353
 1726TIP3    H1 5142   5.721   6.769   4.270  1.5339  0.5102  0.3474
 1726TIP3    H2 5143   5.764   6.843   4.394 -0.0376 -0.9179  1.8067
 1727TIP3   OH2 5144   0.538   6.407   3.319  0.1256 -0.1818  0.3587
 1727TIP3    H1 5145   0.503   6.352   3.389  1.8790  0.1672  1.5704
 1727TIP3    H2 5146   0.601   6.350   3.273 -0.5656 -0.2211 -0.5664
 1728TIP3   OH2 5147   6.325   5.153   2.373  0.0817 -0.1134  0.2972
 1728TIP3    H1 5148   6.293   5.208   2.444 -1.1224 -0.0875 -0.2237
 1728TIP3    H2 5149   6.245   5.118   2.333  0.7221 -0.0766 -1.0657
 1729TIP3   OH2 5150   3.699   6.746   0.935  0.3025  0.2210  0.3406
 1729TIP3    H1 5151   3.608   6.717   0.935  0.8518 -1.6428  0.3259
 1729TIP3    H2 5152   3.733   6.716   0.850  1.3877 -0.7353  1.0902
 1730TIP3   OH2 5153   1.046   6.495   0.299  0.5636  0.3646 -0.1765
 1730TIP3    H1 5154   0.953   6.508   0.314  0.3330 -2.0350  0.9547
 1730TIP3    H2 5155   1.056   6.497   0.204 -0.9434 -0.9432 -0.4049
 1731TIP3   OH2 5156   3.682   3.998   2.683  0.5651  0.0923  0.2488
 1731TIP3    H1 5157   3.701   3.958   2.598 -1.2660 -0.0393 -0.1394
 1731TIP3    H2 5158   3.653   3.925   2.738  0.3947  0.3833  0.5497
 1732TIP3   OH2 5159   4.717   6.472   4.152 -0.0398  0.0577 -0.3557
 1732TIP3    H1 5160   4.787   6.431   4.101  0.4137  0.6543 -0.2265
 1732TIP3    H2 5161   4.643   6.478   4.091  0.5256  0.8515 -0.9993
 1733TIP3   OH2 5162   0.711   4.440   4.828 -0.3586 -0.0599  0.7519
 1733TIP3    H1 5163   0.701   4.350   4.861  2.6643 -1.1847 -0.9793
 1733TIP3    H2 5164   0.796   4.468   4.861 -0.7774  1.7845  0.3452
 1734TIP3   OH2 5165   2.699   2.557   2.800 -0.4025 -0.1152  0.2821
 1734TIP3    H1 5166   2.652   2.497   2.742  0.2286  0.9573 -1.4086
 1734TIP3    H2 5167   2.666   2.643   2.777  0.3716  0.4022  1.0502
 1735TIP3   OH2 5168   3.416   5.596   0.138 -0.5347  0.4165 -0.0501
 1735TIP3    H1 5169   3.334   5.580   0.090 -1.1609 -0.4061  1.2237
 1735TIP3    H2 5170   3.485   5.583   0.073 -1.4197  2.5853 -1.5507
 1736TIP3   OH2 5171   4.726   6.694   1.720 -0.6427 -0.1361  0.5111
 1736TIP3    H1 5172   4.810   6.648   1.714 -1.3289 -1.4426  0.5797
 1736TIP3    H2 5173   4.707   6.720   1.629  0.3075  1.0743  0.6418
 1737TIP3   OH2 5174   4.567   0.217   3.155 -0.0587 -0.2611  0.2728
 1737TIP3    H1 5175   4.510   0.236   3.230 -1.7565  0.6592 -1.1849
 1737TIP3    H2 5176   4.561   0.122   3.145 -1.6677 -0.1633 -0.0560
 1738TIP3   OH2 5177   1.023   3.768   4.971  0.1149 -0.5800  0.0055
 1738TIP3    H1 5178   0.955   3.700   4.982 -0.6214  0.2370  0.6350
 1738TIP3    H2 5179   1.061   3.777   5.058 -0.1129  0.1434  0.0320
 1739TIP3   OH2 5180   5.645   5.226   1.189  0.1469  0.1149 -0.1411
 1739TIP3    H1 5181   5.614   5.304   1.235  0.8004 -0.2450  0.9473
 1739TIP3    H2 5182   5.601   5.229   1.104 -2.5916 -0.1946  1.1793
 1740TIP3   OH2 5183   0.006   1.142   3.983 -0.3014 -0.5249  0.1816
 1740TIP3    H1 5184   0.096   1.168   3.998  0.2507 -0.8865 -2.0963
 1740TIP3    H2 5185  -0.026   1.203   3.916 -0.7673 -2.1771 -1.1755
 1741TIP3   OH2 5186   1.929   3.950   5.088 -0.7481 -0.5151  0.1935
 1741TIP3    H1 5187   1.905   3.866   5.128  0.7973 -0.6179  1.0009
 1741TIP3    H2 5188   2.020   3.938   5.061 -1.0663  0.3258 -1.3298
 1742TIP3   OH2 5189   2.741   2.493   4.552  0.4392  0.2793 -0.1249
 1742TIP3    H1 5190   2.819   2.512   4.604  0.4316 -0.4453  0.1731
 1742TIP3    H2 5191   2.775   2.470   4.466  0.5179  0.5497 -0.1653
 1743TIP3   OH2 5192   7.032   2.682   2.324  0.7178  0.3371  0.1381
 1743TIP3    H1 5193   7.118   2.726   2.326  0.5314  0.6816  1.1963
 1743TIP3    H2 5194   6.996   2.704   2.238  1.6146  0.3256 -0.2570
 1744TIP3   OH2 5195   1.838   5.846   3.623 -0.0221  0.5196 -0.6101
 1744TIP3    H1 5196   1.931   5.858   3.644 -0.1156  0.5008 -0.1709
 1744TIP3    H2 5197   1.805   5.789   3.692 -0.5943  1.3447 -0.1807
 1745TIP3   OH2 5198   5.777   3.499   0.259  0.1473 -0.5648 -0.5436
 1745TIP3    H1 5199   5.745   3.412   0.234 -2.4383 -0.1734  1.0345
 1745TIP3    H2 5200   5.698   3.553   0.263  1.3234  1.1464  1.2200
 1746TIP3   OH2 5201   4.538   5.631   1.826  0.3026  0.1769  0.3260
 1746TIP3    H1 5202   4.543   5.722   1.797 -1.0701  0.0458 -0.3658
 1746TIP3    H2 5203   4.561   5.635   1.919 -0.4221  1.3313  0.4808
 1747TIP3   OH2 5204   2.130   6.726   2.681  0.3334 -0.6197  0.0430
 1747TIP3    H1 5205   2.191   6.729   2.754 -0.5619 -0.3956  0.7991
 1747TIP3    H2 5206   2.055   6.675   2.713 -0.5310  0.3644 -0.3406
 1748TIP3   OH2 5207   0.276   1.573   2.612  0.5618 -0.4583  0.5545
 1748TIP3    H1 5208   0.294   1.559   2.705  0.9204  1.0371  0.7368
 1748TIP3    H2 5209   0.182   1.558   2.604  0.3271  0.4507  1.3911
 1749TIP3   OH2 5210   1.266   2.812   4.137  0.0855 -0.2136  0.1492
 1749TIP3    H1 5211   1.266   2.824   4.042 -0.1754  0.9831  0.2818
 1749TIP3    H2 5212   1.212   2.735   4.152 -2.1789  1.1559 -0.5187
 1750TIP3   OH2 5213   1.613   1.003   1.905 -0.1858 -0.2505 -0.0505
 1750TIP3    H1 5214   1.587   1.085   1.948  2.3252  0.6239  0.0188
 1750TIP3    H2 5215   1.606   1.022   1.812 -0.5086 -0.2685 -0.0281
 1751TIP3   OH2 5216   5.350   1.693   1.932  0.6909  0.2669  0.0074
 1751TIP3    H1 5217   5.361   1.733   1.846 -1.1183 -0.3837 -0.5764
 1751TIP3    H2 5218   5.437   1.699   1.972  1.8246 -0.1995 -2.1949
 1752TIP3   OH2 5219   4.576   0.388   1.137  0.2720 -0.1251 -0.3108
 1752TIP3    H1 5220   4.632   0.370   1.213  0.5612 -0.9467 -0.7047
 1752TIP3    H2 5221   4.548   0.478   1.149  0.7408 -0.0740  0.5021
 1753TIP3   OH2 5222   2.349   2.972   3.599  0.2697  0.5370  0.5396
 1753TIP3    H1 5223   2.279   2.907   3.603  0.1800  0.6857  1.7584
 1753TIP3    H2 5224   2.315   3.046   3.649  0.4531  1.4563 -0.6488
 1754TIP3   OH2 5225   6.790   5.154   3.130 -0.6933  0.2637  0.1884
 1754TIP3    H1 5226   6.826   5.243   3.127  0.7708 -0.3346 -1.2674
 1754TIP3    H2 5227   6.799   5.128   3.222 -1.4739  1.7065  0.7164
 1755TIP3   OH2 5228   1.328   2.035   1.976  0.5908 -0.3450 -0.0047
 1755TIP3    H1 5229   1.382   2.096   1.927  0.2271  0.1174  0.1693
 1755TIP3    H2 5230   1.391   1.978   2.021  0.9266 -0.3751 -0.5042
 1756TIP3   OH2 5231   4.831   3.185   3.899  0.2359 -0.3296  0.4313
 1756TIP3    H1 5232   4.879   3.235   3.965 -0.9829  2.9380 -0.9677
 1756TIP3    H2 5233   4.897   3.161   3.834  0.5799  1.1224  0.2180
 1757TIP3   OH2 5234   2.772   6.084   0.318 -0.5057 -0.3373 -0.4672
 1757TIP3    H1 5235   2.728   5.999   0.319 -1.9232  0.3598 -0.6422
 1757TIP3    H2 5236   2.729   6.132   0.247 -2.3477  1.7973  1.8702
 1758TIP3   OH2 5237   1.188   0.542   3.302 -0.1813 -0.7662 -0.2968
 1758TIP3    H1 5238   1.197   0.620   3.356 -0.9965 -0.0775 -1.1261
 1758TIP3    H2 5239   1.246   0.478   3.343  1.1577  0.5284 -0.1032
 1759TIP3   OH2 5240   1.834   1.334   1.757 -0.2722  0.4132 -0.6012
 1759TIP3    H1 5241   1.927   1.334   1.734  0.2011  1.1899  1.0944
 1759TIP3    H2 5242   1.829   1.392   1.834 -2.0366 -0.2167 -0.1957
 1760TIP3   OH2 5243   0.129   0.126   4.553 -0.5966 -0.2040  0.0170
 1760TIP3    H1 5244   0.128   0.221   4.568 -0.1527 -0.5638  2.8182
 1760TIP3    H2 5245   0.038   0.099   4.567 -0.4774 -0.3487  0.5243
 1761TIP3   OH2 5246   2.920   5.615   3.830  0.2332  0.0233  0.7098
 1761TIP3    H1 5247   2.840   5.582   3.788 -0.1011 -0.5444  1.7598
 1761TIP3    H2 5248   2.891   5.647   3.915  1.1119 -0.1634  1.0932
 1762TIP3   OH2 5249   4.193   2.314   2.215  0.0981  0.2473  0.3034
 1762TIP3    H1 5250   4.169   2.240   2.270 -0.0339 -0.1827 -0.3162
 1762TIP3    H2 5251   4.254   2.277   2.150 -0.6899  0.4652 -0.5807
 1763TIP3   OH2 5252   2.098   1.923   5.394  0.2286  0.1306 -0.9862
 1763TIP3    H1 5253   2.084   1.858   5.326 -1.5449 -1.8936  1.1086
 1763TIP3    H2 5254   2.028   1.987   5.380 -1.5943 -1.4816  0.0965
 1764TIP3   OH2 5255   1.342   4.348   2.052  0.4973  0.0071 -0.2211
 1764TIP3    H1 5256   1.341   4.367   1.958  0.7361 -0.9742 -0.4416
 1764TIP3    H2 5257   1.304   4.260   2.058  2.7852 -1.0389  0.2965
 1765TIP3   OH2 5258   2.595   4.917   4.677  0.1784 -0.3391  0.3148
 1765TIP3    H1 5259   2.594   4.985   4.609  1.2846 -1.1517 -0.5661
 1765TIP3    H2 5260   2.538   4.950   4.745 -0.3727  0.8631 -0.6875
 1766TIP3   OH2 5261   1.049   4.166   0.840 -0.1108  0.0292  0.3238
 1766TIP3    H1 5262   1.060   4.072   0.827 -3.7779 -0.5984  0.6566
 1766TIP3    H2 5263   1.136   4.203   0.823  0.8647 -3.0774 -2.5235
 1767TIP3   OH2 5264   5.681   6.557   4.120 -0.0319 -0.6624 -0.2298
 1767TIP3    H1 5265   5.611   6.602   4.167 -1.4173 -1.0719 -1.7742
 1767TIP3    H2 5266   5.715   6.622   4.059 -0.6905 -1.0910 -1.0881
 1768TIP3   OH2 5267   2.552   3.396   0.537  0.6446 -0.3593 -0.0305
 1768TIP3    H1 5268   2.525   3.482   0.505 -0.6294 -1.1294 -1.1366
 1768TIP3    H2 5269   2.512   3.334   0.476  0.0859 -1.8199  1.7249
 1769TIP3   OH2 5270   6.688   3.627   2.576  0.8160  0.5502 -0.0649
 1769TIP3    H1 5271   6.613   3.572   2.600  0.6927 -0.7255 -2.9265
 1769TIP3    H2 5272   6.759   3.598   2.634 -0.0452 -0.5866  0.4647
 1770TIP3   OH2 5273   5.042   2.299   4.321  0.8202 -0.2067 -0.4887
 1770TIP3    H1 5274   5.048   2.328   4.412 -1.8749 -2.1598  0.4579
 1770TIP3    H2 5275   4.949   2.309   4.299  1.0056 -1.8373 -2.2456
 1771TIP3   OH2 5276   5.465   3.601   2.609 -0.0311  0.1438 -0.1152
 1771TIP3    H1 5277   5.554   3.609   2.575  0.1015  2.5898  0.6279
 1771TIP3    H2 5278   5.414   3.568   2.535  1.0956  0.8182 -1.2395
 1772TIP3   OH2 5279   2.162   1.875   4.720  0.2013  0.2529  0.2241
 1772TIP3    H1 5280   2.248   1.902   4.687 -0.3053 -1.3891 -2.7515
 1772TIP3    H2 5281   2.168   1.779   4.725 -1.2207  0.1761  0.6973
 1773TIP3   OH2 5282   0.390   6.654   0.728 -0.3773 -0.2480 -0.6512
 1773TIP3    H1 5283   0.469   6.627   0.680 -0.1988 -0.2378 -0.3659
 1773TIP3    H2 5284   0.354   6.726   0.676 -0.1779 -0.2284 -0.7648
 1774TIP3   OH2 5285   6.685   6.767   3.261  0.3243  0.4028  0.4291
 1774TIP3    H1 5286   6.764   6.750   3.312 -0.5762 -1.3360  1.3449
 1774TIP3    H2 5287   6.655   6.680   3.234 -0.4562  1.1358 -1.1963
 1775TIP3   OH2 5288   0.864   6.601   4.623  0.0696 -0.0629 -0.2946
 1775TIP3    H1 5289   0.879   6.672   4.560  1.3994  0.0088  0.0686
 1775TIP3    H2 5290   0.948   6.557   4.630 -0.8866 -2.1016 -0.9626
 1776TIP3   OH2 5291   3.291   1.979   0.997  0.3675 -0.0687  0.4599
 1776TIP3    H1 5292   3.311   2.035   0.923 -0.3664  1.5442  1.4338
 1776TIP3    H2 5293   3.354   1.907   0.990  0.5936  0.2550 -1.4559
 1777TIP3   OH2 5294   2.036   0.105   0.934  0.2226 -0.4685 -0.1579
 1777TIP3    H1 5295   2.034   0.043   1.007 -0.6476  1.2187  1.3168
 1777TIP3    H2 5296   2.129   0.122   0.919  0.3936 -0.3165  1.0322
 1778TIP3   OH2 5297   2.299   6.384   0.576  0.2734  0.2506 -0.4156
 1778TIP3    H1 5298   2.240   6.425   0.640 -1.0980  1.8636 -2.5568
 1778TIP3    H2 5299   2.279   6.291   0.581 -0.5829  0.4729  0.7148
 1779TIP3   OH2 5300   5.607   5.527   0.949 -0.2415 -0.0946 -0.2703
 1779TIP3    H1 5301   5.600   5.613   0.989 -1.2027  0.0553 -0.7406
 1779TIP3    H2 5302   5.670   5.480   1.004 -2.5880 -0.4219  2.3449
 1780TIP3   OH2 5303   5.027   0.068   3.565  0.3101 -0.5111 -0.0176
 1780TIP3    H1 5304   5.054   0.093   3.653  2.2916  1.5139 -1.1036
 1780TIP3    H2 5305   5.074   0.128   3.507 -1.1153 -1.5997 -2.4672
 1781TIP3   OH2 5306   0.130   2.137   3.075 -0.1561  0.2480 -0.2486
 1781TIP3    H1 5307   0.079   2.196   3.019  1.8839  1.6981 -0.6800
 1781TIP3    H2 5308   0.219   2.171   3.070  0.6586 -1.5198  1.3743
 1782TIP3   OH2 5309   2.019   4.611   3.253 -0.4961 -0.1202  0.2502
 1782TIP3    H1 5310   1.949   4.653   3.203 -0.4897  0.1359  0.4496
 1782TIP3    H2 5311   2.100   4.646   3.215 -0.4763 -0.4576 -0.0157
 1783TIP3   OH2 5312   4.358   1.725  -0.017 -0.4508  0.2294 -0.1359
 1783TIP3    H1 5313   4.431   1.787  -0.022 -0.2873  0.1172  0.6732
 1783TIP3    H2 5314   4.369   1.682   0.067  0.2426 -1.9231 -1.2723
 1784TIP3   OH2 5315   6.858   5.749   2.783  0.1096 -0.1408 -0.1358
 1784TIP3    H1 5316   6.787   5.684   2.780  0.7395 -1.1426  2.8698
 1784TIP3    H2 5317   6.817   5.826   2.822  0.5928 -0.7677  1.7362
 1785TIP3   OH2 5318   2.883   1.038   4.315 -0.3693 -0.0290 -0.4684
 1785TIP3    H1 5319   2.824   0.989   4.372 -0.3988 -0.6771 -1.0457
 1785TIP3    H2 5320   2.969   1.001   4.331  0.0049  1.2830  0.7778
 1786TIP3   OH2 5321   4.675   4.653   5.008  0.0660  0.2321 -0.2209
 1786TIP3    H1 5322   4.681   4.723   5.073  0.2552 -1.4060  1.6279
 1786TIP3    H2 5323   4.584   4.657   4.977 -0.3601  0.3386  0.9963
 1787TIP3   OH2 5324   1.341   6.654   4.119  0.3861  0.0344 -0.3320
 1787TIP3    H1 5325   1.406   6.712   4.158  1.3563 -0.3782 -1.2952
 1787TIP3    H2 5326   1.264   6.710   4.108  1.4668  1.3295 -1.7393
 1788TIP3   OH2 5327   5.387   2.014   1.515  0.3470  0.0006  0.8589
 1788TIP3    H1 5328   5.314   1.993   1.456  1.7697 -2.2330 -0.2337
 1788TIP3    H2 5329   5.421   2.097   1.482 -0.6564  0.2406  0.3654
 1789TIP3   OH2 5330   0.346   4.627   1.776 -0.3465 -0.3364 -0.8369
 1789TIP3    H1 5331   0.270   4.578   1.807 -0.9514  0.0164 -1.7486
 1789TIP3    H2 5332   0.404   4.630   1.852 -1.2686 -0.5397 -0.1059
 1790TIP3   OH2 5333   1.522   2.161   0.090 -0.2528  0.5638  0.5597
 1790TIP3    H1 5334   1.569   2.231   0.135  1.0272 -0.5142  0.9655
 1790TIP3    H2 5335   1.434   2.196   0.076  0.0719  1.8775  1.6148
 1791TIP3   OH2 5336   5.770   2.467   5.148  0.0606 -0.0000  0.2506
 1791TIP3    H1 5337   5.692   2.504   5.107  0.9257 -0.0608 -1.5141
 1791TIP3    H2 5338   5.760   2.372   5.136  0.2000 -0.0405  0.4425
 1792TIP3   OH2 5339   2.395   0.585   4.915 -0.6332 -0.0994 -0.3546
 1792TIP3    H1 5340   2.361   0.532   4.843  1.4159 -2.1220  0.0346
 1792TIP3    H2 5341   2.489   0.591   4.897 -0.3523  0.8473  1.2559
 1793TIP3   OH2 5342   1.728   1.992   4.957  0.2851  0.5494 -0.7215
 1793TIP3    H1 5343   1.669   1.919   4.978  1.3427 -0.3575 -0.8461
 1793TIP3    H2 5344   1.669   2.065   4.940 -0.7527  0.4063  1.8400
 1794TIP3   OH2 5345   2.673   3.413   4.670 -0.4634 -0.5141  0.0959
 1794TIP3    H1 5346   2.647   3.489   4.722 -0.3813  2.2179 -3.4855
 1794TIP3    H2 5347   2.605   3.347   4.689 -0.8344  0.5217  2.9383
 1795TIP3   OH2 5348   4.584   2.885   2.335  0.0748 -0.0331 -0.3889
 1795TIP3    H1 5349   4.615   2.970   2.366 -0.2821 -0.1055  0.1710
 1795TIP3    H2 5350   4.545   2.844   2.412 -2.4460  0.5043 -1.3040
 1796TIP3   OH2 5351   3.258   5.796   4.930  0.1761 -0.4030 -0.2292
 1796TIP3    H1 5352   3.235   5.878   4.885 -1.1574 -0.7880 -0.3041
 1796TIP3    H2 5353   3.189   5.735   4.903  0.3977 -1.1637  0.8933
 1797TIP3   OH2 5354   5.319   2.089   5.168  0.1558 -0.0156 -0.0265
 1797TIP3    H1 5355   5.379   2.140   5.115  0.5056  0.3951  0.7385
 1797TIP3    H2 5356   5.234   2.132   5.158  0.1966 -0.0110 -0.3392
 1798TIP3   OH2 5357   3.775   4.566   3.705 -0.6193  0.2945  0.3299
 1798TIP3    H1 5358   3.869   4.573   3.692 -0.7062  1.2775  0.1503
 1798TIP3    H2 5359   3.744   4.656   3.706 -1.4232  0.0346  1.4552
 1799TIP3   OH2 5360   6.453   4.517   0.993  0.4379  0.4571 -0.2863
 1799TIP3    H1 5361   6.422   4.497   1.081 -1.6630  0.2639 -0.9918
 1799TIP3    H2 5362   6.464   4.431   0.952  2.3043  0.5176  0.0388
 1800TIP3   OH2 5363   4.534   2.779   1.447  0.2339  0.4337 -0.1261
 1800TIP3    H1 5364   4.478   2.716   1.491 -0.3994  0.5311 -0.7638
 1800TIP3    H2 5365   4.551   2.847   1.512  0.1147  0.0883  0.2631
 1801TIP3   OH2 5366   5.864   5.918   5.591 -0.0609  0.3184 -0.2949
 1801TIP3    H1 5367   5.838   5.976   5.519 -0.0012 -1.5618 -1.9120
 1801TIP3    H2 5368   5.783   5.903   5.640 -0.2903  0.9373 -0.4753
 1802TIP3   OH2 5369   4.664   4.476   0.622 -0.3589  0.0679 -0.9341
 1802TIP3    H1 5370   4.712   4.553   0.652 -0.0060 -0.1493 -0.9363
 1802TIP3    H2 5371   4.731   4.418   0.587 -0.4697 -0.7694  0.1954
 1803TIP3   OH2 5372   0.332   6.137   2.621  0.7619  0.3433  0.4109
 1803TIP3    H1 5373   0.304   6.078   2.690  0.8799 -0.5262 -0.2649
 1803TIP3    H2 5374   0.402   6.090   2.575  1.1416  1.1697  0.1039
 1804TIP3   OH2 5375   1.342   4.785   0.439 -0.2751 -0.3956  0.0933
 1804TIP3    H1 5376   1.433   4.795   0.465 -0.0636 -3.0107  0.6419
 1804TIP3    H2 5377   1.327   4.855   0.375  2.5969 -0.8438 -1.2160
 1805TIP3   OH2 5378   5.201   2.215   1.355 -0.0530  0.2674 -0.5232
 1805TIP3    H1 5379   5.295   2.199   1.357  0.1519  1.4144 -0.7103
 1805TIP3    H2 5380   5.164   2.137   1.312  0.8070 -0.1419 -0.5320
 1806TIP3   OH2 5381   2.259   4.290   1.185  0.4028  0.2865 -0.4000
 1806TIP3    H1 5382   2.313   4.217   1.213  0.3855  0.8701  1.2786
 1806TIP3    H2 5383   2.289   4.364   1.237 -0.3625  1.2065 -1.2171
 1807TIP3   OH2 5384   5.020   0.655   5.655  0.2309 -0.0348  0.2662
 1807TIP3    H1 5385   5.026   0.561   5.668  2.9234 -0.1959 -1.4060
 1807TIP3    H2 5386   5.068   0.693   5.729  0.4446 -0.0679  0.1459
 1808TIP3   OH2 5387   2.080   5.648   4.301 -0.0488 -0.2010  0.3171
 1808TIP3    H1 5388   2.124   5.728   4.331  0.1481 -0.5446  0.9429
 1808TIP3    H2 5389   1.988   5.660   4.327  0.0513 -0.3398  0.7314
 1809TIP3   OH2 5390   4.249   6.373   5.629  0.1485 -0.1804 -0.1746
 1809TIP3    H1 5391   4.296   6.318   5.691  0.2036  0.7000  0.5945
 1809TIP3    H2 5392   4.266   6.333   5.544 -0.4828 -1.8041  0.4275
 1810TIP3   OH2 5393   0.666   3.831   0.516  0.2554 -0.3506 -0.5665
 1810TIP3    H1 5394   0.709   3.893   0.458 -0.8562  0.8139 -0.1879
 1810TIP3    H2 5395   0.735   3.800   0.574  0.7636  0.8455 -0.5074
 1811TIP3   OH2 5396   4.954   6.531   5.501  0.3486 -0.8764  0.1653
 1811TIP3    H1 5397   5.004   6.571   5.430  0.3108 -0.9301  0.1092
 1811TIP3    H2 5398   5.002   6.556   5.581 -1.3370  1.9463  0.4445
 1812TIP3   OH2 5399   3.826   5.006   1.481 -0.1413  0.0512  0.0751
 1812TIP3    H1 5400   3.878   5.044   1.552 -0.3586 -0.1055  0.3179
 1812TIP3    H2 5401   3.793   4.924   1.516 -0.0091 -0.1693 -0.3122
 1813TIP3   OH2 5402   1.778   4.772   3.424 -0.2533 -0.0081 -0.1036
 1813TIP3    H1 5403   1.692   4.743   3.392 -0.8448 -1.7340  2.6821
 1813TIP3    H2 5404   1.762   4.860   3.459 -0.6617  0.0795 -0.5047
 1814TIP3   OH2 5405   6.640   2.147   0.910 -0.4523 -0.0422 -0.1918
 1814TIP3    H1 5406   6.645   2.091   0.833  1.5125 -0.7762  0.4008
 1814TIP3    H2 5407   6.698   2.221   0.890  0.3522 -0.4077  0.6678
 1815TIP3   OH2 5408   6.957   4.183   5.686  0.4721  0.0576 -0.6672
 1815TIP3    H1 5409   7.011   4.117   5.641  0.1479 -0.4712 -0.2925
 1815TIP3    H2 5410   6.870   4.144   5.690  0.3105  0.4511 -0.3115
 1816TIP3   OH2 5411   0.833   4.086   2.867  0.2932  0.0358 -0.3023
 1816TIP3    H1 5412   0.783   4.106   2.946 -0.0356  0.3760 -0.5980
 1816TIP3    H2 5413   0.791   4.008   2.831  1.3723 -1.0426  0.6699
 1817TIP3   OH2 5414   1.180   2.195   5.541  0.1809 -0.0374 -0.0087
 1817TIP3    H1 5415   1.127   2.176   5.464 -0.4922  4.2819 -0.8784
 1817TIP3    H2 5416   1.256   2.242   5.508  2.2556 -1.9892  1.6704
 1818TIP3   OH2 5417   3.707   3.938   5.045 -0.0375 -0.0874 -0.7235
 1818TIP3    H1 5418   3.751   4.023   5.041  0.2388 -0.1871 -0.0229
 1818TIP3    H2 5419   3.774   3.875   5.021 -0.1572 -0.1377 -0.9322
 1819TIP3   OH2 5420   3.071   0.564   4.459 -0.3076  0.0445  0.4623
 1819TIP3    H1 5421   3.117   0.527   4.534  0.2022 -2.0012 -0.7817
 1819TIP3    H2 5422   2.980   0.535   4.470 -0.0247 -1.1774 -0.2061
 1820TIP3   OH2 5423   5.568   1.768  -0.006  0.3553 -0.3003  0.7522
 1820TIP3    H1 5424   5.571   1.712   0.071  2.3200  0.5808  1.3609
 1820TIP3    H2 5425   5.486   1.817   0.003  1.4069  1.1395  3.2924
 1821TIP3   OH2 5426   4.136   3.705   1.180  0.0109  0.3901 -0.0239
 1821TIP3    H1 5427   4.118   3.654   1.259  0.5711 -0.3366 -0.3467
 1821TIP3    H2 5428   4.231   3.700   1.170  0.0516  1.3523 -0.1691
 1822TIP3   OH2 5429   5.177   2.589   5.777  0.0110  0.6655  0.5409
 1822TIP3    H1 5430   5.148   2.517   5.722 -0.7262  0.6315  0.9639
 1822TIP3    H2 5431   5.205   2.657   5.715 -0.6749  0.5786  0.1277
 1823TIP3   OH2 5432   0.472   2.584   5.826 -0.1563  0.0249  0.6701
 1823TIP3    H1 5433   0.443   2.559   5.914  1.2505  0.6582  1.3526
 1823TIP3    H2 5434   0.539   2.651   5.841  0.3800 -0.1122 -0.8770
 1824TIP3   OH2 5435   3.250   3.261   1.827  0.2162 -0.1734 -0.0732
 1824TIP3    H1 5436   3.288   3.210   1.755  0.0126  0.9444 -1.0079
 1824TIP3    H2 5437   3.165   3.219   1.843  0.4025 -0.6315 -0.2790
 1825TIP3   OH2 5438   2.339   4.945   0.547 -0.0924 -0.3011 -0.3589
 1825TIP3    H1 5439   2.356   4.944   0.641  1.9417  1.0146 -0.6572
 1825TIP3    H2 5440   2.264   5.003   0.537  0.6147  0.7630  0.3508
 1826TIP3   OH2 5441   4.266   0.405   0.087  0.1611  0.3750  0.3021
 1826TIP3    H1 5442   4.213   0.474   0.047  1.4178  0.9757 -0.3675
 1826TIP3    H2 5443   4.354   0.442   0.091  0.3421 -0.1519  2.4775
 1827TIP3   OH2 5444   1.126   3.672   4.011  0.5197  0.6636  0.2559
 1827TIP3    H1 5445   1.201   3.615   4.031  0.6209  0.7941  0.2459
 1827TIP3    H2 5446   1.050   3.618   4.032  0.6235  0.8884  1.2488
 1828TIP3   OH2 5447   0.975   3.210   5.828  0.3909 -0.1223 -0.3834
 1828TIP3    H1 5448   0.987   3.177   5.918  1.1050  0.1016 -0.3876
 1828TIP3    H2 5449   1.027   3.151   5.774  0.8326  0.3746 -0.5145
 1829TIP3   OH2 5450   2.312   2.011   3.706  0.4374  0.3079  0.0130
 1829TIP3    H1 5451   2.285   1.924   3.677  0.0957  0.4073  0.0289
 1829TIP3    H2 5452   2.402   2.020   3.675 -0.0586  0.5830 -1.4254
 1830TIP3   OH2 5453   1.284   6.481   2.188 -0.6050  0.2167 -0.2565
 1830TIP3    H1 5454   1.197   6.473   2.227  0.1573 -0.2697  1.4514
 1830TIP3    H2 5455   1.317   6.391   2.184  0.2760  0.4937  0.2814
 1831TIP3   OH2 5456   2.773   3.977   3.399  0.0260 -0.1478 -0.5347
 1831TIP3    H1 5457   2.806   4.067   3.393 -1.8817  0.6111 -0.3967
 1831TIP3    H2 5458   2.696   3.976   3.341 -1.7158 -0.8247  1.6294
 1832TIP3   OH2 5459   6.628   5.841   1.552  0.2851 -0.2552  0.0246
 1832TIP3    H1 5460   6.707   5.853   1.498 -1.1491  0.6842 -1.9985
 1832TIP3    H2 5461   6.589   5.760   1.521 -0.1916 -0.0816  0.1583
 1833TIP3   OH2 5462   0.433   3.636   2.121  0.1103  0.4270  0.0287
 1833TIP3    H1 5463   0.346   3.597   2.116  0.0374  0.3651  1.5474
 1833TIP3    H2 5464   0.418   3.723   2.158  0.7464  0.2523  0.7019
 1834TIP3   OH2 5465   0.739   1.442   3.012 -0.4732 -0.2014 -0.1885
 1834TIP3    H1 5466   0.828   1.410   2.993 -1.1424 -1.6703 -1.0282
 1834TIP3    H2 5467   0.753   1.529   3.049  1.4388 -1.0756  1.4114
 1835TIP3   OH2 5468   6.956   1.213   3.049 -0.4105  0.6415 -0.5550
 1835TIP3    H1 5469   6.871   1.207   3.091  0.6138 -0.5250  1.4701
 1835TIP3    H2 5470   6.986   1.123   3.042  1.0122  1.0897 -0.5068
 1836TIP3   OH2 5471   0.108   5.019   5.458 -0.4534 -0.1074 -0.1154
 1836TIP3    H1 5472   0.138   5.100   5.417  0.3001 -0.8995 -1.2117
 1836TIP3    H2 5473   0.156   5.013   5.540  3.3635 -1.7595 -2.1656
 1837TIP3   OH2 5474   0.071   6.568   0.800  0.0609  0.4311  0.6970
 1837TIP3    H1 5475   0.119   6.522   0.869  2.0684  0.8101 -0.3456
 1837TIP3    H2 5476   0.100   6.526   0.719 -2.3653 -0.1185  0.0453
 1838TIP3   OH2 5477   6.018   1.911   1.348 -0.2532  0.5682  0.3402
 1838TIP3    H1 5478   6.095   1.858   1.368  1.2491  2.8015  0.9257
 1838TIP3    H2 5479   5.978   1.868   1.273  0.1724 -1.9822  1.4536
 1839TIP3   OH2 5480   2.452   1.772   0.512 -0.2220  0.5740 -0.2636
 1839TIP3    H1 5481   2.380   1.825   0.476 -0.8586  0.2919  0.5702
 1839TIP3    H2 5482   2.452   1.792   0.605 -0.1114 -0.4794 -0.0305
 1840TIP3   OH2 5483   3.098   0.020   0.651  0.2550 -0.1893 -0.3780
 1840TIP3    H1 5484   3.176   0.072   0.633 -0.2161  0.8111  0.3416
 1840TIP3    H2 5485   3.042   0.034   0.575  0.4810 -0.3386 -0.5739
 1841TIP3   OH2 5486   5.446   5.108   5.172 -0.2298  0.1171 -0.0874
 1841TIP3    H1 5487   5.393   5.031   5.189  1.8442 -1.4250 -0.1161
 1841TIP3    H2 5488   5.535   5.082   5.199  0.6937  2.1994 -0.9073
 1842TIP3   OH2 5489   6.623   3.372   5.030  0.3351 -0.5657  0.0420
 1842TIP3    H1 5490   6.562   3.440   5.003 -0.2105  0.0061  2.4177
 1842TIP3    H2 5491   6.707   3.398   4.995  0.2199  1.6086  1.2116
 1843TIP3   OH2 5492   5.385   1.946   5.410 -0.1061 -0.2675 -0.8106
 1843TIP3    H1 5493   5.439   1.868   5.397  0.5233  0.1153 -0.5505
 1843TIP3    H2 5494   5.374   1.984   5.322 -0.8119 -0.8951 -1.0062
 1844TIP3   OH2 5495   7.133   5.874   5.418  0.4366 -0.2333 -0.5075
 1844TIP3    H1 5496   7.219   5.914   5.406  1.7084 -2.9336 -1.1355
 1844TIP3    H2 5497   7.142   5.822   5.498 -2.0286  2.6549  1.9129
 1845TIP3   OH2 5498   6.032   4.289   5.433 -0.1946  0.1411 -0.0472
 1845TIP3    H1 5499   6.090   4.350   5.480 -1.4057  0.8559  0.5550
 1845TIP3    H2 5500   5.955   4.282   5.488 -0.4213 -1.3379 -0.5101
 1846TIP3   OH2 5501   0.496   0.375   5.455 -0.0085  0.7531 -0.2755
 1846TIP3    H1 5502   0.424   0.431   5.486 -1.0831 -1.0310  0.6200
 1846TIP3    H2 5503   0.547   0.356   5.534  0.7319  1.0219 -0.6915
 1847TIP3   OH2 5504   3.746   3.401   3.270 -0.5342 -0.1182 -0.3376
 1847TIP3    H1 5505   3.787   3.315   3.279 -2.4956 -1.0315  0.5871
 1847TIP3    H2 5506   3.652   3.383   3.276 -0.9936  2.1243  0.0356
 1848TIP3   OH2 5507   5.221   2.263   4.123  0.2426  0.2267 -0.6694
 1848TIP3    H1 5508   5.185   2.253   4.035 -0.1995  0.1772 -0.4867
 1848TIP3    H2 5509   5.144   2.277   4.178  0.3318 -1.7382  0.0213
 1849TIP3   OH2 5510   2.571   1.188   5.493 -0.1721 -0.3482 -0.5739
 1849TIP3    H1 5511   2.591   1.282   5.496 -1.4550 -0.0732  0.9021
 1849TIP3    H2 5512   2.656   1.146   5.480  0.5959  0.9760 -0.0751
 1850TIP3   OH2 5513   5.165   1.928   3.584  0.6237  0.4801 -0.0463
 1850TIP3    H1 5514   5.205   1.925   3.497  2.2644  1.4623  0.6276
 1850TIP3    H2 5515   5.071   1.925   3.567  0.8920 -1.6932 -1.7222
 1851TIP3   OH2 5516   3.480   5.105   5.641 -0.1812 -0.0889  0.2024
 1851TIP3    H1 5517   3.463   5.066   5.555 -3.4651 -0.6240  0.9806
 1851TIP3    H2 5518   3.465   5.199   5.628  0.3343 -0.0240  0.0156
 1852TIP3   OH2 5519   5.813   3.065   4.106 -0.2295 -0.2830  0.2271
 1852TIP3    H1 5520   5.749   3.086   4.038  2.7318  0.8135 -2.4037
 1852TIP3    H2 5521   5.819   2.970   4.105  0.1166 -0.2671 -1.4498
 1853TIP3   OH2 5522   6.833   1.910   5.210 -0.1667  0.0868 -0.5320
 1853TIP3    H1 5523   6.872   1.997   5.205  0.0439  0.2605  2.4733
 1853TIP3    H2 5524   6.816   1.896   5.303 -0.7279 -2.8774 -0.9658
 1854TIP3   OH2 5525   3.839   5.937   1.531 -0.3895  0.3359  0.0530
 1854TIP3    H1 5526   3.898   5.939   1.606 -2.1584  1.6560  1.4843
 1854TIP3    H2 5527   3.762   5.985   1.559 -3.0154 -2.8188 -1.0426
 1855TIP3   OH2 5528   0.619   5.040   5.054  0.2826 -0.0351 -0.1060
 1855TIP3    H1 5529   0.589   5.071   5.139 -0.8016 -0.0545 -0.4591
 1855TIP3    H2 5530   0.581   4.952   5.047 -0.5187  0.3699 -1.0370
 1856TIP3   OH2 5531   6.686   1.950   4.863  0.1588 -0.0928  0.4644
 1856TIP3    H1 5532   6.664   1.869   4.908 -0.7912  0.3286  0.7764
 1856TIP3    H2 5533   6.622   2.014   4.895  0.9044  0.7881  0.2435
 1857TIP3   OH2 5534   1.254   0.999   2.473 -0.0637  0.0165  0.1696
 1857TIP3    H1 5535   1.223   0.932   2.534 -0.4808  0.4876  0.4913
 1857TIP3    H2 5536   1.240   0.962   2.386 -0.4906 -0.2318  0.3414
 1858TIP3   OH2 5537   2.927   6.017   2.951  0.3010 -0.4944  0.4730
 1858TIP3    H1 5538   2.933   6.112   2.946 -0.9566 -0.4570 -0.9417
 1858TIP3    H2 5539   2.896   6.000   3.040 -2.8579  0.6851 -0.2735
 1859TIP3   OH2 5540   6.633   0.502   5.431 -0.3855  0.3041  0.3932
 1859TIP3    H1 5541   6.572   0.429   5.426 -0.4140  0.1135  2.6156
 1859TIP3    H2 5542   6.645   0.518   5.525  0.0855  2.7705 -0.0099
 1860TIP3   OH2 5543   5.279   0.933   4.888  0.4244 -0.1307 -0.2273
 1860TIP3    H1 5544   5.265   0.861   4.826  0.6222  0.7390 -1.3120
 1860TIP3    H2 5545   5.363   0.971   4.862  0.5259  0.2300  0.6063
 1861TIP3   OH2 5546   1.740   4.074   2.403  0.3792 -0.0678  0.0798
 1861TIP3    H1 5547   1.817   4.075   2.459  0.5206  0.3379 -0.1231
 1861TIP3    H2 5548   1.775   4.067   2.314  0.1586 -0.6280  0.0289
 1862TIP3   OH2 5549   1.609   5.701   4.849  0.2987 -0.4317 -0.1795
 1862TIP3    H1 5550   1.593   5.773   4.789 -0.2525 -0.8332 -0.5227
 1862TIP3    H2 5551   1.544   5.712   4.918 -1.1076 -1.7058 -1.2496
 1863TIP3   OH2 5552   6.310   3.679   3.054  0.4456 -0.3927  0.1555
 1863TIP3    H1 5553   6.389   3.625   3.040  0.6778 -0.0232  0.0270
 1863TIP3    H2 5554   6.250   3.621   3.100  0.1247 -1.2723 -1.2954
 1864TIP3   OH2 5555   1.862   1.078   2.489  0.4826 -0.3622  0.2119
 1864TIP3    H1 5556   1.865   1.034   2.574 -2.6711 -1.3609 -0.0424
 1864TIP3    H2 5557   1.853   1.171   2.510 -0.0824 -0.5800  0.9799
 1865TIP3   OH2 5558   1.708   5.447   2.838  0.1685  0.2467  0.5287
 1865TIP3    H1 5559   1.784   5.389   2.840  0.1477  0.2335  0.9007
 1865TIP3    H2 5560   1.745   5.535   2.835  0.2810  0.2357 -2.9442
 1866TIP3   OH2 5561   4.301   6.626   2.163 -0.7530 -0.5417  0.2825
 1866TIP3    H1 5562   4.283   6.567   2.236 -1.4219 -1.7371 -0.7992
 1866TIP3    H2 5563   4.226   6.687   2.163 -1.0515 -0.9045  0.2472
 1867TIP3   OH2 5564   5.381   5.380   2.204 -0.0167  0.9272 -0.1871
 1867TIP3    H1 5565   5.317   5.313   2.180 -0.1529  0.0800  2.2888
 1867TIP3    H2 5566   5.445   5.377   2.133 -1.5645  0.3042 -1.6505
 1868TIP3   OH2 5567   3.306   3.945   0.447 -0.2476 -0.0626  1.2030
 1868TIP3    H1 5568   3.356   3.868   0.419 -0.3656  0.1820  0.3086
 1868TIP3    H2 5569   3.282   3.926   0.538 -1.9235 -1.9415  0.4411
 1869TIP3   OH2 5570   1.192   5.047   4.151 -0.1074 -0.4052  0.2488
 1869TIP3    H1 5571   1.178   5.141   4.154 -1.1355 -0.4949 -0.8172
 1869TIP3    H2 5572   1.196   5.020   4.243  3.4241  1.0612  0.6893
 1870TIP3   OH2 5573   0.819   5.369   0.296  0.4716 -0.1382 -0.4500
 1870TIP3    H1 5574   0.783   5.432   0.234 -0.4490 -0.6448 -0.4591
 1870TIP3    H2 5575   0.865   5.305   0.242 -1.2296 -1.1698 -0.7511
 1871TIP3   OH2 5576   2.788   4.089   1.214 -0.5604  0.0707 -0.0066
 1871TIP3    H1 5577   2.811   4.077   1.122  2.2076  1.5793  0.3632
 1871TIP3    H2 5578   2.755   4.179   1.220  0.1126  0.2967  0.5630
 1872TIP3   OH2 5579   3.443   1.741   2.827  0.4365  0.1397 -0.1551
 1872TIP3    H1 5580   3.357   1.765   2.791  0.8026  0.8200 -0.5939
 1872TIP3    H2 5581   3.423   1.708   2.915 -0.3678 -0.6205 -0.6074
 1873TIP3   OH2 5582   2.224   6.786   1.378 -0.4538  0.2764  0.8499
 1873TIP3    H1 5583   2.213   6.775   1.472 -0.9656  1.0239  0.8820
 1873TIP3    H2 5584   2.136   6.782   1.342 -0.2587 -0.0322  0.3958
 1874TIP3   OH2 5585   6.849   2.375   3.575  0.0701  0.4953 -0.4421
 1874TIP3    H1 5586   6.916   2.309   3.595  0.3492  0.9963  0.3513
 1874TIP3    H2 5587   6.769   2.325   3.559 -0.0373 -0.0002  1.4475
 1875TIP3   OH2 5588   5.092   3.099   4.226  0.1794  0.2802  0.0646
 1875TIP3    H1 5589   5.030   3.165   4.195  1.1224  1.6542  0.9860
 1875TIP3    H2 5590   5.153   3.086   4.154 -1.8911 -2.1922 -1.4527
 1876TIP3   OH2 5591   0.820   3.060   4.482  0.3455 -0.5766  0.0688
 1876TIP3    H1 5592   0.872   3.140   4.471 -0.4293 -0.1163 -0.3402
 1876TIP3    H2 5593   0.853   3.021   4.563 -0.4251  1.0640  1.2363
 1877TIP3   OH2 5594   1.789   2.119   0.816 -0.4028  0.3229  0.0517
 1877TIP3    H1 5595   1.700   2.131   0.846 -0.4625  0.9606 -0.3490
 1877TIP3    H2 5596   1.793   2.169   0.734  0.7869  1.7636  0.9258
 1878TIP3   OH2 5597   3.876   2.417   1.998  0.1383  0.8389  0.1103
 1878TIP3    H1 5598   3.811   2.448   1.936  1.5228  0.4213 -1.6271
 1878TIP3    H2 5599   3.843   2.332   2.029 -0.0484  0.5240 -0.9345
 1879TIP3   OH2 5600   2.942   4.266   4.678  0.3059  0.1489  0.4662
 1879TIP3    H1 5601   2.973   4.326   4.610  0.7040  0.2751  0.7597
 1879TIP3    H2 5602   3.012   4.264   4.743  0.5707 -1.1157  0.1674
 1880TIP3   OH2 5603   1.624   0.027   5.645 -0.2962 -0.0978  0.5442
 1880TIP3    H1 5604   1.641   0.021   5.551  0.2998  1.6104  0.5181
 1880TIP3    H2 5605   1.530   0.009   5.653 -0.6669  1.1866 -0.5607
 1881TIP3   OH2 5606   2.567   3.887   4.291 -0.2582  0.2041  0.1323
 1881TIP3    H1 5607   2.623   3.885   4.369 -0.5582  0.8981  0.3732
 1881TIP3    H2 5608   2.481   3.860   4.323 -0.4388  0.7283  0.0933
 1882TIP3   OH2 5609   0.175   3.367   0.019 -0.1216 -0.1950  0.4656
 1882TIP3    H1 5610   0.196   3.320  -0.062  1.3790  2.2830 -0.7356
 1882TIP3    H2 5611   0.233   3.328   0.085  0.5307 -0.5660 -0.3001
 1883TIP3   OH2 5612   0.117   0.305   3.401  0.0287  0.0091  0.6827
 1883TIP3    H1 5613   0.103   0.355   3.482 -0.4444 -0.0024  0.6147
 1883TIP3    H2 5614   0.117   0.214   3.428 -0.0758  0.0074  0.6769
 1884TIP3   OH2 5615   6.607   2.644   4.315  0.0044 -0.4364  0.2171
 1884TIP3    H1 5616   6.615   2.687   4.230 -0.8044  0.2915  0.4919
 1884TIP3    H2 5617   6.557   2.564   4.298  0.4702 -0.6663 -0.0983
 1885TIP3   OH2 5618   6.504   5.412   5.540 -0.0113 -0.1972 -0.1195
 1885TIP3    H1 5619   6.568   5.397   5.610 -0.6936  0.2311  0.6101
 1885TIP3    H2 5620   6.557   5.428   5.462  0.7678 -2.2857 -0.0785
 1886TIP3   OH2 5621   2.164   4.309   0.514 -0.2563 -0.1893  0.3735
 1886TIP3    H1 5622   2.122   4.342   0.593  0.2146  0.7183  0.2592
 1886TIP3    H2 5623   2.243   4.361   0.505  0.0333 -0.7316 -0.3389
 1887TIP3   OH2 5624   2.322   1.375   4.443  0.2190 -0.5299  0.0622
 1887TIP3    H1 5625   2.402   1.367   4.496  1.3639  1.3371 -1.2478
 1887TIP3    H2 5626   2.350   1.353   4.354 -0.5721  0.6814 -0.5139
 1888TIP3   OH2 5627   1.318   4.514   5.057  0.3302 -0.6204  0.9781
 1888TIP3    H1 5628   1.282   4.426   5.069  0.6449 -0.8959 -0.0429
 1888TIP3    H2 5629   1.399   4.501   5.008 -0.1301  0.3210 -0.0708
 1889TIP3   OH2 5630   3.185   0.897   5.835  0.1246 -0.0747 -0.1415
 1889TIP3    H1 5631   3.210   0.881   5.744  2.5866  1.9911  0.0642
 1889TIP3    H2 5632   3.213   0.819   5.882  0.8619 -0.2385 -0.8313
 1890TIP3   OH2 5633   3.285   4.782   2.521 -0.3296 -0.5127  0.6655
 1890TIP3    H1 5634   3.339   4.703   2.527  0.7650  0.1898  0.2515
 1890TIP3    H2 5635   3.203   4.752   2.481 -0.2386 -1.5715  1.2171
 1891TIP3   OH2 5636   1.916   2.960   4.310  0.1583 -0.0291  0.2006
 1891TIP3    H1 5637   1.940   2.918   4.393  0.9121 -2.1527 -1.0108
 1891TIP3    H2 5638   1.994   2.949   4.255 -0.4115  1.1078 -0.8731
 1892TIP3   OH2 5639   3.586   3.885   3.834  0.4418 -0.5337 -0.1721
 1892TIP3    H1 5640   3.532   3.954   3.872 -0.0250 -1.9288  1.8081
 1892TIP3    H2 5641   3.641   3.855   3.905  2.9743 -0.0821 -1.8029
 1893TIP3   OH2 5642   3.116   0.288   0.129  0.1065 -0.2442  0.4078
 1893TIP3    H1 5643   3.020   0.287   0.125  0.0463  0.0302  1.4465
 1893TIP3    H2 5644   3.143   0.216   0.071 -0.7512 -0.7711  0.6367
 1894TIP3   OH2 5645   5.453   1.796   3.867 -0.2989 -0.0651  0.5281
 1894TIP3    H1 5646   5.518   1.783   3.798  0.0576  1.9561  0.4290
 1894TIP3    H2 5647   5.402   1.871   3.838 -0.4009  0.5738  2.2731
 1895TIP3   OH2 5648   1.569   0.102   2.175 -0.6525 -0.3164  0.6170
 1895TIP3    H1 5649   1.530   0.020   2.144 -0.0278 -0.4999  0.2925
 1895TIP3    H2 5650   1.521   0.170   2.127 -1.2729 -0.4760  0.9960
 1896TIP3   OH2 5651   1.172   5.358   1.848 -0.0073 -0.4309  0.2606
 1896TIP3    H1 5652   1.110   5.299   1.893  0.7282 -2.0234 -0.7222
 1896TIP3    H2 5653   1.124   5.388   1.770 -1.1405  2.0214  1.7800
 1897TIP3   OH2 5654   5.671   3.776   3.646  0.2857 -0.2410  0.4341
 1897TIP3    H1 5655   5.753   3.754   3.691  0.4309 -0.4654  0.0608
 1897TIP3    H2 5656   5.673   3.872   3.640 -0.0972 -0.1470  1.5773
 1898TIP3   OH2 5657   4.541   3.724   5.542 -0.0980  0.3158 -0.1312
 1898TIP3    H1 5658   4.564   3.636   5.514  0.6353 -0.0747  1.5939
 1898TIP3    H2 5659   4.476   3.711   5.612 -1.2413  1.2182 -0.9793
 1899TIP3   OH2 5660   5.297   6.379   4.560  0.0819 -0.0393 -0.0679
 1899TIP3    H1 5661   5.328   6.291   4.536 -0.4086 -1.0216  2.5521
 1899TIP3    H2 5662   5.232   6.400   4.492  1.2876 -1.0030 -1.6045
 1900TIP3   OH2 5663   3.252   1.853   0.159  0.2082 -0.1560 -0.1607
 1900TIP3    H1 5664   3.170   1.871   0.113 -1.1163 -0.3171  2.0028
 1900TIP3    H2 5665   3.268   1.760   0.145 -2.0537 -1.0457  2.3702
 1901TIP3   OH2 5666   6.602   3.854   3.136  0.2457 -0.1299  0.3958
 1901TIP3    H1 5667   6.636   3.789   3.199  1.9283  0.9946  0.7123
 1901TIP3    H2 5668   6.680   3.892   3.097 -0.7471  0.8935 -0.6478
 1902TIP3   OH2 5669   4.189   3.804   0.830 -0.3643  0.0491 -0.2594
 1902TIP3    H1 5670   4.224   3.890   0.854  1.1023  0.2888 -2.8322
 1902TIP3    H2 5671   4.266   3.751   0.810 -1.1906 -2.2196  2.0655
 1903TIP3   OH2 5672   6.660   4.086   0.266 -0.3514  1.1186 -0.3842
 1903TIP3    H1 5673   6.590   4.044   0.316  0.2187 -0.3299 -0.7440
 1903TIP3    H2 5674   6.697   4.015   0.213  1.6231  1.7448  0.0721
 1904TIP3   OH2 5675   7.150   3.492   1.159 -0.3576  0.2436  0.1664
 1904TIP3    H1 5676   7.099   3.416   1.133 -0.5955  1.1155 -2.1502
 1904TIP3    H2 5677   7.104   3.527   1.235 -1.7894 -0.3799 -0.3846
 1905TIP3   OH2 5678   2.376   3.999   1.699  0.3314  0.0681  0.1360
 1905TIP3    H1 5679   2.359   4.039   1.785  1.2602  2.0947 -0.5595
 1905TIP3    H2 5680   2.341   3.910   1.707 -0.6234  0.5583  2.2351
 1906TIP3   OH2 5681   2.183   0.423   1.154  0.0155 -0.3115  0.4638
 1906TIP3    H1 5682   2.102   0.405   1.202 -0.2356  0.3888  0.3084
 1906TIP3    H2 5683   2.216   0.336   1.131  0.1841 -0.6774  1.9583
 1907TIP3   OH2 5684   5.095   1.049   2.986 -0.1172  0.7106 -0.5062
 1907TIP3    H1 5685   5.138   0.964   2.977 -0.5013  0.6214 -1.6221
 1907TIP3    H2 5686   5.003   1.032   2.967 -0.2472  1.3227 -0.4586
 1908TIP3   OH2 5687   6.381   0.552   3.808 -0.1594  0.0376  0.1486
 1908TIP3    H1 5688   6.380   0.639   3.767 -1.6219 -0.5931 -1.2730
 1908TIP3    H2 5689   6.327   0.498   3.750  0.2989 -1.7036  1.2780
 1909TIP3   OH2 5690   5.120   0.778   3.075 -0.1897 -0.9466 -0.0254
 1909TIP3    H1 5691   5.168   0.735   3.146  0.9577 -1.3024 -0.9952
 1909TIP3    H2 5692   5.106   0.709   3.010 -0.3529 -0.3935 -0.5831
 1910TIP3   OH2 5693   6.235   2.375   5.326  0.0789 -0.3002 -0.3108
 1910TIP3    H1 5694   6.203   2.325   5.251 -1.2789  0.6040 -0.3699
 1910TIP3    H2 5695   6.217   2.319   5.401  1.5365 -1.2545 -0.6404
 1911TIP3   OH2 5696   2.116   5.381   1.812 -0.1118 -0.6878  0.1764
 1911TIP3    H1 5697   2.140   5.313   1.749  0.5524  0.2101 -0.5655
 1911TIP3    H2 5698   2.093   5.333   1.891  0.2832 -1.7842 -0.3507
 1912TIP3   OH2 5699   1.692   4.331   0.879 -0.2049 -0.3863  0.4157
 1912TIP3    H1 5700   1.667   4.353   0.968 -1.2559  0.5818 -0.1062
 1912TIP3    H2 5701   1.757   4.261   0.890  2.2361  1.9472  2.0749
 1913TIP3   OH2 5702   3.695   1.354   5.626  0.4328 -0.1809  0.0173
 1913TIP3    H1 5703   3.606   1.326   5.603  0.7761 -1.0596 -0.2923
 1913TIP3    H2 5704   3.692   1.450   5.621 -1.0860 -0.0373  2.1860
 1914TIP3   OH2 5705   6.027   1.551   4.240  0.1242  0.4869  0.1147
 1914TIP3    H1 5706   6.075   1.529   4.320 -0.8286  1.8460  1.1251
 1914TIP3    H2 5707   6.068   1.631   4.209 -0.1783  0.5394 -0.1572
 1915TIP3   OH2 5708   2.403   3.510   2.546 -0.3549 -0.5894 -0.1639
 1915TIP3    H1 5709   2.434   3.499   2.456 -3.2221 -1.7610 -1.1040
 1915TIP3    H2 5710   2.449   3.442   2.595  0.7582 -0.3610 -0.8455
 1916TIP3   OH2 5711   5.990   1.047   3.000 -0.1771  0.1910  0.4849
 1916TIP3    H1 5712   6.048   1.052   3.076 -0.5669  1.1017  0.7418
 1916TIP3    H2 5713   6.048   1.059   2.925 -0.0723  1.5962  0.7624
 1917TIP3   OH2 5714   3.255   0.616   2.645  0.1654 -0.6694  0.1275
 1917TIP3    H1 5715   3.171   0.585   2.613  0.1895  0.3400 -0.9858
 1917TIP3    H2 5716   3.262   0.706   2.613  1.7776 -0.8154 -0.0613
 1918TIP3   OH2 5717   5.924   5.221   1.314  0.2257  0.1490  0.3337
 1918TIP3    H1 5718   5.902   5.154   1.250 -0.3650  2.4076 -2.0368
 1918TIP3    H2 5719   5.841   5.264   1.334  0.8303  1.5285  0.0659
 1919TIP3   OH2 5720   4.523   5.431   4.993  0.0718 -0.2605 -0.1651
 1919TIP3    H1 5721   4.482   5.378   4.924  1.6317 -0.4199 -1.0174
 1919TIP3    H2 5722   4.558   5.367   5.055 -0.8254 -0.1276  0.4958
 1920TIP3   OH2 5723   6.405   0.551   3.495  0.1343  0.0387  0.6678
 1920TIP3    H1 5724   6.493   0.514   3.492  0.5644  1.0664  0.2669
 1920TIP3    H2 5725   6.359   0.509   3.423  0.7379  0.5743 -0.0417
 1921TIP3   OH2 5726   4.603   1.413   1.983  0.2395 -0.4427 -0.5698
 1921TIP3    H1 5727   4.514   1.402   1.951  0.4071 -1.9623 -0.6103
 1921TIP3    H2 5728   4.619   1.334   2.036  0.1687  1.6393  2.8600
 1922TIP3   OH2 5729   0.525   6.052   0.102  0.5471 -0.2079 -0.5089
 1922TIP3    H1 5730   0.458   6.099   0.152  0.7920  1.5983 -1.8046
 1922TIP3    H2 5731   0.477   5.984   0.055  0.3268 -2.0692  2.1930
 1923TIP3   OH2 5732   1.480   2.556   0.277  0.5536 -0.4655  1.0771
 1923TIP3    H1 5733   1.474   2.602   0.193  0.5584 -0.5407  1.0358
 1923TIP3    H2 5734   1.429   2.611   0.338 -0.0599 -0.7881  0.8610
 1924TIP3   OH2 5735   2.432   3.429   0.784 -0.0598  0.1211  0.3838
 1924TIP3    H1 5736   2.490   3.491   0.828  1.1066 -0.7511  0.1165
 1924TIP3    H2 5737   2.475   3.411   0.700 -1.8025  1.0828 -0.7806
 1925TIP3   OH2 5738   5.813   4.395   5.019 -0.1184 -0.1998  0.3231
 1925TIP3    H1 5739   5.867   4.385   4.941 -0.4244 -0.5092  0.1512
 1925TIP3    H2 5740   5.771   4.480   5.008 -0.0582 -0.1839  0.2174
 1926TIP3   OH2 5741   0.145   3.259   3.413  0.2854 -0.1257 -0.7146
 1926TIP3    H1 5742   0.063   3.309   3.425  0.5399  0.0612  0.2905
 1926TIP3    H2 5743   0.213   3.318   3.445  0.6495 -0.9022 -0.0448
 1927TIP3   OH2 5744   1.889   5.192   5.477  0.2130  0.0283  0.8125
 1927TIP3    H1 5745   1.889   5.159   5.567  1.4628  1.1253  1.2446
 1927TIP3    H2 5746   1.903   5.286   5.486  1.6102 -0.0062 -0.5596
 1928TIP3   OH2 5747   3.890   5.759   3.107  0.1211 -0.3680 -0.5104
 1928TIP3    H1 5748   3.839   5.680   3.089  0.9834 -0.8395 -1.0017
 1928TIP3    H2 5749   3.857   5.823   3.044 -0.7916 -0.2378  0.0931
 1929TIP3   OH2 5750   6.729   2.252   5.084 -0.3198  0.0613  0.0283
 1929TIP3    H1 5751   6.720   2.344   5.110  2.0249 -0.1718  2.0159
 1929TIP3    H2 5752   6.650   2.210   5.118 -1.3011  1.2528 -0.6763
 1930TIP3   OH2 5753   3.132   1.254   4.449  0.3264  0.4963 -0.2113
 1930TIP3    H1 5754   3.041   1.280   4.435  0.5586  1.0300 -0.7815
 1930TIP3    H2 5755   3.158   1.211   4.368  0.2393 -0.7080  0.3800
 1931TIP3   OH2 5756   0.345   4.962   0.091  0.1418  0.4053  0.2253
 1931TIP3    H1 5757   0.315   4.901   0.024  1.4327  2.0986 -2.0479
 1931TIP3    H2 5758   0.300   4.935   0.171  0.3308 -3.2162 -0.7285
 1932TIP3   OH2 5759   4.034   5.268   5.520  0.6470 -0.2067  0.2796
 1932TIP3    H1 5760   4.099   5.233   5.459 -0.7926  0.1338 -1.5580
 1932TIP3    H2 5761   4.029   5.361   5.499 -1.3352 -0.4523 -0.5854
 1933TIP3   OH2 5762   6.256   0.594   1.155  0.1755  0.1704  0.0003
 1933TIP3    H1 5763   6.331   0.628   1.106 -0.6322  0.3115 -1.1841
 1933TIP3    H2 5764   6.224   0.520   1.103  0.7881 -1.2932  1.6137
 1934TIP3   OH2 5765   2.163   0.144   0.646 -0.1409 -0.1303 -0.1853
 1934TIP3    H1 5766   2.183   0.204   0.574 -0.3780  1.1708  0.7833
 1934TIP3    H2 5767   2.248   0.125   0.686 -0.3125  2.6925  1.8453
 1935TIP3   OH2 5768   0.656   6.082   4.412  0.0162  0.4503 -0.8164
 1935TIP3    H1 5769   0.679   6.002   4.459 -3.1844 -1.7184 -2.5643
 1935TIP3    H2 5770   0.694   6.071   4.325  0.1846  1.2455 -0.8561
 1936TIP3   OH2 5771   2.412   0.378   2.045 -0.3011 -0.4681  0.9852
 1936TIP3    H1 5772   2.429   0.452   2.104 -0.2624 -0.3096  0.7765
 1936TIP3    H2 5773   2.348   0.324   2.092 -0.3989 -0.2541  1.1001
 1937TIP3   OH2 5774   5.439   3.387   1.609  0.5338 -0.0363 -0.3105
 1937TIP3    H1 5775   5.390   3.418   1.685  0.0468  0.0913 -0.6700
 1937TIP3    H2 5776   5.456   3.294   1.628 -0.5104 -0.2787 -0.5145
 1938TIP3   OH2 5777   4.858   5.738   4.123  0.4684 -0.3070 -0.4470
 1938TIP3    H1 5778   4.814   5.653   4.125 -0.3645  0.1237  0.8059
 1938TIP3    H2 5779   4.788   5.801   4.139  1.5504  0.3686  2.0768
 1939TIP3   OH2 5780   2.175   0.923   3.165  0.4684  0.3089 -0.6779
 1939TIP3    H1 5781   2.228   0.844   3.177  0.1359  0.3036  1.0043
 1939TIP3    H2 5782   2.214   0.988   3.223 -1.9173 -0.0298  1.4841
 1940TIP3   OH2 5783   0.406   5.968   4.324  0.2172 -0.3500 -0.4156
 1940TIP3    H1 5784   0.485   6.014   4.353 -0.6198  0.4890  0.6417
 1940TIP3    H2 5785   0.376   5.922   4.403 -0.1572 -0.9523 -0.9067
 1941TIP3   OH2 5786   1.953   1.898   5.762 -0.2232  0.0530  0.1627
 1941TIP3    H1 5787   2.028   1.867   5.710 -1.6169 -1.8741 -0.8189
 1941TIP3    H2 5788   1.933   1.826   5.821 -1.7695  0.2031 -0.1308
 1942TIP3   OH2 5789   4.130   3.538   1.410  0.8910 -0.2816  0.5922
 1942TIP3    H1 5790   4.096   3.552   1.498  0.9282 -1.0239  0.7332
 1942TIP3    H2 5791   4.128   3.443   1.398  1.4534 -0.2312  0.0190
 1943TIP3   OH2 5792   0.862   1.572   1.750 -0.1483  0.3051 -0.7812
 1943TIP3    H1 5793   0.821   1.607   1.830 -0.0245 -0.0229 -0.5750
 1943TIP3    H2 5794   0.947   1.539   1.779  1.0781  2.6114 -1.5050
 1944TIP3   OH2 5795   2.338   1.043   4.550  0.2317 -0.0454 -0.3181
 1944TIP3    H1 5796   2.401   1.089   4.495  0.5873  0.5426  0.5604
 1944TIP3    H2 5797   2.391   0.996   4.614 -0.2030  1.2922  1.1007
 1945TIP3   OH2 5798   4.078   1.596   3.411 -0.5879 -0.0016  0.1339
 1945TIP3    H1 5799   4.164   1.634   3.395 -1.4603  2.1258  0.2298
 1945TIP3    H2 5800   4.097   1.510   3.448  1.4819  0.1778 -0.3786
 1946TIP3   OH2 5801   6.070   1.421   1.084 -0.0213 -0.0303  0.5637
 1946TIP3    H1 5802   6.083   1.442   1.177 -0.2360  0.7364  0.4270
 1946TIP3    H2 5803   6.010   1.348   1.084 -0.7049  0.5185  1.0102
 1947TIP3   OH2 5804   3.915   6.415   0.763 -0.1315  0.0171  0.0927
 1947TIP3    H1 5805   3.863   6.339   0.792  0.1048  0.0246  0.5532
 1947TIP3    H2 5806   3.949   6.452   0.845 -0.1202  0.5289 -0.1443
 1948TIP3   OH2 5807  -0.014   0.470   1.816 -0.3356  0.2059 -0.7098
 1948TIP3    H1 5808   0.019   0.477   1.905 -2.3272 -0.1985  0.0983
 1948TIP3    H2 5809  -0.002   0.558   1.779  0.7750  0.2968 -0.1729
 1949TIP3   OH2 5810   3.483   4.051   3.346 -0.5846 -0.1942  0.1722
 1949TIP3    H1 5811   3.405   4.061   3.399 -0.0561 -2.3142  1.4601
 1949TIP3    H2 5812   3.494   3.957   3.335 -0.0055  0.0956 -2.7905
 1950TIP3   OH2 5813   4.694   0.411   0.685 -0.0366 -0.0368 -0.1950
 1950TIP3    H1 5814   4.667   0.381   0.771  1.0753 -0.1611  0.1260
 1950TIP3    H2 5815   4.691   0.333   0.630  0.2052 -0.1640 -0.0287
 1951TIP3   OH2 5816   2.027   4.687   5.281 -0.2763  0.2623  0.1456
 1951TIP3    H1 5817   2.027   4.641   5.365  0.1956  0.4410  0.2471
 1951TIP3    H2 5818   2.050   4.777   5.303  0.8101  0.1068 -0.2738
 1952TIP3   OH2 5819   0.013   5.850   4.054  0.4820 -0.2963 -0.2216
 1952TIP3    H1 5820   0.015   5.908   3.977 -0.0142  0.9126  0.6400
 1952TIP3    H2 5821   0.104   5.823   4.066  1.1099  1.8858  0.4625
 1953TIP3   OH2 5822   0.093   3.402   4.026  0.4136  0.4117 -0.2927
 1953TIP3    H1 5823   0.034   3.424   3.955  0.1125 -1.8062 -0.7784
 1953TIP3    H2 5824   0.076   3.469   4.092 -1.5968  0.6777 -1.0085
 1954TIP3   OH2 5825   3.148   2.728   2.278  0.2526  0.3910  0.1400
 1954TIP3    H1 5826   3.089   2.777   2.335  1.2898  1.7298  0.1241
 1954TIP3    H2 5827   3.098   2.713   2.198 -0.2670  0.9688  0.3505
 1955TIP3   OH2 5828   6.162   6.195   1.050  0.6347  0.1318 -0.1273
 1955TIP3    H1 5829   6.114   6.112   1.050  1.4134 -0.3381 -0.0605
 1955TIP3    H2 5830   6.176   6.214   1.143 -0.9134  1.1752 -0.0883
 1956TIP3   OH2 5831   2.808   5.981   4.882  0.8265  0.4297 -0.3219
 1956TIP3    H1 5832   2.901   5.983   4.857  0.9023 -0.0223 -0.0985
 1956TIP3    H2 5833   2.770   6.058   4.840  0.9332 -0.3341 -1.8887
 1957TIP3   OH2 5834   6.133   0.873   4.821  0.3078 -0.0938 -0.2204
 1957TIP3    H1 5835   6.079   0.945   4.854  0.9859  0.7167 -0.8612
 1957TIP3    H2 5836   6.077   0.795   4.832 -0.4770  0.5336  0.3693
 1958TIP3   OH2 5837   1.885   0.177   3.089  0.4153 -0.1576  0.5564
 1958TIP3    H1 5838   1.803   0.226   3.096  2.4338  3.4156  2.0056
 1958TIP3    H2 5839   1.880   0.111   3.157 -1.3856 -0.2898  0.3404
 1959TIP3   OH2 5840   1.300   4.173   4.098  0.3454 -0.3756  0.9117
 1959TIP3    H1 5841   1.237   4.101   4.100 -1.8860  1.4045  4.0774
 1959TIP3    H2 5842   1.367   4.147   4.162  0.5792 -0.4214  0.6530
 1960TIP3   OH2 5843   0.338   2.961   1.123  0.2398  0.7500 -0.3743
 1960TIP3    H1 5844   0.279   3.037   1.130 -0.9168 -0.0938 -0.7140
 1960TIP3    H2 5845   0.360   2.940   1.214 -0.7896  0.4689 -0.1796
 1961TIP3   OH2 5846   6.159   0.335   2.486 -0.0908  0.4410  0.2579
 1961TIP3    H1 5847   6.205   0.396   2.544  1.7157 -0.1063 -0.5305
 1961TIP3    H2 5848   6.072   0.326   2.525  0.3884  1.6597  1.7189
 1962TIP3   OH2 5849   6.534   4.151   3.118 -0.6376 -0.4172 -0.1213
 1962TIP3    H1 5850   6.608   4.195   3.159 -1.5196  1.0917 -0.0887
 1962TIP3    H2 5851   6.559   4.058   3.116  1.3918  0.1090 -0.4851
 1963TIP3   OH2 5852   0.844   5.984   1.704  0.2351  0.3244 -0.3483
 1963TIP3    H1 5853   0.812   5.990   1.794  2.1046  0.6614  0.3304
 1963TIP3    H2 5854   0.770   6.014   1.650 -1.6760 -1.9022  0.8768
 1964TIP3   OH2 5855   0.407   1.356   5.351  0.6744  0.3073 -0.4180
 1964TIP3    H1 5856   0.494   1.364   5.313  0.0253  0.8759 -1.8447
 1964TIP3    H2 5857   0.351   1.411   5.296 -0.4135  0.7868  1.0821
 1965TIP3   OH2 5858   3.845   4.005   4.625  0.5404  0.6246  0.5696
 1965TIP3    H1 5859   3.811   4.007   4.535  0.7486  0.8122  0.4970
 1965TIP3    H2 5860   3.939   3.998   4.615  0.4814 -0.8330  0.7681
 1966TIP3   OH2 5861   2.900   2.010   2.346 -0.5693 -0.5389 -0.4187
 1966TIP3    H1 5862   2.934   1.921   2.360 -2.7078 -1.6890 -1.9306
 1966TIP3    H2 5863   2.822   2.015   2.401 -0.6440  0.3039 -0.5904
 1967TIP3   OH2 5864   1.172   5.725   1.599 -0.2049 -0.6254  0.3130
 1967TIP3    H1 5865   1.236   5.681   1.543 -0.8374 -1.2410  0.0562
 1967TIP3    H2 5866   1.213   5.808   1.622  0.3317 -0.6426 -0.5473
 1968TIP3   OH2 5867   3.939   5.936   5.443 -0.1194  0.1224  1.0623
 1968TIP3    H1 5868   3.869   5.906   5.385 -1.0306  1.1039  1.6155
 1968TIP3    H2 5869   4.013   5.878   5.424 -0.6727 -0.1155 -0.4368
 1969TIP3   OH2 5870   3.264   5.189   4.866  0.1641 -0.0820  0.9220
 1969TIP3    H1 5871   3.297   5.101   4.848  0.7316 -0.3107  2.7943
 1969TIP3    H2 5872   3.305   5.244   4.799  0.6734 -1.0845  0.3870
 1970TIP3   OH2 5873   4.672   2.379   4.526  0.1623 -0.4917 -0.2002
 1970TIP3    H1 5874   4.636   2.423   4.603  0.7261 -0.8399  0.2726
 1970TIP3    H2 5875   4.735   2.316   4.562 -0.1715 -1.2323 -0.9032
 1971TIP3   OH2 5876   5.823   1.464   3.231 -0.2365  0.2487 -0.2933
 1971TIP3    H1 5877   5.836   1.369   3.220 -0.0603  0.2428 -0.0500
 1971TIP3    H2 5878   5.740   1.471   3.278  1.0100  0.0866  2.0734
 1972TIP3   OH2 5879   6.508   1.242   0.959 -0.3786  0.5807 -0.5838
 1972TIP3    H1 5880   6.499   1.315   1.021  0.4390  0.1642  0.0499
 1972TIP3    H2 5881   6.442   1.179   0.987  0.0234  0.3715 -0.0828
 1973TIP3   OH2 5882   5.163   0.594   1.697  0.6974 -0.9170  0.2015
 1973TIP3    H1 5883   5.210   0.594   1.780  1.4265  0.1553 -0.1840
 1973TIP3    H2 5884   5.232   0.595   1.631  0.1779  1.0831 -0.3844
 1974TIP3   OH2 5885   6.203   5.323   5.095 -0.5702 -0.2398 -0.1532
 1974TIP3    H1 5886   6.209   5.262   5.169  2.0104 -0.1831 -0.2203
 1974TIP3    H2 5887   6.293   5.334   5.066 -1.0788  2.6477 -0.9543
 1975TIP3   OH2 5888   4.146   4.229   1.328 -0.5059 -0.1367  0.0911
 1975TIP3    H1 5889   4.161   4.135   1.315 -0.4654 -0.0092 -0.8507
 1975TIP3    H2 5890   4.056   4.234   1.362 -0.1964 -0.5634  1.0299
 1976TIP3   OH2 5891   6.751   3.447   2.783 -0.6624 -0.2100  0.7770
 1976TIP3    H1 5892   6.689   3.455   2.855 -0.8606 -1.5706  0.7681
 1976TIP3    H2 5893   6.807   3.374   2.807  0.3867  0.4411  0.3624
 1977TIP3   OH2 5894   3.863   2.964   1.016 -0.3124  0.0247  0.2781
 1977TIP3    H1 5895   3.804   2.907   1.065  0.2162 -0.6384  0.1645
 1977TIP3    H2 5896   3.881   2.917   0.935  0.0267  0.4146  0.1211
 1978TIP3   OH2 5897   1.783   6.598   0.478  0.5848 -0.1013 -0.6287
 1978TIP3    H1 5898   1.804   6.626   0.567 -0.0296  0.7573 -0.7511
 1978TIP3    H2 5899   1.797   6.675   0.424  1.2484 -0.6998 -1.3316
 1979TIP3   OH2 5900   1.010   6.520   0.767  0.1594 -0.0624 -0.2765
 1979TIP3    H1 5901   1.068   6.528   0.692 -0.8080 -0.0726 -1.0570
 1979TIP3    H2 5902   1.035   6.437   0.808  2.3429  1.0930  0.9123
 1980TIP3   OH2 5903   1.764   5.832   1.469  0.4933 -0.9154 -0.2326
 1980TIP3    H1 5904   1.794   5.841   1.379 -2.6698 -1.2306 -1.4525
 1980TIP3    H2 5905   1.693   5.768   1.465 -1.2945  0.7177  2.0355
 1981TIP3   OH2 5906   0.936   4.913   2.201 -0.0809 -0.2615  0.2128
 1981TIP3    H1 5907   0.901   5.000   2.218  2.0826  0.4599  1.2138
 1981TIP3    H2 5908   1.031   4.925   2.196  0.1966 -2.3911 -0.7314
 1982TIP3   OH2 5909   2.863   2.797   5.645  0.0966 -0.5865  0.1891
 1982TIP3    H1 5910   2.886   2.826   5.557  0.1438 -0.5498  0.2132
 1982TIP3    H2 5911   2.777   2.756   5.636 -0.6003  0.7762  0.3901
 1983TIP3   OH2 5912   3.780   3.057   1.980 -0.1380 -0.1634  0.0626
 1983TIP3    H1 5913   3.739   2.983   2.024  2.0364 -2.6252 -1.7428
 1983TIP3    H2 5914   3.861   3.071   2.030  0.2981 -0.1654 -0.6418
 1984TIP3   OH2 5915   5.745   1.558   4.332 -0.0408 -0.2503 -0.0797
 1984TIP3    H1 5916   5.711   1.586   4.417 -0.3045 -0.1375 -0.2217
 1984TIP3    H2 5917   5.831   1.597   4.327 -0.4454  0.6238 -0.3214
 1985TIP3   OH2 5918   4.793   5.822   1.143  0.0858 -0.0476 -0.1657
 1985TIP3    H1 5919   4.838   5.901   1.113  1.3068 -1.1724 -1.4278
 1985TIP3    H2 5920   4.855   5.779   1.201 -0.7746  0.1415  0.9311
 1986TIP3   OH2 5921   6.006   5.763   3.850  0.1731 -0.1437  0.1494
 1986TIP3    H1 5922   5.979   5.751   3.941 -1.8234  3.5226  0.2117
 1986TIP3    H2 5923   6.100   5.784   3.856  0.1683 -0.3692  1.2855
 1987TIP3   OH2 5924   1.846   1.055   1.643  0.9606  0.1874 -0.3599
 1987TIP3    H1 5925   1.838   1.138   1.690  2.3326  0.2278 -0.1823
 1987TIP3    H2 5926   1.755   1.028   1.628  0.4959  1.6310 -0.2863
 1988TIP3   OH2 5927   0.636   4.808   0.170 -0.1009  0.4831 -0.0425
 1988TIP3    H1 5928   0.615   4.847   0.254 -1.1261 -1.9624  0.9077
 1988TIP3    H2 5929   0.552   4.779   0.134  0.6054 -1.1904 -0.4771
 1989TIP3   OH2 5930   5.441   3.431   3.550  0.0207  0.1919 -0.1585
 1989TIP3    H1 5931   5.420   3.477   3.631 -1.6251  0.8136 -0.8892
 1989TIP3    H2 5932   5.498   3.491   3.503 -0.3649  0.5620 -0.1667
 1990TIP3   OH2 5933   4.318   2.084   0.557  0.7830  0.3581 -0.3246
 1990TIP3    H1 5934   4.369   2.009   0.524  1.8637  0.0839  1.8113
 1990TIP3    H2 5935   4.366   2.160   0.524  0.6676  0.1292 -1.0597
 1991TIP3   OH2 5936   1.220   4.086   1.541  0.0375 -0.0348 -0.4365
 1991TIP3    H1 5937   1.193   4.060   1.453 -1.1316  0.7118 -0.3189
 1991TIP3    H2 5938   1.196   4.012   1.597 -2.2349  0.7522 -0.2708
 1992TIP3   OH2 5939   6.931   2.409   3.830  0.2633  0.0145  0.3010
 1992TIP3    H1 5940   6.887   2.400   3.746 -0.7866  0.1700  0.8117
 1992TIP3    H2 5941   6.979   2.492   3.823  0.6157 -0.2402 -0.3276
 1993TIP3   OH2 5942   4.714   0.430   3.851 -0.5039 -0.5664 -0.2294
 1993TIP3    H1 5943   4.763   0.362   3.899 -0.9017 -1.2891 -0.8254
 1993TIP3    H2 5944   4.633   0.440   3.901 -0.4136 -0.4818 -0.1005
 1994TIP3   OH2 5945   3.466   1.142   4.434 -0.1492  0.5641 -0.0782
 1994TIP3    H1 5946   3.466   1.232   4.467 -1.6657  0.1023  1.2428
 1994TIP3    H2 5947   3.502   1.090   4.506  2.4492  0.2430 -1.4562
 1995TIP3   OH2 5948   6.422   1.421   4.665  0.0759 -0.2386 -0.0654
 1995TIP3    H1 5949   6.435   1.448   4.574 -0.8755  0.1046 -0.1144
 1995TIP3    H2 5950   6.455   1.494   4.717 -0.8524  0.2816 -0.1733
 1996TIP3   OH2 5951   0.069   6.404   1.208  0.0970 -0.7104 -0.1325
 1996TIP3    H1 5952   0.139   6.469   1.200 -0.2497 -0.1632  1.0693
 1996TIP3    H2 5953   0.044   6.385   1.118  1.5284 -0.6312 -0.5714
 1997TIP3   OH2 5954   4.382   5.529   4.659  0.7457 -0.4575  0.2103
 1997TIP3    H1 5955   4.300   5.565   4.626  1.5199  0.4303 -0.8160
 1997TIP3    H2 5956   4.365   5.435   4.670 -0.2671 -0.3565 -0.4286
 1998TIP3   OH2 5957   1.229   4.770   3.772  0.3019 -0.2133  0.8411
 1998TIP3    H1 5958   1.291   4.809   3.834 -1.1051 -1.7708  3.3600
 1998TIP3    H2 5959   1.143   4.787   3.809 -0.5956 -1.4608 -0.5482
 1999TIP3   OH2 5960   1.821   6.811   5.501 -0.1179  0.0708 -0.2668
 1999TIP3    H1 5961   1.834   6.719   5.521  0.2370 -0.0286 -0.9438
 1999TIP3    H2 5962   1.892   6.834   5.442  0.8520  1.2404  1.2620
 2000TIP3   OH2 5963   2.313   3.817   0.335  0.2389 -0.2669 -0.2555
 2000TIP3    H1 5964   2.292   3.815   0.242  0.4696 -0.3729 -0.3081
 2000TIP3    H2 5965   2.376   3.745   0.346  1.0672  0.4425 -0.2338
 2001TIP3   OH2 5966   3.997   4.804   5.226 -0.1910 -0.0154 -0.1200
 2001TIP3    H1 5967   4.084   4.773   5.201 -0.7512 -1.2607 -0.5838
 2001TIP3    H2 5968   4.011   4.894   5.256  1.3074 -0.3386  0.1952
 2002TIP3   OH2 5969   2.764   6.261   0.045 -0.3368  0.2392 -0.4634
 2002TIP3    H1 5970   2.778   6.344   0.090  2.5345 -1.0932  1.3660
 2002TIP3    H2 5971   2.836   6.256  -0.019  2.4863 -2.6300  2.5447
 2003TIP3   OH2 5972   3.177   2.845   0.754 -0.4310 -0.3857  0.3145
 2003TIP3    H1 5973   3.201   2.938   0.747  0.0199 -0.3721  1.7253
 2003TIP3    H2 5974   3.256   2.798   0.729 -1.0718 -0.4359 -1.7630
 2004TIP3   OH2 5975   0.198   4.209   1.573  0.1084 -0.6453 -0.5872
 2004TIP3    H1 5976   0.148   4.277   1.527 -0.8861 -1.4512 -0.7373
 2004TIP3    H2 5977   0.275   4.255   1.607 -1.0571  0.8010  0.2514
 2005TIP3   OH2 5978   6.017   1.761   5.391 -0.3691  0.1392  0.3396
 2005TIP3    H1 5979   5.993   1.774   5.483  0.2476  2.3152  0.2635
 2005TIP3    H2 5980   5.936   1.731   5.350 -0.9547  0.2048  1.3900
 2006TIP3   OH2 5981   2.971   2.428   2.096 -0.3798 -0.1413  0.3096
 2006TIP3    H1 5982   2.948   2.463   2.010  1.1498  0.0877 -0.0448
 2006TIP3    H2 5983   3.046   2.370   2.079 -1.8161 -2.3936  1.0945
 2007TIP3   OH2 5984   3.672   1.942   5.626 -0.2565 -0.0226  0.1508
 2007TIP3    H1 5985   3.613   1.868   5.642  3.8317 -3.7531 -0.1212
 2007TIP3    H2 5986   3.658   1.965   5.534 -0.9453 -1.1204 -0.0344
 2008TIP3   OH2 5987   4.561   1.752   5.478  0.2391  0.8118  0.0442
 2008TIP3    H1 5988   4.597   1.672   5.439 -1.1325 -0.1386  0.6367
 2008TIP3    H2 5989   4.636   1.793   5.521  1.0315 -0.0094 -0.5052
 2009TIP3   OH2 5990   0.268   3.586   4.850  0.7340 -0.4022 -0.2172
 2009TIP3    H1 5991   0.172   3.584   4.854  0.7313 -1.5000 -0.5078
 2009TIP3    H2 5992   0.295   3.607   4.940  0.2293  0.3325 -0.2206
 2010TIP3   OH2 5993   2.227   5.174   4.804  0.2619 -0.3791  0.1455
 2010TIP3    H1 5994   2.228   5.233   4.879  0.5185 -0.8580  0.5281
 2010TIP3    H2 5995   2.231   5.232   4.728 -2.2062  0.2479  0.3894
 2011TIP3   OH2 5996   6.004   5.571   1.936 -0.2127  0.0376 -0.4292
 2011TIP3    H1 5997   6.051   5.654   1.946 -0.1454  0.0494 -0.8646
 2011TIP3    H2 5998   5.994   5.560   1.842 -1.3019  0.1515 -0.3347
 2012TIP3   OH2 5999   4.945   0.508   2.468  0.2485 -0.6953 -0.1413
 2012TIP3    H1 6000   4.973   0.440   2.530 -2.1370 -2.7100 -1.1293
 2012TIP3    H2 6001   4.994   0.488   2.388  0.5472 -0.3716 -0.0457
 2013TIP3   OH2 6002   5.272   2.761   5.571 -0.1897  0.4650 -0.1723
 2013TIP3    H1 6003   5.214   2.773   5.496 -0.2008  0.1192 -0.2199
 2013TIP3    H2 6004   5.262   2.842   5.622 -0.3644  0.5993 -0.4164
 2014TIP3   OH2 6005   6.442   2.261   3.124  0.4012 -0.2574 -0.1496
 2014TIP3    H1 6006   6.403   2.175   3.142  4.6566 -2.3971 -0.0176
 2014TIP3    H2 6007   6.442   2.268   3.029  2.2188 -1.6444 -0.2963
 2015TIP3   OH2 6008   6.398   1.265   0.673 -0.2313  0.0767  0.3317
 2015TIP3    H1 6009   6.366   1.322   0.743 -0.3672 -0.3636  0.6312
 2015TIP3    H2 6010   6.482   1.303   0.648 -1.3049  1.6996 -0.9871
 2016TIP3   OH2 6011   0.885   6.256   0.911  0.9232 -0.1100 -0.1326
 2016TIP3    H1 6012   0.970   6.271   0.952  0.7276  1.5943 -0.2770
 2016TIP3    H2 6013   0.905   6.234   0.820  1.2322 -0.4286  0.0124
 2017TIP3   OH2 6014   6.132   5.376   4.689 -0.6455  0.1449  0.4286
 2017TIP3    H1 6015   6.167   5.461   4.715  0.0836 -0.3382  1.0501
 2017TIP3    H2 6016   6.071   5.353   4.760  2.1653 -1.6890  2.4855
 2018TIP3   OH2 6017   3.076   5.010   0.996  0.1389 -0.3573  0.5175
 2018TIP3    H1 6018   3.149   4.949   0.993  0.7831  0.3992  0.5715
 2018TIP3    H2 6019   3.061   5.026   1.089 -1.3085 -1.9095  0.6029
 2019TIP3   OH2 6020   3.147   5.376   1.708  0.4329 -0.6537 -0.1569
 2019TIP3    H1 6021   3.195   5.365   1.790  0.4359 -0.6620 -0.1598
 2019TIP3    H2 6022   3.209   5.348   1.640  0.6874  0.0495 -0.2209
 2020TIP3   OH2 6023   6.186   1.019   1.624 -0.2217 -0.2828 -0.1791
 2020TIP3    H1 6024   6.100   0.977   1.617 -0.0823 -0.9911  1.7372
 2020TIP3    H2 6025   6.237   0.961   1.680  1.2902  0.4905 -0.6908
 2021TIP3   OH2 6026   0.254   2.675   0.804 -0.0678  0.0007  0.2970
 2021TIP3    H1 6027   0.336   2.713   0.770 -0.0038  1.1462  1.6401
 2021TIP3    H2 6028   0.261   2.582   0.782  0.1344  0.5563 -2.4041
 2022TIP3   OH2 6029   2.125   6.072   3.112  0.1119 -0.3616 -0.3546
 2022TIP3    H1 6030   2.195   6.024   3.156  0.7958 -0.6165 -1.6735
 2022TIP3    H2 6031   2.168   6.151   3.079 -0.4238 -0.0901 -0.4139
 2023TIP3   OH2 6032   5.757   1.825   5.307  0.4468  0.2651 -0.9228
 2023TIP3    H1 6033   5.681   1.776   5.337  1.9664 -1.6643 -0.0352
 2023TIP3    H2 6034   5.760   1.810   5.213  1.0201 -1.6447 -0.6398
 2024TIP3   OH2 6035   3.132   1.350   1.295 -0.4118 -0.0710  0.5322
 2024TIP3    H1 6036   3.210   1.404   1.293 -1.8103  2.0812 -0.2392
 2024TIP3    H2 6037   3.070   1.396   1.238 -2.2804 -1.6121  1.1946
 2025TIP3   OH2 6038   1.359   6.432   4.967  0.1621  0.2857 -0.2775
 2025TIP3    H1 6039   1.318   6.348   4.984 -1.3659  0.7949 -1.3015
 2025TIP3    H2 6040   1.319   6.464   4.886  2.9067  0.6214 -1.6459
 2026TIP3   OH2 6041   1.154   1.657   5.300 -0.1456 -0.3722 -0.0875
 2026TIP3    H1 6042   1.084   1.636   5.362  1.6026 -0.2364  2.0730
 2026TIP3    H2 6043   1.185   1.571   5.271  1.0240 -0.6245  1.7033
 2027TIP3   OH2 6044   5.306   0.190   1.109 -0.4633 -0.2378  0.6178
 2027TIP3    H1 6045   5.318   0.154   1.197 -0.2340 -0.4006  0.5207
 2027TIP3    H2 6046   5.213   0.177   1.091 -0.1739 -1.8439  0.1304
 2028TIP3   OH2 6047   1.079   1.470   0.118 -0.2651  0.3308  0.1309
 2028TIP3    H1 6048   1.101   1.552   0.162 -1.1606 -0.1802  1.6200
 2028TIP3    H2 6049   1.118   1.402   0.172 -1.4936 -0.3305  0.2324
 2029TIP3   OH2 6050   2.058   5.916   4.976 -0.2248 -0.4821  0.2874
 2029TIP3    H1 6051   2.109   5.995   4.990 -0.2919 -0.5406  0.9036
 2029TIP3    H2 6052   2.082   5.858   5.049  1.5550 -1.9616 -1.3753
 2030TIP3   OH2 6053   3.730   2.554   2.470  0.0300  0.4566  0.6394
 2030TIP3    H1 6054   3.683   2.623   2.424 -0.4082  0.7977  1.5787
 2030TIP3    H2 6055   3.662   2.496   2.503  0.4259 -0.8867 -0.8111
 2031TIP3   OH2 6056   1.182   2.000   4.688 -0.5121  0.7160  0.3118
 2031TIP3    H1 6057   1.099   2.020   4.645  0.2054  1.1705 -0.8949
 2031TIP3    H2 6058   1.248   2.043   4.635  0.5565 -0.0421  0.9795
 2032TIP3   OH2 6059   2.419   6.533   4.228  0.3050  0.2746  0.2298
 2032TIP3    H1 6060   2.485   6.464   4.229  1.0469  0.9681  0.4930
 2032TIP3    H2 6061   2.442   6.588   4.153  0.3591  0.8275  0.6421
 2033TIP3   OH2 6062   4.337   5.202   4.294  0.2123 -0.1103 -0.8162
 2033TIP3    H1 6063   4.404   5.242   4.350  0.1040  0.3730 -1.0299
 2033TIP3    H2 6064   4.257   5.251   4.314 -0.2666 -1.1687 -0.0029
 2034TIP3   OH2 6065   2.609   0.888   5.885 -0.1140 -0.0002  0.4510
 2034TIP3    H1 6066   2.681   0.950   5.893  0.5454 -0.5342 -1.1058
 2034TIP3    H2 6067   2.573   0.903   5.798  1.4619 -3.2165 -0.8852
 2035TIP3   OH2 6068   2.218   2.086   0.592  0.5336  0.4018  0.2993
 2035TIP3    H1 6069   2.264   2.133   0.523 -0.0694  1.2320  0.4462
 2035TIP3    H2 6070   2.160   2.151   0.631  0.1942 -0.2886  0.9823
 2036TIP3   OH2 6071   5.042   4.383   0.323  0.4702 -0.2394 -0.0964
 2036TIP3    H1 6072   5.119   4.357   0.372  0.9702  2.9916  1.1003
 2036TIP3    H2 6073   5.070   4.384   0.232  1.6755  0.2610  0.2618
 2037TIP3   OH2 6074   2.061   4.010   1.819  0.2459 -0.2603  0.2334
 2037TIP3    H1 6075   2.003   3.994   1.744 -0.1543  2.0141 -0.0252
 2037TIP3    H2 6076   2.012   4.071   1.874  1.7477  0.4537  0.8327
 2038TIP3   OH2 6077   0.369   4.918   1.837 -0.2215  0.1076  0.1240
 2038TIP3    H1 6078   0.410   4.840   1.874  0.2954  0.7431  0.9255
 2038TIP3    H2 6079   0.280   4.918   1.874 -1.7695 -2.3301 -3.1139
 2039TIP3   OH2 6080   2.960   0.619   1.886  0.3381  0.4866  0.0429
 2039TIP3    H1 6081   2.869   0.633   1.912 -0.2145  1.6264 -2.2634
 2039TIP3    H2 6082   3.007   0.695   1.921  0.3555  0.0884  0.9105
 2040TIP3   OH2 6083   6.060   2.814   5.769 -0.1834  0.2748  0.7768
 2040TIP3    H1 6084   6.001   2.748   5.732 -0.4126  1.3932 -0.9967
 2040TIP3    H2 6085   6.138   2.764   5.794  1.3039 -0.4051 -4.1199
 2041TIP3   OH2 6086   3.844   2.246   4.060 -0.1243 -0.6300  0.0257
 2041TIP3    H1 6087   3.793   2.187   4.116 -0.3347  0.6311  1.2061
 2041TIP3    H2 6088   3.778   2.299   4.015  0.0909 -0.5175 -0.1570
 2042TIP3   OH2 6089   2.078   2.855   5.283  0.5111 -0.0666 -0.4292
 2042TIP3    H1 6090   2.095   2.914   5.210 -0.1237  0.2452 -0.3276
 2042TIP3    H2 6091   1.996   2.811   5.259  0.4612 -0.1824 -0.0411
 2043TIP3   OH2 6092   6.678   4.749  -0.013 -0.0058  0.4923 -0.4815
 2043TIP3    H1 6093   6.685   4.664   0.030 -0.4668  0.1769 -1.0064
 2043TIP3    H2 6094   6.655   4.810   0.057  0.5713  0.2270 -0.0598
 2044TIP3   OH2 6095   5.177   1.129   1.442 -0.2323  0.1673 -0.4120
 2044TIP3    H1 6096   5.257   1.092   1.479 -0.9636 -0.3965  0.6860
 2044TIP3    H2 6097   5.205   1.207   1.394  1.3221 -1.4516 -2.3577
 2045TIP3   OH2 6098   3.540   0.583   3.119  0.1756 -0.5196  0.2959
 2045TIP3    H1 6099   3.493   0.505   3.092 -0.7993  0.0136  0.3962
 2045TIP3    H2 6100   3.617   0.586   3.062 -1.4244  0.1804 -1.9730
 2046TIP3   OH2 6101   6.657   6.264   0.228 -0.3687 -0.8403  0.4766
 2046TIP3    H1 6102   6.736   6.293   0.275 -0.7556  0.5225  0.3271
 2046TIP3    H2 6103   6.659   6.169   0.235  2.7063 -1.0982 -1.7251
 2047TIP3   OH2 6104   0.681   6.161   1.509  0.5278 -0.3314 -0.0970
 2047TIP3    H1 6105   0.746   6.210   1.458 -0.4254 -0.3409 -1.3730
 2047TIP3    H2 6106   0.625   6.229   1.547 -0.1965 -0.3665 -1.0553
 2048TIP3   OH2 6107   6.653   4.843   4.309 -0.0756  0.3901  0.7525
 2048TIP3    H1 6108   6.705   4.767   4.335  0.6133  1.2704  2.0633
 2048TIP3    H2 6109   6.591   4.855   4.381 -3.0841 -1.3900 -1.3076
 2049TIP3   OH2 6110   6.516   1.868   3.611 -0.5671 -0.3132  0.0827
 2049TIP3    H1 6111   6.579   1.841   3.544  0.5177 -0.1167  0.9864
 2049TIP3    H2 6112   6.456   1.928   3.565 -2.0687 -2.8947 -1.5683
 2050TIP3   OH2 6113   6.784   0.169   3.554  0.0359  0.0965  0.0873
 2050TIP3    H1 6114   6.792   0.176   3.650 -0.1644  0.5925  0.0692
 2050TIP3    H2 6115   6.716   0.103   3.541 -0.6161  0.7076  0.3059
 2051TIP3   OH2 6116   3.398   4.962   0.052 -0.3021  0.1595 -0.0630
 2051TIP3    H1 6117   3.382   4.875   0.087 -1.6723  0.8190  1.0413
 2051TIP3    H2 6118   3.477   4.953  -0.001  0.9296 -1.2517  1.9015
 2052TIP3   OH2 6119   5.968   0.873   1.953 -0.1142  0.2666  0.1316
 2052TIP3    H1 6120   6.062   0.863   1.965  0.0898  1.3497 -0.4403
 2052TIP3    H2 6121   5.935   0.783   1.942  1.0881 -0.0413 -1.2581
 2053TIP3   OH2 6122   2.540   5.640   1.837  0.4561  0.3231 -0.6784
 2053TIP3    H1 6123   2.454   5.598   1.831  0.5380  0.3246 -2.3976
 2053TIP3    H2 6124   2.538   5.687   1.920 -1.1168  0.1221 -0.5677
 2054TIP3   OH2 6125   6.218   6.589   0.005 -0.4638 -0.5529  0.0370
 2054TIP3    H1 6126   6.176   6.541  -0.066 -1.7095 -1.1357  1.1230
 2054TIP3    H2 6127   6.203   6.535   0.083  1.2033 -0.1316  0.7034
 2055TIP3   OH2 6128   4.696   1.390   4.350 -0.1642  0.1091  0.1167
 2055TIP3    H1 6129   4.707   1.297   4.367 -1.7250 -0.0355  0.4974
 2055TIP3    H2 6130   4.719   1.401   4.258  1.6006 -0.3366  0.4576
 2056TIP3   OH2 6131   6.362   6.043   1.376 -0.7204  0.5737 -0.2835
 2056TIP3    H1 6132   6.457   6.044   1.389 -0.7262 -0.4074 -0.0595
 2056TIP3    H2 6133   6.342   6.128   1.337  0.0248  1.4527  1.1792
 2057TIP3   OH2 6134   5.865   2.950   3.497  0.2800 -0.3611 -0.0077
 2057TIP3    H1 6135   5.786   2.895   3.504  0.1775 -0.2649 -0.3628
 2057TIP3    H2 6136   5.915   2.910   3.425 -0.2703  0.5790 -0.9486
 2058TIP3   OH2 6137   4.372   1.762   3.268  0.3858 -0.3314 -0.6680
 2058TIP3    H1 6138   4.441   1.825   3.245  1.0351 -0.8482 -0.1599
 2058TIP3    H2 6139   4.413   1.702   3.330 -0.3756 -0.9639 -0.7548
 2059TIP3   OH2 6140   4.140   1.153   2.990  0.5828 -0.0944  0.5667
 2059TIP3    H1 6141   4.140   1.080   2.927  1.8683  0.2617  0.1261
 2059TIP3    H2 6142   4.181   1.225   2.942 -0.1643  0.7612  1.1880
 2060TIP3   OH2 6143   4.024   0.804   4.905 -0.4070  0.2748 -0.0651
 2060TIP3    H1 6144   4.111   0.815   4.942 -0.0919 -1.3895 -0.2310
 2060TIP3    H2 6145   4.024   0.715   4.870 -2.1405  0.2795 -0.1597
 2061TIP3   OH2 6146   6.334   0.148   5.776  0.1949 -0.4216  0.0418
 2061TIP3    H1 6147   6.390   0.075   5.803 -0.9956 -0.6699  2.1067
 2061TIP3    H2 6148   6.341   0.210   5.849 -0.1998  0.7207 -0.8770
 2062TIP3   OH2 6149   1.980   1.524   0.682  0.0078 -0.3639 -0.1736
 2062TIP3    H1 6150   1.965   1.614   0.653  0.0101 -0.3276 -0.0621
 2062TIP3    H2 6151   2.068   1.504   0.653  0.1575 -0.1907  0.1550
 2063TIP3   OH2 6152   1.651   3.607   4.584  0.3400 -0.4432 -0.1342
 2063TIP3    H1 6153   1.695   3.596   4.669 -1.5872 -2.0476  0.7302
 2063TIP3    H2 6154   1.618   3.520   4.562 -1.2850  0.4249 -1.3324
 2064TIP3   OH2 6155   4.347   6.168   2.358 -0.1796 -0.0484  0.1187
 2064TIP3    H1 6156   4.287   6.154   2.284 -0.2807  2.3073 -0.3399
 2064TIP3    H2 6157   4.338   6.261   2.378  0.5478 -0.4350  2.5327
 2065TIP3   OH2 6158   3.393   3.088   1.263  0.3906  0.1537 -0.5010
 2065TIP3    H1 6159   3.386   2.997   1.293  0.8153  0.4832  0.6472
 2065TIP3    H2 6160   3.479   3.117   1.295 -0.6321  1.6274  1.0737
 2066TIP3   OH2 6161   6.880   0.617   2.334 -0.0329 -0.2053  0.5654
 2066TIP3    H1 6162   6.869   0.607   2.239  1.3821  0.8558  0.2506
 2066TIP3    H2 6163   6.869   0.528   2.368 -1.3950 -0.4729 -0.4874
 2067TIP3   OH2 6164   4.342   0.081   5.809  0.3759  0.1251 -0.1840
 2067TIP3    H1 6165   4.366   0.067   5.717 -2.4418 -0.3431 -0.9507
 2067TIP3    H2 6166   4.353   0.176   5.823  1.0601  0.1600 -0.9223
 2068TIP3   OH2 6167   0.605   3.930   2.795 -0.0141  0.2445  0.2189
 2068TIP3    H1 6168   0.517   3.950   2.827 -1.3940 -1.3113 -2.2716
 2068TIP3    H2 6169   0.605   3.962   2.705  1.9943  0.2079  0.1724
 2069TIP3   OH2 6170   5.849   2.229   1.832  0.1733  0.0132 -0.3078
 2069TIP3    H1 6171   5.876   2.308   1.879 -0.3506  0.5702 -0.9227
 2069TIP3    H2 6172   5.804   2.261   1.754 -1.2501 -0.8888  0.1091
 2070TIP3   OH2 6173   2.726   3.505   3.528 -0.1952  0.2803  0.0750
 2070TIP3    H1 6174   2.691   3.423   3.562 -0.7569  0.0053 -1.1281
 2070TIP3    H2 6175   2.748   3.555   3.607 -0.4573 -0.7506  0.8340
 2071TIP3   OH2 6176   0.269   1.080   4.471 -0.2312 -0.6982 -0.3123
 2071TIP3    H1 6177   0.208   1.084   4.544  0.4550 -0.9377  0.2941
 2071TIP3    H2 6178   0.351   1.117   4.507  0.1143 -0.8263 -0.9549
 2072TIP3   OH2 6179   3.884   4.044   1.942  0.3704  0.2694 -0.4663
 2072TIP3    H1 6180   3.838   4.025   1.860  0.0145 -1.4551  0.0972
 2072TIP3    H2 6181   3.926   4.129   1.927 -1.4015  0.9881 -1.6917
 2073TIP3   OH2 6182   3.022   1.088   1.441 -0.4514 -0.2900 -0.6872
 2073TIP3    H1 6183   3.102   1.123   1.480 -1.4238 -0.1195  1.3281
 2073TIP3    H2 6184   3.030   0.993   1.449 -0.1888 -0.3010 -1.0673
 2074TIP3   OH2 6185   5.369   6.142   1.980  0.5264  0.0097 -0.3733
 2074TIP3    H1 6186   5.394   6.176   2.065 -1.4444  1.0048 -0.1181
 2074TIP3    H2 6187   5.401   6.207   1.917 -0.4763  0.7593 -0.1350
 2075TIP3   OH2 6188   4.968   6.626   1.120 -0.1473 -0.0631 -0.1139
 2075TIP3    H1 6189   4.883   6.646   1.081 -0.3104 -0.8488 -0.1812
 2075TIP3    H2 6190   5.011   6.571   1.054  0.2808  0.0593  0.0635
 2076TIP3   OH2 6191   0.614   5.567   0.482  0.5390  0.6749  0.1617
 2076TIP3    H1 6192   0.571   5.652   0.480  0.6971  0.7496 -0.5674
 2076TIP3    H2 6193   0.686   5.575   0.418  0.5995  0.0222  0.1351
 2077TIP3   OH2 6194   3.535   0.115   2.995 -0.5353  0.2189  0.1181
 2077TIP3    H1 6195   3.454   0.078   2.960  0.1042 -1.0712 -0.0463
 2077TIP3    H2 6196   3.595   0.117   2.920 -0.1656  0.4374  0.4127
 2078TIP3   OH2 6197   2.805   1.745   2.083  0.0974 -0.2044  0.0916
 2078TIP3    H1 6198   2.732   1.807   2.080  1.6467  1.6954 -0.8170
 2078TIP3    H2 6199   2.784   1.680   2.016 -0.5528  0.5351 -0.4391
 2079TIP3   OH2 6200   1.793   0.536   2.680 -0.5965  0.5378 -0.0578
 2079TIP3    H1 6201   1.846   0.462   2.708  0.3293  0.8892 -0.8113
 2079TIP3    H2 6202   1.727   0.547   2.749 -0.1204 -0.3469  0.5511
 2080TIP3   OH2 6203   1.582   0.125   4.920  0.5664  0.3117  0.0119
 2080TIP3    H1 6204   1.519   0.055   4.905  1.0772  0.1811 -1.6373
 2080TIP3    H2 6205   1.614   0.109   5.009 -1.5260  0.2545  0.8185
 2081TIP3   OH2 6206   4.545   0.362   4.334  0.3650 -0.0739  0.1365
 2081TIP3    H1 6207   4.564   0.287   4.391  1.0767 -0.9132 -1.1416
 2081TIP3    H2 6208   4.612   0.357   4.266 -0.0859  1.2610 -0.4237
 2082TIP3   OH2 6209   4.303   3.217   3.317  0.0657  0.5113 -0.4440
 2082TIP3    H1 6210   4.221   3.184   3.281  0.5558  0.4926 -1.5791
 2082TIP3    H2 6211   4.323   3.157   3.389  0.5816 -1.2852 -2.0093
 2083TIP3   OH2 6212   6.314   0.813   5.859  0.3057 -0.7515  0.2162
 2083TIP3    H1 6213   6.331   0.743   5.797  2.2462 -0.4244  0.3207
 2083TIP3    H2 6214   6.326   0.772   5.945  1.6769 -0.2659  0.2729
 2084TIP3   OH2 6215   4.784   6.272   3.225  0.3411  0.4727 -0.8482
 2084TIP3    H1 6216   4.827   6.193   3.191  0.3328 -0.0493  0.3021
 2084TIP3    H2 6217   4.765   6.324   3.148  2.2669  0.3248 -1.4866
 2085TIP3   OH2 6218   4.921   4.297   2.150 -0.3082 -0.0006  0.6684
 2085TIP3    H1 6219   4.957   4.213   2.123  0.1567 -0.0064  1.2707
 2085TIP3    H2 6220   4.908   4.288   2.245 -1.0055  0.3328  0.6139
 2086TIP3   OH2 6221   4.586   1.156   5.534  0.2588  0.1644  0.2577
 2086TIP3    H1 6222   4.521   1.092   5.563 -0.9268  1.2350  0.0611
 2086TIP3    H2 6223   4.569   1.167   5.440 -0.9589  2.2474  0.6580
 2087TIP3   OH2 6224   6.201   2.072   1.953 -0.0468  0.4348  0.0778
 2087TIP3    H1 6225   6.296   2.060   1.962 -0.4093 -1.8708  1.9570
 2087TIP3    H2 6226   6.178   2.132   2.024 -0.0860  0.3740  0.1167
 2088TIP3   OH2 6227   0.321   5.461   3.226  0.3076 -0.0099 -0.1778
 2088TIP3    H1 6228   0.377   5.386   3.247  1.3834  0.0505 -2.4942
 2088TIP3    H2 6229   0.381   5.529   3.197 -0.8587 -0.0958 -3.2344
 2089TIP3   OH2 6230   5.719   2.648   2.348 -0.3969  0.0346  0.1249
 2089TIP3    H1 6231   5.649   2.593   2.382 -1.3977  1.7757  1.0147
 2089TIP3    H2 6232   5.761   2.685   2.425 -0.1406  0.9934 -0.4559
 2090TIP3   OH2 6233   3.222   1.915   3.029  0.1576  0.0755  0.0233
 2090TIP3    H1 6234   3.264   1.838   3.068  2.2290  0.8971 -0.4620
 2090TIP3    H2 6235   3.213   1.893   2.936 -0.2893 -0.0151  0.0884
 2091TIP3   OH2 6236   1.809   3.567   4.840 -0.4876 -0.1919 -0.6031
 2091TIP3    H1 6237   1.900   3.543   4.820 -0.5653 -0.7293 -0.3331
 2091TIP3    H2 6238   1.788   3.515   4.918 -0.6101  0.8875  0.1028
 2092TIP3   OH2 6239   2.512   1.041   1.872  0.2186  0.0748 -0.2416
 2092TIP3    H1 6240   2.537   1.028   1.781 -1.6062  0.0370 -0.7568
 2092TIP3    H2 6241   2.425   1.003   1.880  0.8609 -1.1420  1.8662
 2093TIP3   OH2 6242   1.594   6.264   2.332  0.2518  0.2581  0.2155
 2093TIP3    H1 6243   1.545   6.298   2.406 -0.5991 -0.4228 -0.0183
 2093TIP3    H2 6244   1.533   6.271   2.258  0.5854 -0.3753 -0.1264
 2094TIP3   OH2 6245   6.180   1.040   3.211 -0.3224 -0.3552  0.6596
 2094TIP3    H1 6246   6.221   0.967   3.167  0.4772  1.3576 -1.6295
 2094TIP3    H2 6247   6.240   1.114   3.198 -1.8071  1.0862  1.5128
 2095TIP3   OH2 6248   1.737   1.512   2.555  0.8231  0.1839  0.1906
 2095TIP3    H1 6249   1.742   1.592   2.503 -1.6546  0.9298  0.9910
 2095TIP3    H2 6250   1.686   1.536   2.632  2.8393 -1.3456  2.1583
 2096TIP3   OH2 6251   5.440   3.387   5.328 -0.1361 -1.1124  0.0353
 2096TIP3    H1 6252   5.440   3.298   5.363 -0.3793 -0.9790  0.3824
 2096TIP3    H2 6253   5.358   3.393   5.278 -1.6402 -0.1619  2.4421
 2097TIP3   OH2 6254   2.025   0.613   3.106 -0.3880  0.5529 -0.2425
 2097TIP3    H1 6255   2.097   0.596   3.166 -1.6001 -0.5895  0.9752
 2097TIP3    H2 6256   2.045   0.562   3.028 -0.7464 -1.2836  0.8163
 2098TIP3   OH2 6257   2.593   5.845   0.374  0.4408 -0.0905  0.6685
 2098TIP3    H1 6258   2.584   5.750   0.362 -1.0739  0.2790 -1.9382
 2098TIP3    H2 6259   2.513   5.870   0.421 -0.3901  0.1224 -0.7763
 2099TIP3   OH2 6260   2.403   0.851   1.468 -0.2651 -0.3433  0.2731
 2099TIP3    H1 6261   2.355   0.816   1.543  1.0106 -0.2011  1.1802
 2099TIP3    H2 6262   2.490   0.811   1.474  0.2300  0.5859 -0.4471
 2100TIP3   OH2 6263   6.316   4.064   0.720  0.1468  0.0982  0.6304
 2100TIP3    H1 6264   6.274   4.107   0.794  2.2428  1.1225  1.3012
 2100TIP3    H2 6265   6.289   4.116   0.644  0.1611  0.6979  1.0339
 2101TIP3   OH2 6266   6.918   3.354   2.499 -0.0816 -0.2085  0.0692
 2101TIP3    H1 6267   6.882   3.331   2.413 -0.7275  0.5392  0.1246
 2101TIP3    H2 6268   6.957   3.441   2.485  0.5381 -0.4425  0.3346
 2102TIP3   OH2 6269   4.257   2.710   1.597  0.1407 -0.1916  0.5672
 2102TIP3    H1 6270   4.335   2.686   1.646  2.2608  0.7175 -2.1127
 2102TIP3    H2 6271   4.253   2.806   1.603 -0.2145 -0.1591 -0.0649
 2103TIP3   OH2 6272   5.348   2.915   2.028 -0.5537 -0.2072 -0.4566
 2103TIP3    H1 6273   5.427   2.909   2.082 -0.0884 -0.0975 -1.1067
 2103TIP3    H2 6274   5.379   2.953   1.945 -1.5314  1.0749 -0.2532
 2104TIP3   OH2 6275   5.880   5.922   2.219 -0.7853  0.1127 -0.1983
 2104TIP3    H1 6276   5.914   5.950   2.303 -1.4723 -1.4784  0.6549
 2104TIP3    H2 6277   5.862   5.829   2.230 -3.3486  0.4030 -1.2835
 2105TIP3   OH2 6278   5.704   1.132   3.767 -0.1660  0.4381  0.3096
 2105TIP3    H1 6279   5.715   1.226   3.751  0.8076  0.3457  0.3990
 2105TIP3    H2 6280   5.655   1.127   3.849 -0.0660  0.8689  0.3960
 2106TIP3   OH2 6281   4.446   0.506   0.388  0.2218  1.0203  0.7921
 2106TIP3    H1 6282   4.505   0.563   0.338  0.0712  1.9558  1.6622
 2106TIP3    H2 6283   4.485   0.418   0.380  0.9000  1.3702  0.1139
 2107TIP3   OH2 6284   3.459   5.530   4.682 -0.4759  0.2296 -0.1469
 2107TIP3    H1 6285   3.543   5.492   4.655 -0.2826 -0.1806  0.9798
 2107TIP3    H2 6286   3.473   5.557   4.773 -1.3099  0.9456 -0.2207
 2108TIP3   OH2 6287   1.411   0.473   1.804 -0.4998  0.2418  0.1055
 2108TIP3    H1 6288   1.333   0.525   1.824 -1.1947 -0.7397  0.0496
 2108TIP3    H2 6289   1.479   0.538   1.785 -1.1199  1.1276  0.8117
 2109TIP3   OH2 6290   1.223   0.460   1.216  0.0568 -0.1010 -0.6588
 2109TIP3    H1 6291   1.304   0.497   1.250 -0.3495  1.7561 -1.5630
 2109TIP3    H2 6292   1.240   0.448   1.122 -0.7590  0.4927 -0.8913
 2110TIP3   OH2 6293   0.159   5.198   4.967  0.1642  0.4585 -0.7987
 2110TIP3    H1 6294   0.128   5.220   4.879 -3.2304 -1.6442 -0.3027
 2110TIP3    H2 6295   0.208   5.116   4.956  0.4402  0.6245 -0.8177
 2111TIP3   OH2 6296   6.642   6.589   2.923  0.0352 -0.2796  0.3282
 2111TIP3    H1 6297   6.707   6.526   2.892  0.8426  0.8030 -0.2751
 2111TIP3    H2 6298   6.632   6.570   3.016  0.1602 -1.3701  0.1336
 2112TIP3   OH2 6299   1.634   4.150   5.202  0.0821  0.1320 -0.7279
 2112TIP3    H1 6300   1.669   4.172   5.116  0.9225 -0.9529 -0.6939
 2112TIP3    H2 6301   1.711   4.124   5.253 -0.6297 -1.1745 -0.2802
 2113TIP3   OH2 6302   5.587   5.247   3.771  0.0989  0.2667 -0.2004
 2113TIP3    H1 6303   5.529   5.323   3.773 -1.9888 -1.2361  0.5861
 2113TIP3    H2 6304   5.528   5.172   3.784  2.2936 -1.3465  1.1529
 2114TIP3   OH2 6305   6.177   1.508   4.457  0.0032  0.3455  0.6207
 2114TIP3    H1 6306   6.237   1.570   4.496  2.6163 -0.5525 -1.6981
 2114TIP3    H2 6307   6.141   1.460   4.532  2.6662  0.5066  2.1302
 2115TIP3   OH2 6308   6.911   2.814   0.169  0.2671  0.2863 -0.3442
 2115TIP3    H1 6309   6.889   2.887   0.111 -0.1369 -0.0911 -0.6699
 2115TIP3    H2 6310   6.912   2.852   0.256 -0.2799  0.6056 -0.4760
 2116TIP3   OH2 6311   0.999   2.935   4.292 -0.1037 -0.5548  0.4041
 2116TIP3    H1 6312   1.052   2.946   4.213 -0.1376  0.1572  0.4740
 2116TIP3    H2 6313   0.918   2.982   4.272  0.2485  0.4216  1.2019
 2117TIP3   OH2 6314   0.525   4.703   4.110  0.6413 -0.0391  0.0809
 2117TIP3    H1 6315   0.514   4.647   4.187  1.9283 -0.3136  0.0766
 2117TIP3    H2 6316   0.579   4.651   4.050  0.5865  0.6152 -0.5424
 2118TIP3   OH2 6317   1.837   2.185   3.427 -0.1063  0.5001  0.1759
 2118TIP3    H1 6318   1.860   2.278   3.424  1.7899  0.0565 -2.2105
 2118TIP3    H2 6319   1.895   2.144   3.363 -0.9242 -2.3482  1.1181
 2119TIP3   OH2 6320   7.092   4.293   0.768  0.4864  0.3535 -0.1499
 2119TIP3    H1 6321   7.099   4.208   0.725 -1.9137  0.9535 -1.9863
 2119TIP3    H2 6322   7.022   4.282   0.832  0.4425  0.8211 -0.1142
 2120TIP3   OH2 6323   2.718   4.935   1.545  0.1028  0.3426 -0.3397
 2120TIP3    H1 6324   2.674   5.018   1.527  0.3211  0.6708  0.5780
 2120TIP3    H2 6325   2.760   4.912   1.462 -0.0197  1.1139 -0.6306
 2121TIP3   OH2 6326   6.972   3.176   3.024  0.0560 -0.0743  0.1407
 2121TIP3    H1 6327   7.011   3.220   2.949  0.2663  0.1852  0.4000
 2121TIP3    H2 6328   6.882   3.210   3.027 -0.5813 -1.5291 -1.1440
 2122TIP3   OH2 6329   4.670   3.467   3.396 -0.5975  0.1471 -0.7338
 2122TIP3    H1 6330   4.598   3.515   3.437 -1.2461 -0.8587 -0.6483
 2122TIP3    H2 6331   4.722   3.435   3.470 -1.7288 -1.6081 -0.6396
 2123TIP3   OH2 6332   7.062   2.177   3.550  0.2505 -0.7684 -0.0006
 2123TIP3    H1 6333   6.997   2.111   3.527 -1.8014  1.6900 -1.9503
 2123TIP3    H2 6334   7.134   2.164   3.487 -0.7790 -0.3614 -1.3150
 2124TIP3   OH2 6335   2.245   4.597   3.414 -0.3175 -0.1097 -0.7965
 2124TIP3    H1 6336   2.336   4.606   3.385 -1.0167 -0.3694 -3.3923
 2124TIP3    H2 6337   2.208   4.531   3.354 -2.1503 -0.1882  0.3570
 2125TIP3   OH2 6338   5.037   3.130   3.375 -0.0408 -0.6197  0.2609
 2125TIP3    H1 6339   5.100   3.203   3.377  1.0248 -1.4922 -0.1360
 2125TIP3    H2 6340   4.973   3.154   3.309  0.3166 -0.0524  0.1183
 2126TIP3   OH2 6341   2.531   6.011   1.959  0.0246 -0.3097  0.3096
 2126TIP3    H1 6342   2.510   6.091   2.008 -0.1686 -0.6829  0.8530
 2126TIP3    H2 6343   2.611   6.032   1.911 -0.1569  0.2863  0.2665
 2127TIP3   OH2 6344   2.264   0.943   3.569 -0.2243 -0.3981  0.2514
 2127TIP3    H1 6345   2.271   0.909   3.658  1.3001 -0.5850  0.0934
 2127TIP3    H2 6346   2.322   0.886   3.518 -0.8924 -0.1377 -0.8170
 2128TIP3   OH2 6347   2.890   4.624   2.930  0.2576 -0.5570 -0.0798
 2128TIP3    H1 6348   2.809   4.583   2.899 -0.7870  2.0754 -1.1093
 2128TIP3    H2 6349   2.912   4.688   2.863  0.9916  1.5434  2.0314
 2129TIP3   OH2 6350   4.862   4.710   0.697 -0.2673  0.0075  0.6439
 2129TIP3    H1 6351   4.923   4.654   0.647 -1.2793  0.7023 -1.4638
 2129TIP3    H2 6352   4.907   4.794   0.704 -0.9494  0.5646 -1.0368
 2130TIP3   OH2 6353   6.088   0.593   3.524 -0.2406 -0.0327  0.0769
 2130TIP3    H1 6354   6.050   0.680   3.511 -0.9062 -0.3609 -0.2223
 2130TIP3    H2 6355   6.182   0.607   3.517 -0.3264  0.7201  0.3711
 2131TIP3   OH2 6356   0.963   5.408   4.861 -0.1484  0.2024 -0.2234
 2131TIP3    H1 6357   0.988   5.375   4.947  1.1467 -0.7665 -0.9397
 2131TIP3    H2 6358   0.982   5.502   4.865 -0.5729  0.2561  0.7033
 2132TIP3   OH2 6359   2.466   1.065   2.241  0.0668 -0.4079  0.4785
 2132TIP3    H1 6360   2.468   1.059   2.337 -0.3849 -1.7165  0.4267
 2132TIP3    H2 6361   2.479   1.158   2.223  3.2139 -0.4780  1.7047
 2133TIP3   OH2 6362   4.484   4.051   5.734  0.0313 -0.3913 -0.3370
 2133TIP3    H1 6363   4.474   4.036   5.640 -0.1506 -0.0061 -0.3802
 2133TIP3    H2 6364   4.410   4.006   5.774  0.0669 -0.4910 -0.3848
 2134TIP3   OH2 6365   1.891   5.983   2.601  0.3674  0.3287  0.2987
 2134TIP3    H1 6366   1.812   5.959   2.649  1.4865 -1.2159  1.4449
 2134TIP3    H2 6367   1.888   5.930   2.521 -0.4830  1.4011 -0.4049
 2135TIP3   OH2 6368   3.237   5.559   1.479  0.2879 -0.2509 -0.1690
 2135TIP3    H1 6369   3.277   5.640   1.447  0.7262 -0.3497  0.1073
 2135TIP3    H2 6370   3.271   5.490   1.421  1.3032 -0.4691  0.6421
 2136TIP3   OH2 6371   0.221   6.729   4.426  0.0035  0.3282 -0.0800
 2136TIP3    H1 6372   0.316   6.718   4.423 -0.0800 -0.6851  0.4861
 2136TIP3    H2 6373   0.207   6.821   4.405  1.1336  0.5804  0.1895
 2137TIP3   OH2 6374   0.600   4.926   1.655  0.1094  0.2539  1.0231
 2137TIP3    H1 6375   0.692   4.951   1.649  0.2105 -0.1144  0.9947
 2137TIP3    H2 6376   0.603   4.834   1.683 -0.2552  0.3941  1.5355
 2138TIP3   OH2 6377   5.043   0.446   0.874  0.2011 -0.0120  0.8643
 2138TIP3    H1 6378   4.958   0.405   0.860  0.1440  0.2466  0.4546
 2138TIP3    H2 6379   5.097   0.417   0.801  0.2326  0.4470  0.7019
 2139TIP3   OH2 6380   2.293   3.472   3.151 -0.3759 -0.5158 -0.4469
 2139TIP3    H1 6381   2.282   3.378   3.158 -0.6730 -0.5282 -1.0661
 2139TIP3    H2 6382   2.380   3.489   3.189 -0.3872 -1.0123 -0.1971
 2140TIP3   OH2 6383   3.936   3.568   5.622 -0.4485  0.2058  0.2792
 2140TIP3    H1 6384   3.998   3.603   5.557  0.6597  2.1553  2.2339
 2140TIP3    H2 6385   3.896   3.646   5.660 -1.1342 -0.8759  1.8538
 2141TIP3   OH2 6386   5.624   5.189   4.541  0.0881 -0.1098  1.1431
 2141TIP3    H1 6387   5.640   5.189   4.635 -0.4334 -0.7811  1.2362
 2141TIP3    H2 6388   5.710   5.200   4.502  0.4851 -1.1895  1.6769
 2142TIP3   OH2 6389   6.712   6.495   3.548  0.3374 -0.4571  0.2853
 2142TIP3    H1 6390   6.689   6.408   3.581 -0.4398 -0.1017  0.6968
 2142TIP3    H2 6391   6.696   6.489   3.453 -1.2141 -0.3048  0.5196
 2143TIP3   OH2 6392   0.522   0.868   0.984 -0.1144 -0.4392 -0.3420
 2143TIP3    H1 6393   0.603   0.825   1.009  0.5213 -0.0601 -1.6697
 2143TIP3    H2 6394   0.453   0.807   1.011  0.3846  0.3437  3.1429
 2144TIP3   OH2 6395   4.776   4.991   1.552  0.2252  0.0900  0.5537
 2144TIP3    H1 6396   4.848   5.050   1.576  0.4001  0.5675 -1.0267
 2144TIP3    H2 6397   4.819   4.910   1.524  0.1445  0.2288  0.0095
 2145TIP3   OH2 6398   5.120   4.858   4.002 -0.2795 -0.2355 -0.0432
 2145TIP3    H1 6399   5.212   4.843   3.981 -0.4214 -0.9686 -0.1730
 2145TIP3    H2 6400   5.087   4.911   3.929  0.3926  1.3115  0.7417
 2146TIP3   OH2 6401   6.662   5.654   0.246  0.0067 -0.1164  0.3997
 2146TIP3    H1 6402   6.693   5.572   0.208 -0.1332 -0.8375  1.7734
 2146TIP3    H2 6403   6.604   5.691   0.180  0.8843 -0.6071 -0.6623
 2147TIP3   OH2 6404   0.962   4.902   5.124  0.0821 -0.5419  0.1215
 2147TIP3    H1 6405   1.040   4.847   5.135  1.2702  0.9876 -0.3281
 2147TIP3    H2 6406   0.899   4.866   5.186  1.9930 -0.3092  2.3462
 2148TIP3   OH2 6407   7.207   0.218   5.027 -0.0268 -0.6399 -0.1817
 2148TIP3    H1 6408   7.154   0.148   5.065  0.2691 -1.1781 -0.7362
 2148TIP3    H2 6409   7.169   0.299   5.062 -1.3835 -0.9925 -0.7620
 2149TIP3   OH2 6410   3.022   0.692   2.406  0.4075 -0.2874  0.3021
 2149TIP3    H1 6411   3.047   0.663   2.319  0.5654  1.9830 -0.4668
 2149TIP3    H2 6412   3.055   0.781   2.413 -1.3895  0.3381  1.8926
 2150TIP3   OH2 6413   6.982   2.620   1.576 -0.4689 -0.1705 -0.0902
 2150TIP3    H1 6414   6.901   2.670   1.574 -0.7762 -0.6798 -1.3645
 2150TIP3    H2 6415   6.980   2.567   1.496  1.3006  0.0979 -0.3587
 2151TIP3   OH2 6416   0.446   0.629   3.949  0.2151 -0.2927  0.1621
 2151TIP3    H1 6417   0.386   0.699   3.975 -0.6404 -1.0344  0.2532
 2151TIP3    H2 6418   0.392   0.550   3.951  2.0127 -1.7103  4.1125
 2152TIP3   OH2 6419   2.141   3.373   0.336  0.1669  0.1633 -0.8960
 2152TIP3    H1 6420   2.225   3.341   0.368  0.0980  0.5344 -0.3175
 2152TIP3    H2 6421   2.083   3.297   0.339  0.5104 -0.1203 -1.4067
 2153TIP3   OH2 6422   2.683   5.517   2.915 -0.2151  0.2924 -0.0598
 2153TIP3    H1 6423   2.740   5.440   2.906 -0.5247  0.1603 -1.0925
 2153TIP3    H2 6424   2.733   5.579   2.967 -0.3524 -0.9808  1.6486
 2154TIP3   OH2 6425   1.172   2.044   0.511  0.1752 -0.3771 -0.1749
 2154TIP3    H1 6426   1.234   2.097   0.462  1.7582  0.5475  2.5787
 2154TIP3    H2 6427   1.222   2.014   0.588 -2.0607 -1.8401  0.8079
 2155TIP3   OH2 6428   6.859   3.005   2.762  0.1297  0.5417 -0.0666
 2155TIP3    H1 6429   6.774   3.041   2.737  0.5818  2.2602  0.7435
 2155TIP3    H2 6430   6.845   2.968   2.849  0.1491  0.5987 -0.0391
 2156TIP3   OH2 6431   7.019   3.796   5.404  0.6348  0.4153  0.1093
 2156TIP3    H1 6432   6.960   3.740   5.353 -0.0724  1.3812 -0.1727
 2156TIP3    H2 6433   7.094   3.741   5.423  0.8249 -0.0690 -1.8009
 2157TIP3   OH2 6434   2.493   1.197   5.854  0.5683  0.3377 -0.2672
 2157TIP3    H1 6435   2.483   1.117   5.803  0.8977  0.0900  0.0498
 2157TIP3    H2 6436   2.433   1.185   5.928  0.4681  0.4743 -0.3254
 2158TIP3   OH2 6437   5.443   3.161   3.608  0.7306 -1.1634  0.0150
 2158TIP3    H1 6438   5.419   3.247   3.573  0.2105 -0.9997  0.7466
 2158TIP3    H2 6439   5.516   3.132   3.552  2.3075  0.6503  0.9823
 2159TIP3   OH2 6440   6.833   2.787   3.904  0.3465  0.1869  0.1937
 2159TIP3    H1 6441   6.764   2.720   3.905  1.3236 -0.8878 -1.0753
 2159TIP3    H2 6442   6.914   2.738   3.914  0.9219  1.5428  2.9462
 2160TIP3   OH2 6443   0.528   0.062   4.109 -0.6729 -0.3547 -0.1849
 2160TIP3    H1 6444   0.443   0.036   4.073 -0.1650 -0.8875 -1.0425
 2160TIP3    H2 6445   0.556   0.137   4.056  0.2697 -1.4021 -1.2315
 2161TIP3   OH2 6446   3.586   5.353   3.602 -0.0479 -0.3500 -0.1060
 2161TIP3    H1 6447   3.567   5.259   3.598  1.7436 -0.7323 -0.6714
 2161TIP3    H2 6448   3.671   5.358   3.645 -1.0227  1.1956  1.7891
 2162TIP3   OH2 6449   0.632   3.311   0.128  0.4002  0.1873  0.0443
 2162TIP3    H1 6450   0.677   3.387   0.165  0.0854 -0.1785  1.1956
 2162TIP3    H2 6451   0.540   3.324   0.151  0.3486 -0.5478  0.2659
 2163TIP3   OH2 6452   4.325   5.591   5.577  0.4688 -0.1339 -0.1527
 2163TIP3    H1 6453   4.247   5.565   5.626  1.1025 -1.2384  0.2990
 2163TIP3    H2 6454   4.334   5.523   5.509  1.8526 -0.8760  0.7168
 2164TIP3   OH2 6455   1.473  -0.005   2.594 -0.6022 -0.1217  0.3009
 2164TIP3    H1 6456   1.545  -0.025   2.654  0.6734  0.2747 -1.0524
 2164TIP3    H2 6457   1.470   0.091   2.591 -0.0433 -0.1241 -0.9379
 2165TIP3   OH2 6458   6.918   2.750   5.669  0.0869  0.2644  0.3153
 2165TIP3    H1 6459   6.950   2.766   5.581  0.4963  0.2405  0.4592
 2165TIP3    H2 6460   6.959   2.668   5.696  1.3268  1.1302  1.1708
 2166TIP3   OH2 6461   5.173   3.056   0.137  0.2493 -0.2640  0.3994
 2166TIP3    H1 6462   5.252   3.004   0.147 -0.4678 -1.0171  2.9135
 2166TIP3    H2 6463   5.203   3.147   0.133  1.3671 -0.6660 -1.7464
 2167TIP3   OH2 6464   7.075   5.613   3.066 -0.0352  0.3426  0.4530
 2167TIP3    H1 6465   7.057   5.707   3.063  0.9038  0.6001  1.7950
 2167TIP3    H2 6466   7.109   5.592   2.979  1.2217  1.5945  0.5989
 2168TIP3   OH2 6467   6.131   2.847   5.101 -0.5496  0.2290 -0.6020
 2168TIP3    H1 6468   6.138   2.774   5.038  1.0039  0.6779 -1.0002
 2168TIP3    H2 6469   6.160   2.923   5.051  0.3974  0.6511  0.5566
 2169TIP3   OH2 6470   4.524   1.655   0.922 -1.0863  0.3437  0.3025
 2169TIP3    H1 6471   4.502   1.681   1.012  1.5747 -0.3818  1.2459
 2169TIP3    H2 6472   4.458   1.589   0.900 -1.8994  0.6696  1.6420
 2170TIP3   OH2 6473   5.355   4.594   1.648 -0.0078  0.1833  0.2795
 2170TIP3    H1 6474   5.386   4.679   1.680  2.0195 -0.9053  1.4065
 2170TIP3    H2 6475   5.434   4.549   1.618 -0.9070 -1.6113  0.4494
 2171TIP3   OH2 6476   1.055   2.934   1.312 -0.3380 -0.0762  0.0699
 2171TIP3    H1 6477   1.101   2.852   1.331 -0.3259  0.1344  0.9971
 2171TIP3    H2 6478   1.061   2.944   1.217  2.7934  0.7016  0.2667
 2172TIP3   OH2 6479   4.082   6.758   2.480 -0.2201  0.0017  0.0916
 2172TIP3    H1 6480   4.069   6.754   2.385  2.9346 -0.7850 -0.4164
 2172TIP3    H2 6481   4.053   6.673   2.512 -1.1358  0.2068 -0.1596
 2173TIP3   OH2 6482   4.870   0.948   5.316  0.2027 -0.3748  0.1265
 2173TIP3    H1 6483   4.941   0.963   5.378 -0.4633 -1.5667  1.2140
 2173TIP3    H2 6484   4.907   0.888   5.251  0.7250  0.4382 -0.3495
 2174TIP3   OH2 6485   1.748   0.019   0.157  0.1508 -0.5431 -0.7394
 2174TIP3    H1 6486   1.713   0.105   0.182  0.1864 -0.4162 -1.1292
 2174TIP3    H2 6487   1.679  -0.021   0.105  0.3036 -0.5800 -0.9135
 2175TIP3   OH2 6488   1.830   3.108   0.846  0.4106 -0.3625  0.2180
 2175TIP3    H1 6489   1.885   3.183   0.871  0.8383 -0.5682 -0.0934
 2175TIP3    H2 6490   1.848   3.042   0.912  2.0598 -1.1565 -0.9763
 2176TIP3   OH2 6491   4.766   6.489   3.544  0.3399  0.2794 -0.4443
 2176TIP3    H1 6492   4.786   6.507   3.636 -1.8921 -1.5894  0.5330
 2176TIP3    H2 6493   4.828   6.420   3.519  0.2655  0.0502  0.0021
 2177TIP3   OH2 6494   4.670   0.693   4.280 -0.4935  0.3049 -0.1805
 2177TIP3    H1 6495   4.603   0.635   4.315  1.9785 -1.3783  2.2195
 2177TIP3    H2 6496   4.666   0.771   4.336 -0.6631  0.3537 -0.2612
 2178TIP3   OH2 6497   1.664   2.393   0.176  0.2776 -0.4792 -0.4006
 2178TIP3    H1 6498   1.724   2.464   0.150 -0.3068  0.2414  0.1715
 2178TIP3    H2 6499   1.589   2.438   0.214  0.2837 -1.4294  0.8120
 2179TIP3   OH2 6500   6.055   3.331   2.182 -0.1222  0.0734  0.5837
 2179TIP3    H1 6501   6.124   3.344   2.247  0.1367  1.2522  0.0959
 2179TIP3    H2 6502   6.069   3.400   2.117 -0.3401 -1.0957 -0.7634
 2180TIP3   OH2 6503   3.569   5.764   0.580  0.3768 -0.1282 -0.0729
 2180TIP3    H1 6504   3.621   5.691   0.547  1.1344  0.5998 -0.4892
 2180TIP3    H2 6505   3.552   5.741   0.672 -2.0708 -2.3533 -0.9266
 2181TIP3   OH2 6506   1.618   6.559   5.168  0.1143  0.0569  0.1160
 2181TIP3    H1 6507   1.672   6.486   5.199 -1.3070 -0.8370  0.5905
 2181TIP3    H2 6508   1.615   6.546   5.073  2.2745  1.2484 -0.1706
 2182TIP3   OH2 6509   6.542   5.321   1.107  0.1227  0.1897  0.2363
 2182TIP3    H1 6510   6.475   5.388   1.122  0.7173  1.1347 -1.1363
 2182TIP3    H2 6511   6.611   5.367   1.059  0.7197 -1.3255 -0.4075
 2183TIP3   OH2 6512   6.095   3.815   1.613 -0.0901 -0.2907  0.4449
 2183TIP3    H1 6513   6.058   3.734   1.578  1.3058 -0.7820  0.0342
 2183TIP3    H2 6514   6.189   3.798   1.620  0.4130  1.6768 -0.7508
 2184TIP3   OH2 6515   1.387   5.723   5.014  0.4262  0.3933  0.0681
 2184TIP3    H1 6516   1.311   5.744   4.960  1.8932  0.2931 -2.1417
 2184TIP3    H2 6517   1.368   5.636   5.048 -0.2319  0.1469 -0.8791
 2185TIP3   OH2 6518   0.389   1.404   2.019  0.3304  0.0665  0.0492
 2185TIP3    H1 6519   0.372   1.384   2.111 -1.3049  0.9627 -0.0179
 2185TIP3    H2 6520   0.305   1.435   1.985  0.5609 -1.4264 -2.0844
 2186TIP3   OH2 6521   6.740   1.095   3.921 -0.0515  0.8757  0.1387
 2186TIP3    H1 6522   6.801   1.021   3.917  0.0523  0.9923 -0.4779
 2186TIP3    H2 6523   6.756   1.135   4.006 -0.9360 -0.5179  1.0056
 2187TIP3   OH2 6524   2.398   3.938   3.041 -0.3575 -0.3043 -0.1291
 2187TIP3    H1 6525   2.382   3.845   3.026  0.6191 -0.3352 -1.0615
 2187TIP3    H2 6526   2.332   3.983   2.989 -0.2918 -0.4665 -0.3514
 2188TIP3   OH2 6527   7.186   4.269   2.232  0.2269  0.3392 -0.0687
 2188TIP3    H1 6528   7.123   4.339   2.246  2.2753  2.0069  1.5407
 2188TIP3    H2 6529   7.184   4.218   2.313 -0.8725 -1.2030 -1.0274
 2189TIP3   OH2 6530   2.023   0.241   2.345  0.2275 -0.3544 -0.4318
 2189TIP3    H1 6531   1.946   0.243   2.288  0.4490 -0.6753 -0.7470
 2189TIP3    H2 6532   2.041   0.147   2.356  1.9677 -0.2854 -2.2551
 2190TIP3   OH2 6533   4.023   6.480   1.794  0.5602 -0.5265  0.1998
 2190TIP3    H1 6534   4.071   6.398   1.781 -0.2186 -0.7079 -1.8380
 2190TIP3    H2 6535   3.933   6.459   1.772  0.2074  0.7186  0.3727
 2191TIP3   OH2 6536   4.111   5.535   4.593 -0.0219  0.3741  0.2090
 2191TIP3    H1 6537   4.127   5.474   4.665  0.5880  1.0432  0.6577
 2191TIP3    H2 6538   4.027   5.575   4.615 -0.5644 -0.5009 -0.2365
 2192TIP3   OH2 6539   6.916   0.608   0.222  0.4057  0.0571  0.0756
 2192TIP3    H1 6540   6.860   0.682   0.197 -0.4725 -0.8252 -0.6767
 2192TIP3    H2 6541   6.914   0.550   0.146  0.6843 -0.9565  0.8174
 2193TIP3   OH2 6542   0.104   1.294   5.263 -0.3688  0.3276 -0.2611
 2193TIP3    H1 6543   0.031   1.240   5.295 -1.8252  1.1702 -2.0044
 2193TIP3    H2 6544   0.133   1.343   5.340 -1.1018 -0.6053  0.6429
 2194TIP3   OH2 6545   2.086   2.474   0.933 -0.0733  0.2908  0.5270
 2194TIP3    H1 6546   2.105   2.560   0.894 -0.4291  0.6729  1.1737
 2194TIP3    H2 6547   2.099   2.487   1.027 -0.6695 -0.2167  0.6875
 2195TIP3   OH2 6548   2.634   0.920   1.229  0.0606  0.1094 -0.2408
 2195TIP3    H1 6549   2.701   0.882   1.286 -0.2266  0.2048  0.1693
 2195TIP3    H2 6550   2.555   0.923   1.284 -0.0513  0.8093 -0.4384
 2196TIP3   OH2 6551   5.496   4.541   3.872  0.4954 -0.1082 -0.4775
 2196TIP3    H1 6552   5.591   4.551   3.869  0.4601  0.0085 -1.6884
 2196TIP3    H2 6553   5.481   4.447   3.861  0.4261  0.0974 -2.4016
 2197TIP3   OH2 6554   6.365   2.724   1.528 -0.2943 -0.3817  0.5596
 2197TIP3    H1 6555   6.273   2.704   1.508 -0.1215  0.8814 -1.8873
 2197TIP3    H2 6556   6.413   2.695   1.451  0.8459  2.4005  0.0949
 2198TIP3   OH2 6557   0.384   4.640   1.494 -0.8131  0.4118  0.4430
 2198TIP3    H1 6558   0.470   4.608   1.465  0.0804  1.9074  1.3246
 2198TIP3    H2 6559   0.395   4.653   1.588 -2.6486 -1.2501  0.9617
 2199TIP3   OH2 6560   5.401   5.189   4.270  0.1707 -0.1971  0.1768
 2199TIP3    H1 6561   5.389   5.281   4.293 -0.5262 -0.5572  1.3818
 2199TIP3    H2 6562   5.484   5.164   4.311  0.0648 -0.2473  0.3651
 2200TIP3   OH2 6563   1.178   4.819   2.554 -0.1252  0.3694 -0.5424
 2200TIP3    H1 6564   1.194   4.773   2.472  2.3016  1.4256 -0.7454
 2200TIP3    H2 6565   1.182   4.912   2.531  0.2553  0.6819  0.6873
 2201TIP3   OH2 6566   1.625   6.729   4.048 -0.3033 -0.1531  0.7238
 2201TIP3    H1 6567   1.589   6.812   4.079  1.1646  0.9653 -0.4092
 2201TIP3    H2 6568   1.583   6.715   3.963  0.1533 -0.0761  0.4832
 2202TIP3   OH2 6569   3.265   4.198   0.685 -0.6880 -0.0133 -0.9387
 2202TIP3    H1 6570   3.263   4.104   0.703 -0.3545 -0.0458 -1.0595
 2202TIP3    H2 6571   3.358   4.218   0.672 -0.8507  0.1065 -2.0694
 2203TIP3   OH2 6572   6.037   0.841   5.402 -0.5163  1.0562  0.3054
 2203TIP3    H1 6573   6.122   0.799   5.390 -0.3313  0.2890  3.5020
 2203TIP3    H2 6574   6.058   0.931   5.427 -0.3949  0.2158  3.6542
 2204TIP3   OH2 6575   6.039   4.004   1.275  0.2951  0.1204  0.1801
 2204TIP3    H1 6576   5.984   3.934   1.310 -1.1023  0.1892 -1.7183
 2204TIP3    H2 6577   6.124   3.963   1.259 -0.8322 -1.5323 -1.9995
 2205TIP3   OH2 6578   3.871   4.205   2.689  0.4844 -0.0341  0.1047
 2205TIP3    H1 6579   3.801   4.141   2.703  0.3956 -0.0636 -0.4423
 2205TIP3    H2 6580   3.951   4.153   2.688  0.1843 -0.7723 -4.0100
 2206TIP3   OH2 6581   0.719   4.495   1.623  0.3265 -0.7842 -0.3218
 2206TIP3    H1 6582   0.794   4.440   1.646  1.5257  1.2234  0.8960
 2206TIP3    H2 6583   0.735   4.578   1.669 -2.0509  0.1370 -1.0005
 2207TIP3   OH2 6584   3.391   3.160   5.122  0.8826  0.5540 -0.0753
 2207TIP3    H1 6585   3.469   3.109   5.099 -0.6081 -0.5101 -3.3657
 2207TIP3    H2 6586   3.396   3.237   5.065 -1.0147 -0.1583 -1.2762
 2208TIP3   OH2 6587   4.370   5.456   1.436  0.0214  0.5795 -0.4726
 2208TIP3    H1 6588   4.291   5.405   1.417  0.8849 -0.0936 -2.4085
 2208TIP3    H2 6589   4.376   5.518   1.363  0.4869  1.6397  0.4448
 2209TIP3   OH2 6590   0.024   0.450   1.370 -0.6176 -0.4793  0.0438
 2209TIP3    H1 6591   0.060   0.391   1.436 -1.6888 -1.2355 -0.0176
 2209TIP3    H2 6592  -0.068   0.424   1.363 -1.2337  1.4703  0.3301
 2210TIP3   OH2 6593   1.111   3.629   1.979 -0.0181 -0.0534 -0.6795
 2210TIP3    H1 6594   1.187   3.638   2.037  0.4596 -0.6367 -1.2084
 2210TIP3    H2 6595   1.097   3.535   1.972 -0.9682  0.0490 -0.3756
 2211TIP3   OH2 6596   4.985   6.757   4.312  0.5626 -0.0110 -0.0948
 2211TIP3    H1 6597   4.959   6.826   4.373  0.4447 -0.6101  0.5339
 2211TIP3    H2 6598   5.072   6.732   4.340  0.8410  0.2669 -0.6796
 2212TIP3   OH2 6599   6.443   5.449   4.543 -0.0543  0.2468  0.7708
 2212TIP3    H1 6600   6.387   5.476   4.616  1.5668  2.9744  1.1417
 2212TIP3    H2 6601   6.421   5.510   4.473  2.2266  1.2466  0.8606
 2213TIP3   OH2 6602   6.446   0.914   4.221 -0.4534 -0.1093 -0.0558
 2213TIP3    H1 6603   6.489   0.873   4.146  0.1299  1.5555 -0.6777
 2213TIP3    H2 6604   6.430   0.841   4.282  1.7111 -1.0720 -0.5158
 2214TIP3   OH2 6605   5.687   5.021   5.247  0.1695 -0.4352 -0.1982
 2214TIP3    H1 6606   5.724   5.036   5.334  0.2164 -0.9214 -0.1343
 2214TIP3    H2 6607   5.726   4.939   5.217 -1.5275 -1.4416  0.2452
 2215TIP3   OH2 6608   1.768   0.930   4.860  0.1685 -0.2357  0.2764
 2215TIP3    H1 6609   1.759   0.956   4.952 -0.2851  0.2214  0.1082
 2215TIP3    H2 6610   1.733   0.841   4.857  0.3463 -0.3183  0.5793
 2216TIP3   OH2 6611   1.814   4.710   2.425  0.3138 -0.3210 -0.3822
 2216TIP3    H1 6612   1.782   4.634   2.475  1.2263  1.4691  3.2594
 2216TIP3    H2 6613   1.737   4.742   2.378 -1.0715 -1.2475  1.1433
 2217TIP3   OH2 6614   2.320   4.684   1.803  0.4252 -0.1354  0.1673
 2217TIP3    H1 6615   2.367   4.748   1.857  2.9737 -1.0458 -0.8527
 2217TIP3    H2 6616   2.311   4.727   1.718  1.7535 -0.9016 -0.3890
 2218TIP3   OH2 6617   3.895   5.196   4.358  0.2774  0.2608 -0.4559
 2218TIP3    H1 6618   3.819   5.221   4.306  0.2484 -1.6271 -1.4361
 2218TIP3    H2 6619   3.929   5.118   4.314  0.8842 -0.8171  1.7583
 2219TIP3   OH2 6620   4.885   0.147   2.788 -0.4038  0.0531  0.5770
 2219TIP3    H1 6621   4.908   0.056   2.770  1.4676  0.7429 -1.0106
 2219TIP3    H2 6622   4.815   0.167   2.726 -0.3905 -0.1490  0.4961
 2220TIP3   OH2 6623   3.358   5.122   2.402 -0.0223  0.2306  0.0933
 2220TIP3    H1 6624   3.429   5.182   2.378  0.0294  0.6627  1.2546
 2220TIP3    H2 6625   3.397   5.064   2.467 -1.0930  1.4159  1.8818
 2221TIP3   OH2 6626   6.270   2.575   0.052  0.2136  0.7729  0.3333
 2221TIP3    H1 6627   6.209   2.611   0.116 -0.4241  2.4564 -1.1082
 2221TIP3    H2 6628   6.356   2.582   0.094 -0.3976 -0.3669  1.8627
 2222TIP3   OH2 6629   2.037   6.377   1.429  0.5326  0.8762  0.2386
 2222TIP3    H1 6630   2.059   6.319   1.356  0.1023  0.0673  0.7354
 2222TIP3    H2 6631   2.120   6.396   1.471  0.6746  0.5562  0.1068
 2223TIP3   OH2 6632   5.140   4.297   0.622 -0.3572 -0.3203  0.7658
 2223TIP3    H1 6633   5.221   4.251   0.645  0.9353  0.6185 -1.5009
 2223TIP3    H2 6634   5.155   4.387   0.652  0.0538  0.1664 -0.7682
 2224TIP3   OH2 6635   2.982   4.433   1.660 -0.7328  0.0064  0.6158
 2224TIP3    H1 6636   3.019   4.345   1.672 -0.2354  0.0288 -0.6027
 2224TIP3    H2 6637   2.889   4.417   1.641 -0.4183 -0.3519 -0.7294
 2225TIP3   OH2 6638   6.042   3.321   4.991 -0.6041 -0.3257  0.1035
 2225TIP3    H1 6639   6.051   3.400   5.045 -2.1474 -0.7812  1.0985
 2225TIP3    H2 6640   5.951   3.294   5.003 -0.1811 -2.1168 -0.4056
 2226TIP3   OH2 6641   4.388   4.313   5.684  0.6996 -0.1076  0.2994
 2226TIP3    H1 6642   4.362   4.405   5.694 -0.8194 -0.6773  2.4841
 2226TIP3    H2 6643   4.470   4.316   5.635 -0.0359  2.2942 -0.9491
 2227TIP3   OH2 6644   0.492   2.569   2.931 -0.3141 -0.0534  0.5394
 2227TIP3    H1 6645   0.499   2.514   2.854  0.9179 -0.6266  1.0381
 2227TIP3    H2 6646   0.575   2.558   2.977  0.2472  2.6655  0.3694
 2228TIP3   OH2 6647   2.590   0.405   1.571  0.0874  0.8979 -0.0351
 2228TIP3    H1 6648   2.508   0.416   1.523 -1.3158 -3.1174  1.0389
 2228TIP3    H2 6649   2.656   0.391   1.504 -0.7458  0.9891 -0.8901
 2229TIP3   OH2 6650   4.804   4.726   4.025  0.3281 -0.2490 -0.3853
 2229TIP3    H1 6651   4.830   4.755   3.938  0.0465  1.7922  0.1549
 2229TIP3    H2 6652   4.717   4.687   4.012  0.1690  0.2905 -0.9848
 2230TIP3   OH2 6653   2.589   5.466   0.668  0.4029  0.5101 -0.2919
 2230TIP3    H1 6654   2.590   5.371   0.654  0.4986  0.6006 -0.8913
 2230TIP3    H2 6655   2.510   5.497   0.624 -0.1785  0.5828  0.7755
 2231TIP3   OH2 6656   0.832   4.125   2.504 -0.1029 -0.3562  0.6093
 2231TIP3    H1 6657   0.895   4.058   2.478 -0.2272  0.2675 -1.4848
 2231TIP3    H2 6658   0.747   4.086   2.487 -0.1754  0.4756 -1.2740
 2232TIP3   OH2 6659   1.365   3.643   1.547  0.1304 -0.3817  0.1716
 2232TIP3    H1 6660   1.317   3.560   1.551  1.4869 -1.1917  0.3428
 2232TIP3    H2 6661   1.298   3.710   1.559 -0.8812 -1.4813  0.9191
 2233TIP3   OH2 6662   6.786   1.331   5.383 -0.4883 -0.3190  0.4209
 2233TIP3    H1 6663   6.846   1.395   5.422  0.1130 -0.1827 -0.6803
 2233TIP3    H2 6664   6.800   1.251   5.433 -0.6120  0.1752  1.2562
 2234TIP3   OH2 6665   2.423   5.489   2.770 -0.1473  0.0542  0.0178
 2234TIP3    H1 6666   2.453   5.414   2.719 -1.9471 -1.0189  0.4367
 2234TIP3    H2 6667   2.483   5.493   2.844 -0.6953 -1.7537  0.6181
 2235TIP3   OH2 6668   4.295   4.824   1.567 -0.0854  0.2803 -0.1383
 2235TIP3    H1 6669   4.324   4.828   1.658  0.7800 -1.3703 -0.2865
 2235TIP3    H2 6670   4.375   4.838   1.516 -0.0335 -1.3520 -0.5816
 2236TIP3   OH2 6671   5.498   1.478   3.666 -0.1890 -0.6969  1.0245
 2236TIP3    H1 6672   5.436   1.412   3.696 -1.8641  0.7892  1.0206
 2236TIP3    H2 6673   5.449   1.560   3.671  1.4767  0.4058  0.0593
 2237TIP3   OH2 6674   6.376   2.711   0.569 -0.4288  0.4217 -0.1938
 2237TIP3    H1 6675   6.329   2.757   0.500  0.5895  0.9409 -0.5704
 2237TIP3    H2 6676   6.408   2.780   0.627 -0.8521  0.0242  0.5256
 2238TIP3   OH2 6677   4.567   3.207   1.994  0.2102 -0.1100 -0.2632
 2238TIP3    H1 6678   4.482   3.174   1.966  0.2398 -1.3591  0.9929
 2238TIP3    H2 6679   4.547   3.269   2.064  0.3090  0.1920 -0.4983
 2239TIP3   OH2 6680   0.966   0.979   4.488 -0.1911  0.1025  0.0154
 2239TIP3    H1 6681   0.941   1.064   4.526  1.4675  0.4833  0.3073
 2239TIP3    H2 6682   0.918   0.975   4.406 -1.7785  0.4589  0.8744
 2240TIP3   OH2 6683   6.743   4.200   4.357 -0.3343 -0.6604  0.4340
 2240TIP3    H1 6684   6.794   4.216   4.278 -1.2457 -1.1033 -0.2719
 2240TIP3    H2 6685   6.802   4.221   4.429  0.2740  0.4634 -0.3691
 2241TIP3   OH2 6686   1.187   0.119   4.847  0.2403 -0.2182 -0.1784
 2241TIP3    H1 6687   1.154   0.149   4.932 -2.0066 -2.3935 -0.1520
 2241TIP3    H2 6688   1.116   0.138   4.786  0.1849 -2.1544 -0.7834
 2242TIP3   OH2 6689   0.044   1.565   5.385  0.1935  1.0468 -0.2666
 2242TIP3    H1 6690   0.097   1.620   5.327 -0.9967  0.6987 -1.7372
 2242TIP3    H2 6691  -0.041   1.559   5.341 -0.2136 -0.6102  0.6955
 2243TIP3   OH2 6692   5.753   2.241   2.513 -0.8000  0.0893  0.0516
 2243TIP3    H1 6693   5.741   2.292   2.593 -0.1551  0.8462 -0.3144
 2243TIP3    H2 6694   5.839   2.201   2.522 -0.4183  0.7481 -0.5545
 2244TIP3   OH2 6695   4.315   1.020   4.360 -0.2395  0.3890  0.2637
 2244TIP3    H1 6696   4.281   1.082   4.424 -0.0651  1.4092 -0.6057
 2244TIP3    H2 6697   4.349   1.075   4.290 -0.8510 -0.7100 -0.9223
 2245TIP3   OH2 6698   5.964   3.067   2.179  0.2151  0.0356  0.0871
 2245TIP3    H1 6699   6.054   3.046   2.152 -0.4087 -0.4870 -1.7279
 2245TIP3    H2 6700   5.970   3.155   2.215  0.8568  1.8060 -3.8724
 2246TIP3   OH2 6701   3.010   2.453   5.070  0.5673 -0.2453  0.1052
 2246TIP3    H1 6702   2.960   2.517   5.120  0.9085  0.0250  0.1044
 2246TIP3    H2 6703   3.093   2.446   5.117  0.3066 -1.1367  0.4552
 2247TIP3   OH2 6704   2.236   4.874   5.568 -0.1789  0.1462 -0.3287
 2247TIP3    H1 6705   2.158   4.876   5.623  0.2922 -0.6900  0.3937
 2247TIP3    H2 6706   2.205   4.899   5.481 -1.2874 -0.3683 -0.0944
 2248TIP3   OH2 6707   1.567   5.751   5.382  0.3907  0.0159  0.0335
 2248TIP3    H1 6708   1.647   5.737   5.434  0.7004  0.4288 -0.3258
 2248TIP3    H2 6709   1.498   5.708   5.433  1.0143 -1.2636 -0.1658
 2249TIP3   OH2 6710   1.495   3.832   1.091 -0.3614 -0.3678 -0.2302
 2249TIP3    H1 6711   1.550   3.756   1.107 -0.0818  0.0388  0.7969
 2249TIP3    H2 6712   1.529   3.900   1.149 -1.3418  0.1879 -0.2722
 2250TIP3   OH2 6713   5.214   3.347   3.938 -0.2234 -0.0623  0.2148
 2250TIP3    H1 6714   5.192   3.427   3.890  2.7728  1.2320  0.7420
 2250TIP3    H2 6715   5.210   3.277   3.873  1.0485  1.2172 -1.3376
 2251TIP3   OH2 6716   1.204   6.495   3.491 -0.4560 -0.4162  0.1495
 2251TIP3    H1 6717   1.248   6.573   3.457 -0.1225  0.1262  1.7368
 2251TIP3    H2 6718   1.276   6.438   3.520 -0.7240 -0.7755  0.1111
 2252TIP3   OH2 6719   2.348   6.554   2.285  0.0940 -0.4858  0.4168
 2252TIP3    H1 6720   2.313   6.505   2.210 -0.9423  0.2244  0.4056
 2252TIP3    H2 6721   2.424   6.504   2.313  2.3135  0.7168 -2.9000
 2253TIP3   OH2 6722   1.866   0.555  -0.016 -0.4129 -0.3382 -0.2538
 2253TIP3    H1 6723   1.796   0.573   0.047 -0.6417 -2.4090  0.1606
 2253TIP3    H2 6724   1.910   0.477   0.018  3.3968  1.9127  0.5352
 2254TIP3   OH2 6725   0.379   0.507   3.488 -0.0864  0.3190  0.1395
 2254TIP3    H1 6726   0.385   0.597   3.455 -0.9996 -0.2182 -1.5861
 2254TIP3    H2 6727   0.288   0.498   3.516  0.7562  0.9266  3.5242
 2255TIP3   OH2 6728   1.108   5.109   3.308  0.1718 -0.0903  0.3783
 2255TIP3    H1 6729   1.058   5.078   3.232  1.6131  0.1405 -0.6965
 2255TIP3    H2 6730   1.056   5.182   3.342 -0.5143 -0.2214 -0.3431
 2256TIP3   OH2 6731   7.120   0.171   4.781  0.4534  0.2115 -0.3920
 2256TIP3    H1 6732   7.100   0.254   4.739 -1.4996  0.4126  0.8078
 2256TIP3    H2 6733   7.133   0.192   4.873  1.1119 -0.6762 -0.2613
 2257TIP3   OH2 6734   0.953   0.154   3.848  0.1012  0.3773  0.3435
 2257TIP3    H1 6735   0.949   0.065   3.813 -1.2915  0.5599 -0.0252
 2257TIP3    H2 6736   1.033   0.156   3.901  0.1626 -1.0719  0.3322
 2258TIP3   OH2 6737   4.125   6.225   1.731  0.5192 -0.3328  0.8746
 2258TIP3    H1 6738   4.141   6.218   1.637  2.0735 -1.7953  1.2010
 2258TIP3    H2 6739   4.064   6.155   1.751 -0.8270  0.7716  0.7924
 2259TIP3   OH2 6740   1.998   4.135   0.100 -0.4227 -0.0920  0.5112
 2259TIP3    H1 6741   1.974   4.196   0.169 -0.1036  0.6593 -0.0320
 2259TIP3    H2 6742   1.966   4.050   0.131  0.4182  0.0810  1.9511
 2260TIP3   OH2 6743   6.730   1.034   4.454  0.1390  0.5424 -0.1656
 2260TIP3    H1 6744   6.657   1.003   4.507 -1.0014 -0.2352 -2.0798
 2260TIP3    H2 6745   6.716   1.129   4.448 -1.3921  0.2749 -1.3945
 2261TIP3   OH2 6746   0.860   4.388   1.907  0.3812 -0.2386  0.7024
 2261TIP3    H1 6747   0.883   4.400   2.000 -0.3262 -1.3665  1.0396
 2261TIP3    H2 6748   0.828   4.298   1.902  1.2808 -0.5021 -0.8326
 2262TIP3   OH2 6749   0.953   3.957   0.079  0.1279 -0.0091  0.1736
 2262TIP3    H1 6750   0.928   4.050   0.084  1.4685  0.4070 -0.3668
 2262TIP3    H2 6751   0.871   3.912   0.061 -0.8218  0.8833  1.9847
 2263TIP3   OH2 6752   4.479   5.266   0.830 -0.7694  0.1585  1.0090
 2263TIP3    H1 6753   4.436   5.196   0.781 -0.4653  0.1910  0.6902
 2263TIP3    H2 6754   4.421   5.282   0.905 -1.2036  0.0655  0.6967
 2264TIP3   OH2 6755   1.319   0.488   4.177  0.1916  0.1452  0.2930
 2264TIP3    H1 6756   1.332   0.446   4.262  1.4402  1.4285  0.7846
 2264TIP3    H2 6757   1.303   0.580   4.198 -3.3995 -0.1230 -0.6900
 2265TIP3   OH2 6758   4.162   0.630   3.368  0.4635 -0.0527 -0.1860
 2265TIP3    H1 6759   4.241   0.599   3.325  1.0490 -0.4589  1.1340
 2265TIP3    H2 6760   4.158   0.724   3.348 -0.5782 -0.6079 -3.0640
 2266TIP3   OH2 6761   0.775   0.781   2.032  0.4618  0.3347  0.0317
 2266TIP3    H1 6762   0.733   0.861   2.002 -2.2614 -0.2241  1.9649
 2266TIP3    H2 6763   0.799   0.799   2.123 -1.4702 -1.4118  0.9542
 2267TIP3   OH2 6764   0.979   1.131   4.900 -0.2483 -0.5238  0.0868
 2267TIP3    H1 6765   1.044   1.192   4.864 -1.1766 -0.0136 -0.7553
 2267TIP3    H2 6766   0.906   1.187   4.927 -0.8506 -1.2080 -0.0979
 2268TIP3   OH2 6767   5.007   5.613   3.195  0.4325 -0.1600 -0.7397
 2268TIP3    H1 6768   5.002   5.533   3.143  1.1453 -1.9552  1.7452
 2268TIP3    H2 6769   4.924   5.616   3.243  0.9572 -0.2069  0.2070
 2269TIP3   OH2 6770   6.847   4.554   0.365  0.6540  0.5722 -0.2005
 2269TIP3    H1 6771   6.851   4.648   0.347 -1.7190  0.7754 -0.0200
 2269TIP3    H2 6772   6.855   4.514   0.278  1.3395  0.9495 -0.3184
 2270TIP3   OH2 6773   1.436   2.170   2.891 -0.1632 -0.1441 -0.0557
 2270TIP3    H1 6774   1.388   2.179   2.973 -0.4686  0.9868 -0.3459
 2270TIP3    H2 6775   1.504   2.238   2.895 -0.1847 -0.0785 -0.7380
 2271TIP3   OH2 6776   2.500   6.482   4.915  0.4320  0.3215 -0.6072
 2271TIP3    H1 6777   2.506   6.386   4.914  0.8008  0.2078  2.5117
 2271TIP3    H2 6778   2.434   6.501   4.982 -1.4548  2.2929 -2.8217
 2272TIP3   OH2 6779   3.651   1.893   1.210  0.2123 -0.1673 -0.6073
 2272TIP3    H1 6780   3.676   1.847   1.290 -0.6493 -1.4626 -1.0441
 2272TIP3    H2 6781   3.730   1.891   1.155  0.5336 -0.0833 -0.1493
 2273TIP3   OH2 6782   4.169   4.574   1.577 -0.3523  0.3244 -0.3615
 2273TIP3    H1 6783   4.226   4.636   1.623 -0.3315  0.0407 -0.0021
 2273TIP3    H2 6784   4.222   4.495   1.566  0.1152  0.8307 -2.0846
 2274TIP3   OH2 6785   5.191   0.233   3.995  0.1773 -0.0755  0.4569
 2274TIP3    H1 6786   5.283   0.244   4.021  0.6127 -1.3176 -0.4835
 2274TIP3    H2 6787   5.146   0.210   4.076  0.6174  0.8443  0.9876
 2275TIP3   OH2 6788   3.711   1.414   3.803  0.1355  0.3476 -0.5818
 2275TIP3    H1 6789   3.775   1.450   3.741 -1.5789  3.8780 -0.5398
 2275TIP3    H2 6790   3.749   1.432   3.889  1.1384 -1.8418 -0.5106
 2276TIP3   OH2 6791   0.762   3.221   0.661 -0.2576 -0.0482  0.2128
 2276TIP3    H1 6792   0.774   3.243   0.753  0.2271  0.1384  0.1066
 2276TIP3    H2 6793   0.685   3.163   0.660  1.5932 -2.7482  1.1511
 2277TIP3   OH2 6794   3.636   4.568   1.867 -0.0164  0.2792  0.1000
 2277TIP3    H1 6795   3.610   4.586   1.957 -0.7426  3.2177 -0.5987
 2277TIP3    H2 6796   3.632   4.473   1.859 -3.4746  0.1018  2.1668
 2278TIP3   OH2 6797   4.615   2.795   2.633 -0.4519 -0.0815 -0.2145
 2278TIP3    H1 6798   4.567   2.805   2.715 -1.2405  0.0010 -0.6758
 2278TIP3    H2 6799   4.685   2.861   2.637 -1.1595  0.6700 -0.0860
 2279TIP3   OH2 6800   6.432   2.167   0.333 -0.0370  0.0210  0.3309
 2279TIP3    H1 6801   6.386   2.092   0.295  0.4262  1.0474 -2.5077
 2279TIP3    H2 6802   6.420   2.158   0.427 -2.0555 -2.2697 -0.0613
 2280TIP3   OH2 6803   4.713   1.016   1.844 -0.3718  0.4479 -0.1701
 2280TIP3    H1 6804   4.808   1.022   1.854 -0.4583 -0.0188  1.2083
 2280TIP3    H2 6805   4.700   0.988   1.754  0.6777  3.0193 -1.1952
 2281TIP3   OH2 6806   2.147   0.202   2.985  0.2112  0.4061 -0.2368
 2281TIP3    H1 6807   2.071   0.165   3.032  0.1128  1.7364  0.7124
 2281TIP3    H2 6808   2.193   0.253   3.052  1.6370  0.0769 -0.9477
 2282TIP3   OH2 6809   5.237   6.281   1.024 -0.4469  0.0440  0.1454
 2282TIP3    H1 6810   5.208   6.193   0.998 -0.2621 -0.1234  0.5018
 2282TIP3    H2 6811   5.313   6.298   0.969 -1.6181  0.7817 -1.3193
 2283TIP3   OH2 6812   2.845   0.895   1.609 -0.7750 -0.1150  0.5080
 2283TIP3    H1 6813   2.867   0.965   1.670 -1.4511  1.5197 -1.0147
 2283TIP3    H2 6814   2.928   0.852   1.590 -0.3034  0.4283  1.2989
 2284TIP3   OH2 6815   5.672   3.912   5.242  0.0222  0.4862 -0.5992
 2284TIP3    H1 6816   5.617   3.835   5.250 -2.0083  2.0011  2.1610
 2284TIP3    H2 6817   5.641   3.957   5.163 -0.2544 -0.4349 -1.0206
 2285TIP3   OH2 6818   3.289   5.327   0.222 -0.2567 -0.0512 -0.0372
 2285TIP3    H1 6819   3.380   5.344   0.199  0.0511 -1.0294  0.4100
 2285TIP3    H2 6820   3.257   5.268   0.154 -1.0877  1.5899 -1.1463
 2286TIP3   OH2 6821   1.553   2.507   4.546  0.1477 -0.0602  0.0706
 2286TIP3    H1 6822   1.634   2.464   4.518 -0.6047 -2.2405  1.0848
 2286TIP3    H2 6823   1.526   2.460   4.624 -3.2357 -0.8137 -1.3764
 2287TIP3   OH2 6824   2.631   4.356   2.452  0.9554  0.7904 -0.4485
 2287TIP3    H1 6825   2.680   4.438   2.461 -0.5080  1.4771  2.0559
 2287TIP3    H2 6826   2.681   4.292   2.504  1.5370  0.3032 -1.5608
 2288TIP3   OH2 6827   0.538   2.833   1.352  0.4356  0.4025 -0.0842
 2288TIP3    H1 6828   0.582   2.838   1.437 -0.0689  0.3832  0.1828
 2288TIP3    H2 6829   0.585   2.896   1.297  1.5430 -0.4656 -0.1583
 2289TIP3   OH2 6830   5.695   4.833   4.509 -0.4742 -0.5328 -0.2235
 2289TIP3    H1 6831   5.690   4.848   4.415 -0.4590  0.8311 -0.0236
 2289TIP3    H2 6832   5.608   4.800   4.533 -1.0270  0.6911 -0.4723
 2290TIP3   OH2 6833   0.129   6.660   5.852  0.3506  0.2013  0.5582
 2290TIP3    H1 6834   0.117   6.729   5.786  0.2395  0.7457  1.1397
 2290TIP3    H2 6835   0.209   6.685   5.899 -1.1601  1.4816  2.6043
 2291TIP3   OH2 6836   4.838   3.843   3.756 -0.5418 -0.0827 -0.4425
 2291TIP3    H1 6837   4.859   3.934   3.735 -2.6919  0.6528  0.3669
 2291TIP3    H2 6838   4.797   3.809   3.677  2.4711 -1.2391 -1.6863
 2292TIP3   OH2 6839   0.823   3.088   2.815 -0.6705  0.0062 -0.2746
 2292TIP3    H1 6840   0.735   3.088   2.853 -0.3841 -1.1715  0.4239
 2292TIP3    H2 6841   0.868   3.015   2.858  0.6041  0.4995 -0.7385
 2293TIP3   OH2 6842   5.319   1.853   0.156  0.4198 -0.0789  0.6513
 2293TIP3    H1 6843   5.290   1.892   0.238  1.3168  0.0558  0.9227
 2293TIP3    H2 6844   5.270   1.900   0.088  0.0603  0.1725  1.0797
 2294TIP3   OH2 6845   1.640   1.917   0.099  0.2713 -0.7174 -0.4215
 2294TIP3    H1 6846   1.594   2.001   0.110 -0.9105 -1.4322  0.3187
 2294TIP3    H2 6847   1.571   1.855   0.075  1.3827 -1.1571 -2.6903
 2295TIP3   OH2 6848   4.295   0.706   0.981 -0.0686 -0.1686 -0.0605
 2295TIP3    H1 6849   4.370   0.761   0.958  0.7645 -1.0820  0.3950
 2295TIP3    H2 6850   4.299   0.633   0.919 -1.0531  0.1579 -0.5349
 2296TIP3   OH2 6851   4.905   4.985   4.644 -0.5119  0.3612  0.2599
 2296TIP3    H1 6852   4.925   4.892   4.643 -2.6048 -0.1653 -2.3170
 2296TIP3    H2 6853   4.981   5.025   4.687  1.5129 -2.2610 -0.6016
 2297TIP3   OH2 6854   5.808   6.525   4.855 -0.0753 -0.3021 -0.2094
 2297TIP3    H1 6855   5.888   6.570   4.828 -1.2658  0.8977 -1.9573
 2297TIP3    H2 6856   5.785   6.564   4.939  0.6339  0.0453 -0.1696
 2298TIP3   OH2 6857   6.436   0.022   0.835  0.0033 -0.3913 -0.2359
 2298TIP3    H1 6858   6.425   0.051   0.926 -0.3866 -0.2827 -0.3203
 2298TIP3    H2 6859   6.351  -0.012   0.810 -0.1487  0.4315 -0.8677
 2299TIP3   OH2 6860   0.495   1.009   3.642  0.3065 -0.2577  0.5066
 2299TIP3    H1 6861   0.583   1.024   3.676  0.6225 -0.4104 -0.2255
 2299TIP3    H2 6862   0.439   1.065   3.696  0.9675  0.5567  0.3826
 2300TIP3   OH2 6863   2.062   2.009   1.559 -0.1137 -0.4237  0.1760
 2300TIP3    H1 6864   2.073   1.935   1.498  0.8954  1.5611 -2.2374
 2300TIP3    H2 6865   1.971   2.035   1.548  0.1102  0.0442 -0.7062
 2301TIP3   OH2 6866   3.813   5.180   1.846  0.0659 -0.3371 -0.2181
 2301TIP3    H1 6867   3.732   5.202   1.799  0.3675 -0.8283 -0.9789
 2301TIP3    H2 6868   3.821   5.249   1.912 -1.0212 -0.3329 -0.0673
 2302TIP3   OH2 6869   1.459   3.924   1.358 -0.3401  0.4429 -0.5219
 2302TIP3    H1 6870   1.486   4.002   1.406  0.2063 -0.8768  1.4533
 2302TIP3    H2 6871   1.364   3.933   1.349 -0.3415  1.1159  0.0862
 2303TIP3   OH2 6872   3.160   4.228   3.734 -0.2157  0.5004  0.9611
 2303TIP3    H1 6873   3.120   4.223   3.821 -1.1169  0.6998  0.5678
 2303TIP3    H2 6874   3.125   4.309   3.697 -1.6357 -0.6902 -0.4476
 2304TIP3   OH2 6875   0.336   2.893   2.825 -0.3854  0.0856 -0.3151
 2304TIP3    H1 6876   0.304   2.974   2.785 -1.2484 -0.2825 -0.3947
 2304TIP3    H2 6877   0.367   2.840   2.752  0.7650  0.5756 -0.2091
 2305TIP3   OH2 6878   0.732   0.931   5.848 -0.4897  0.2890 -0.2625
 2305TIP3    H1 6879   0.819   0.895   5.863 -0.2437  0.0059 -2.1928
 2305TIP3    H2 6880   0.737   1.021   5.880  0.4789  0.2375 -0.2580
 2306TIP3   OH2 6881   4.248   3.546   2.843 -0.4977 -0.4296 -0.1776
 2306TIP3    H1 6882   4.181   3.513   2.904  0.6707  1.7438  2.4840
 2306TIP3    H2 6883   4.324   3.489   2.858 -0.6034 -0.6776 -0.5669
 2307TIP3   OH2 6884   3.882   5.078   4.805  0.3428  0.0956  0.2804
 2307TIP3    H1 6885   3.844   5.090   4.718  0.1260 -0.5449  0.2816
 2307TIP3    H2 6886   3.814   5.033   4.855  0.4718  0.4489  0.7768
 2308TIP3   OH2 6887   3.422   3.112   2.080  0.7131  0.0176  0.3320
 2308TIP3    H1 6888   3.413   3.062   1.999 -0.6776  0.1982  0.3448
 2308TIP3    H2 6889   3.364   3.068   2.141  1.8825 -0.2174  1.3093
 2309TIP3   OH2 6890   1.313   5.613   3.026 -0.3411 -0.3767 -0.0560
 2309TIP3    H1 6891   1.296   5.564   3.105  1.7030 -1.4857 -0.2305
 2309TIP3    H2 6892   1.403   5.645   3.037  0.0530 -0.7031 -1.9629
 2310TIP3   OH2 6893   3.878   0.183   4.086  0.6445 -1.0235 -0.3062
 2310TIP3    H1 6894   3.823   0.174   4.008  1.7997  0.8998 -1.4296
 2310TIP3    H2 6895   3.846   0.262   4.129  1.0072 -1.2242  0.3417
 2311TIP3   OH2 6896   2.489   0.171   4.882  0.0287 -0.5262 -0.1196
 2311TIP3    H1 6897   2.431   0.174   4.806  0.6262  0.1450 -0.5640
 2311TIP3    H2 6898   2.430   0.166   4.957 -0.6826  1.6664 -0.4614
 2312TIP3   OH2 6899   2.461   4.200   3.968 -0.6324 -0.6833  0.0943
 2312TIP3    H1 6900   2.420   4.113   3.977 -1.8617 -0.0329  1.0747
 2312TIP3    H2 6901   2.402   4.259   4.015  0.6834  0.5484  0.2523
 2313TIP3   OH2 6902   1.880   0.583   4.356  0.1812  0.8989 -0.4231
 2313TIP3    H1 6903   1.803   0.582   4.413  0.0359  0.1148 -0.6238
 2313TIP3    H2 6904   1.953   0.594   4.415  0.1100 -0.8057  0.0481
 2314TIP3   OH2 6905   2.226   4.603   4.733  0.0473  0.2097 -0.6750
 2314TIP3    H1 6906   2.165   4.675   4.715 -1.2296 -0.5834  0.2705
 2314TIP3    H2 6907   2.235   4.558   4.649 -1.7866 -0.4549 -0.5684
 2315TIP3   OH2 6908   0.053   2.313   2.866  0.4836  0.7071  0.2862
 2315TIP3    H1 6909  -0.003   2.337   2.792  0.6695  1.3041  0.3275
 2315TIP3    H2 6910   0.079   2.397   2.903 -0.0956  0.4173  1.4041
 2316TIP3   OH2 6911   5.121   2.479   1.677 -0.5516 -0.2075 -0.3729
 2316TIP3    H1 6912   5.118   2.497   1.771  0.2772 -1.7426 -0.0346
 2316TIP3    H2 6913   5.212   2.457   1.659 -0.6116  0.4745 -1.6345
 2317TIP3   OH2 6914   6.577   6.269   5.442 -0.1466 -0.1832 -0.6008
 2317TIP3    H1 6915   6.524   6.222   5.377 -0.9646  0.6558 -0.5633
 2317TIP3    H2 6916   6.514   6.318   5.493  0.6649  0.8296 -0.5324
 2318TIP3   OH2 6917   2.890   2.600   2.301  0.3623  0.2320  0.4319
 2318TIP3    H1 6918   2.891   2.548   2.382  1.2652  0.7756  0.7819
 2318TIP3    H2 6919   2.924   2.540   2.234 -0.4295 -0.2343  0.4260
 2319TIP3   OH2 6920   3.339   4.313   5.897  0.8462  0.4647  0.6548
 2319TIP3    H1 6921   3.416   4.369   5.900 -0.8004  3.2123 -2.4311
 2319TIP3    H2 6922   3.336   4.279   5.808 -0.9539 -0.3767  0.9768
 2320TIP3   OH2 6923   5.697   0.175   2.726 -0.0675  0.8295 -0.5160
 2320TIP3    H1 6924   5.602   0.161   2.726  0.0061 -0.1339 -2.4670
 2320TIP3    H2 6925   5.729   0.119   2.797 -0.8425 -0.2371 -0.9641
 2321TIP3   OH2 6926   3.086   4.406   4.468  0.0809 -0.1270 -0.0902
 2321TIP3    H1 6927   3.153   4.360   4.418 -0.5950 -0.3992 -0.7709
 2321TIP3    H2 6928   3.133   4.473   4.517  0.9494 -0.8635  0.1017
 2322TIP3   OH2 6929   0.020   3.390   2.041 -0.2232 -0.6248 -0.0586
 2322TIP3    H1 6930  -0.038   3.435   1.979  0.1557  0.2959  0.2366
 2322TIP3    H2 6931   0.059   3.319   1.991  1.1912  0.9690 -1.3484
 2323TIP3   OH2 6932   3.642   3.880   5.445  0.4662 -0.2488 -0.0298
 2323TIP3    H1 6933   3.553   3.908   5.467 -0.7794 -1.6170 -2.9293
 2323TIP3    H2 6934   3.697   3.954   5.469 -1.5365  0.9548  1.0740
 2324TIP3   OH2 6935   1.328   2.989   4.571  0.1578  0.0131  0.1475
 2324TIP3    H1 6936   1.296   2.921   4.512 -0.5928  0.5912 -0.1234
 2324TIP3    H2 6937   1.344   3.064   4.514  0.1855  0.3251  0.5655
 2325TIP3   OH2 6938   0.412   4.896   2.560 -0.1829 -0.1414 -0.4340
 2325TIP3    H1 6939   0.344   4.830   2.545  0.2112 -0.6323 -0.1075
 2325TIP3    H2 6940   0.493   4.846   2.566 -0.0571  0.1948  1.3288
 2326TIP3   OH2 6941   3.191   1.920   2.174  0.2522  0.3995 -0.0269
 2326TIP3    H1 6942   3.152   1.853   2.232 -0.1647  1.7388  1.2994
 2326TIP3    H2 6943   3.198   1.877   2.089  0.1059 -1.3765  0.8110
 2327TIP3   OH2 6944   1.996   0.330   2.704  0.1008  0.3479  0.2499
 2327TIP3    H1 6945   1.974   0.252   2.755  1.0542  0.7103  1.2537
 2327TIP3    H2 6946   2.063   0.300   2.642 -1.3587 -0.1932 -1.1668
 2328TIP3   OH2 6947   2.766   2.327   5.703  0.0116 -0.2802  0.3006
 2328TIP3    H1 6948   2.800   2.357   5.787  0.2554  0.7717 -0.1651
 2328TIP3    H2 6949   2.834   2.268   5.670  0.5082  0.3021  0.2657
 2329TIP3   OH2 6950   5.364   3.974   0.687 -0.3720 -0.5135 -0.1797
 2329TIP3    H1 6951   5.387   4.066   0.695 -1.4399  0.1531 -3.4157
 2329TIP3    H2 6952   5.285   3.964   0.740  0.1903  0.2100  0.8254
 2330TIP3   OH2 6953   4.869   0.750   1.255  0.0549  0.4462  0.0333
 2330TIP3    H1 6954   4.897   0.687   1.321 -0.9066 -1.3517 -1.2102
 2330TIP3    H2 6955   4.850   0.698   1.177  0.1764  2.3876 -1.3774
 2331TIP3   OH2 6956   5.129   6.535   5.726 -0.1616 -0.2898  0.2302
 2331TIP3    H1 6957   5.191   6.578   5.785  0.0897  0.6827 -0.7150
 2331TIP3    H2 6958   5.183   6.475   5.674 -0.5034 -1.7698  1.5104
 2332TIP3   OH2 6959   3.836   3.650   2.571 -0.3197 -0.5672 -0.2534
 2332TIP3    H1 6960   3.865   3.606   2.651  1.0941  0.0022 -0.4227
 2332TIP3    H2 6961   3.835   3.582   2.504 -0.9959 -0.9320  0.1161
 2333TIP3   OH2 6962   0.085   6.409   5.736 -0.0422 -0.4076 -0.3900
 2333TIP3    H1 6963   0.120   6.491   5.769  0.9446 -0.5608 -1.0151
 2333TIP3    H2 6964  -0.010   6.423   5.733 -0.2628 -0.5122  2.7822
 2334TIP3   OH2 6965   0.832   6.675   4.930 -0.1627 -0.0550  0.0350
 2334TIP3    H1 6966   0.845   6.580   4.930 -1.5826 -0.3231  1.7918
 2334TIP3    H2 6967   0.797   6.695   4.844 -0.5232 -1.2591 -0.1187
 2335TIP3   OH2 6968   4.775   3.675   0.168  0.4391  0.6215  0.1975
 2335TIP3    H1 6969   4.784   3.761   0.209  0.1744  1.3257 -1.1492
 2335TIP3    H2 6970   4.688   3.645   0.195  0.6162  0.6854  0.8468
 2336TIP3   OH2 6971   0.476   1.230   4.565  0.2178 -0.0418  0.2009
 2336TIP3    H1 6972   0.490   1.229   4.660  1.2327  1.0502  0.0912
 2336TIP3    H2 6973   0.524   1.308   4.535 -1.5342  0.6246 -0.9856
 2337TIP3   OH2 6974   3.806   5.475   5.264 -0.3077  0.0729 -0.3628
 2337TIP3    H1 6975   3.812   5.525   5.182 -0.9975 -0.3371 -0.6682
 2337TIP3    H2 6976   3.730   5.512   5.309  0.3365  0.6114  0.3226
 2338TIP3   OH2 6977   5.139   3.470   4.563  0.1334 -0.4417 -0.1179
 2338TIP3    H1 6978   5.178   3.427   4.488 -0.2250 -0.2844 -0.3988
 2338TIP3    H2 6979   5.061   3.514   4.528  0.1024 -0.1597  0.2962
 2339TIP3   OH2 6980   6.011   4.121   3.960  0.4598  0.3720  0.2601
 2339TIP3    H1 6981   5.983   4.190   4.021 -0.8086  0.7405 -0.6967
 2339TIP3    H2 6982   6.052   4.167   3.888  0.7583  0.0291  0.2078
 2340TIP3   OH2 6983   6.820   1.944   5.670  0.5804 -0.5136  0.2062
 2340TIP3    H1 6984   6.890   1.994   5.711  0.6236  0.6944 -1.2532
 2340TIP3    H2 6985   6.747   1.950   5.732  1.0940  0.0296  0.7707
 2341TIP3   OH2 6986   5.567   0.671   0.065 -0.6236 -0.1242  0.0978
 2341TIP3    H1 6987   5.630   0.615   0.111 -1.1791 -1.5808 -0.8439
 2341TIP3    H2 6988   5.552   0.626  -0.019 -0.8528  1.6108 -0.8383
 2342TIP3   OH2 6989   0.689   4.315   4.545  0.1271  0.3031  0.5988
 2342TIP3    H1 6990   0.741   4.373   4.489  1.0092 -1.2975 -0.3315
 2342TIP3    H2 6991   0.673   4.366   4.624  1.6104  1.4914  0.1905
 2343TIP3   OH2 6992   1.918   4.069   3.065 -0.0412  0.1566  0.0767
 2343TIP3    H1 6993   1.848   4.132   3.085 -1.3799 -1.0762 -0.5704
 2343TIP3    H2 6994   1.948   4.040   3.151 -1.0986 -0.0986  0.3849
 2344TIP3   OH2 6995   2.795   5.732   3.009  0.6438  0.2354 -0.0186
 2344TIP3    H1 6996   2.888   5.756   3.014  0.5604  0.3766  1.4696
 2344TIP3    H2 6997   2.757   5.768   3.089 -0.4138 -1.0062  0.0773
 2345TIP3   OH2 6998   2.258   5.103   4.521 -0.1806 -0.1276 -0.0782
 2345TIP3    H1 6999   2.341   5.128   4.562 -0.2896 -0.1457  0.1521
 2345TIP3    H2 7000   2.281   5.085   4.430 -0.0784  0.6909 -0.2187
 2346TIP3   OH2 7001   4.850   2.996   1.683  0.3017 -0.6977  0.1159
 2346TIP3    H1 7002   4.933   3.036   1.657  0.2226 -0.3174  0.4363
 2346TIP3    H2 7003   4.871   2.904   1.697  0.3405 -0.9345 -1.3133
 2347TIP3   OH2 7004   6.987   1.888   4.914  0.2051 -0.3138 -0.0769
 2347TIP3    H1 7005   6.984   1.975   4.952 -1.1925  0.2297 -1.3402
 2347TIP3    H2 7006   6.904   1.847   4.939 -0.6899  0.0062 -2.3099
 2348TIP3   OH2 7007   7.014   1.131   3.686  0.0601 -0.2207 -0.1402
 2348TIP3    H1 7008   6.998   1.214   3.730  2.2605  0.2047 -0.0653
 2348TIP3    H2 7009   7.032   1.154   3.595  2.4292 -0.3804  0.2342
 2349TIP3   OH2 7010   5.843   0.600   1.250 -0.0138  0.5252  0.6445
 2349TIP3    H1 7011   5.935   0.617   1.267  0.0662 -0.0655  0.8012
 2349TIP3    H2 7012   5.839   0.579   1.156  0.1975 -0.6809  0.8931
 2350TIP3   OH2 7013   2.245   6.133   0.591  0.4596  0.0066  0.1440
 2350TIP3    H1 7014   2.181   6.102   0.526  1.8474  0.0696 -1.3360
 2350TIP3    H2 7015   2.224   6.085   0.671 -2.5243  1.3239  0.2679
 2351TIP3   OH2 7016   2.770   4.371   0.847  0.1581  0.5199 -0.2719
 2351TIP3    H1 7017   2.735   4.324   0.772  1.4624  1.0384 -1.2493
 2351TIP3    H2 7018   2.865   4.375   0.830  0.8067 -1.0989  2.3682
 2352TIP3   OH2 7019   0.053   3.605   0.552 -0.7035  0.0971  0.2771
 2352TIP3    H1 7020   0.101   3.573   0.476 -1.9498 -0.6225 -0.2345
 2352TIP3    H2 7021   0.114   3.666   0.594  0.0280  0.4944 -1.2664
 2353TIP3   OH2 7022   0.048   6.134   4.400 -0.1457  0.1403  0.0804
 2353TIP3    H1 7023   0.069   6.042   4.385 -0.9861 -0.0509  0.0299
 2353TIP3    H2 7024   0.004   6.162   4.319 -1.5192  0.0732  0.7673
 2354TIP3   OH2 7025   0.722   2.264   0.082 -0.4162  0.2577  0.2257
 2354TIP3    H1 7026   0.651   2.327   0.089 -0.7948 -0.1551  0.1213
 2354TIP3    H2 7027   0.687   2.183   0.120  0.2210  0.2339  0.7865
 2355TIP3   OH2 7028   4.946   4.472   2.589 -0.7662 -0.3503 -0.8650
 2355TIP3    H1 7029   4.970   4.431   2.672 -0.2974  0.1601 -0.7367
 2355TIP3    H2 7030   4.912   4.558   2.615 -0.6185 -0.1898 -1.1969
 2356TIP3   OH2 7031   4.106   0.447   4.547 -0.1842 -0.3175  0.5395
 2356TIP3    H1 7032   4.097   0.357   4.577  2.1809 -0.0021  2.5327
 2356TIP3    H2 7033   4.200   0.465   4.552 -0.2058  1.4088 -2.5652
 2357TIP3   OH2 7034   0.586   3.318   3.479  0.2696  0.3287  0.0529
 2357TIP3    H1 7035   0.663   3.295   3.427  0.1034  0.8285 -0.4208
 2357TIP3    H2 7036   0.570   3.241   3.533 -0.3483 -0.7121 -1.5685
 2358TIP3   OH2 7037   2.601   2.601   3.707 -0.4093 -0.6373 -0.2966
 2358TIP3    H1 7038   2.555   2.518   3.715 -2.2710  0.4406  1.1106
 2358TIP3    H2 7039   2.545   2.664   3.752  1.3001  1.2550 -0.6464
 2359TIP3   OH2 7040   1.357   4.816   1.682  0.8197  0.0246 -0.2511
 2359TIP3    H1 7041   1.295   4.871   1.730  0.6951  0.3138 -0.7277
 2359TIP3    H2 7042   1.408   4.878   1.629  1.2124 -0.2511 -0.2035
 2360TIP3   OH2 7043   5.163   6.822   1.175  0.0732 -0.1814  0.5491
 2360TIP3    H1 7044   5.107   6.745   1.183 -0.5527  0.1744 -0.1892
 2360TIP3    H2 7045   5.248   6.788   1.147  0.2589 -0.7374  1.7607
 2361TIP3   OH2 7046   2.671   5.375   4.657  0.4005 -0.0084  0.0014
 2361TIP3    H1 7047   2.692   5.434   4.585 -0.0926  2.0401  1.4457
 2361TIP3    H2 7048   2.755   5.353   4.697  0.6451 -0.8943 -0.9575
 2362TIP3   OH2 7049   0.359   2.679   1.043  0.4653  0.1331 -0.0181
 2362TIP3    H1 7050   0.317   2.685   0.957  1.4763  1.3451 -0.4510
 2362TIP3    H2 7051   0.359   2.768   1.077  1.5427 -0.0581  0.5284
 2363TIP3   OH2 7052   0.057   2.096   0.334 -0.2241 -0.1947 -0.7793
 2363TIP3    H1 7053   0.124   2.122   0.398  0.4527  1.3714 -2.0531
 2363TIP3    H2 7054  -0.019   2.150   0.356 -0.8037 -1.3159  0.0931
 2364TIP3   OH2 7055   6.507   5.510   3.452 -0.1620 -0.1701  0.0364
 2364TIP3    H1 7056   6.449   5.434   3.463 -2.0646  1.0291 -1.0403
 2364TIP3    H2 7057   6.549   5.496   3.367  1.2777 -1.0905  0.8628
 2365TIP3   OH2 7058   1.393   1.044   3.979  0.5514 -0.2248 -0.1487
 2365TIP3    H1 7059   1.440   0.989   4.042  0.1099 -0.0023  0.3836
 2365TIP3    H2 7060   1.301   1.025   3.995  0.4480 -0.8762 -1.3814
 2366TIP3   OH2 7061   2.049   1.864   1.919 -0.2668 -0.3046 -0.8872
 2366TIP3    H1 7062   2.106   1.804   1.871 -0.5449 -0.7758 -0.6365
 2366TIP3    H2 7063   2.103   1.896   1.991  0.2969  0.7418 -1.7363
 2367TIP3   OH2 7064   3.529   1.625   1.583 -0.5679 -0.2477 -0.1239
 2367TIP3    H1 7065   3.532   1.567   1.659 -1.4069 -1.1760 -0.7755
 2367TIP3    H2 7066   3.436   1.629   1.559 -0.2604 -0.4960 -1.4735
 2368TIP3   OH2 7067   6.906   5.475   4.867 -0.1669  0.5078 -0.3770
 2368TIP3    H1 7068   6.914   5.564   4.833 -1.0519  0.1167 -1.7182
 2368TIP3    H2 7069   6.994   5.452   4.896  0.2152  1.5825 -0.6522
 2369TIP3   OH2 7070   6.820   3.468   4.448 -0.1411 -0.0968 -0.4903
 2369TIP3    H1 7071   6.869   3.491   4.527  1.2113 -0.8522 -1.0642
 2369TIP3    H2 7072   6.869   3.395   4.410 -0.7554  0.2431 -2.0282
 2370TIP3   OH2 7073   6.492   0.953   3.915 -0.4121  0.0957  0.1440
 2370TIP3    H1 7074   6.585   0.947   3.937  0.0490 -1.3209 -1.8544
 2370TIP3    H2 7075   6.485   1.034   3.864 -0.3766  0.4521  0.7020
 2371TIP3   OH2 7076   2.817   3.688   5.122 -0.2356  0.3595 -0.0970
 2371TIP3    H1 7077   2.804   3.782   5.112  2.3406  0.9361  1.0770
 2371TIP3    H2 7078   2.875   3.664   5.050 -1.1219 -0.4399 -0.5724
 2372TIP3   OH2 7079   2.102   5.353   4.446 -0.3199 -0.0634 -0.6232
 2372TIP3    H1 7080   2.129   5.263   4.467  1.2637  0.5134 -0.1011
 2372TIP3    H2 7081   2.148   5.408   4.509 -4.7556  0.9278  2.1895
 2373TIP3   OH2 7082   1.038   6.607   2.115  0.0475 -0.1987  0.0709
 2373TIP3    H1 7083   1.123   6.650   2.114 -0.7415  1.4401 -0.1560
 2373TIP3    H2 7084   0.997   6.634   2.032 -0.7678 -0.8056  0.2651
 2374TIP3   OH2 7085   3.961   3.590   3.474 -0.1047  0.4011 -0.4476
 2374TIP3    H1 7086   3.991   3.679   3.456  0.8350 -0.0115 -0.9506
 2374TIP3    H2 7087   3.912   3.598   3.556  0.2973  1.3076 -0.2858
 2375TIP3   OH2 7088   1.582   0.949   1.627 -0.0518 -0.0103  0.0590
 2375TIP3    H1 7089   1.498   0.933   1.669  0.2460 -1.5012  0.1380
 2375TIP3    H2 7090   1.560   0.965   1.535 -0.4373 -0.3161  0.0967
 2376TIP3   OH2 7091   4.333   1.735   5.318  0.1442  0.2059  0.1094
 2376TIP3    H1 7092   4.411   1.741   5.373  1.4132 -0.0882 -1.5828
 2376TIP3    H2 7093   4.344   1.653   5.270 -1.3596  0.0252  0.0071
 2377TIP3   OH2 7094   5.035   1.631   0.425 -0.2338  0.2266 -0.3115
 2377TIP3    H1 7095   4.995   1.681   0.496  0.8269  3.7578 -1.9961
 2377TIP3    H2 7096   4.970   1.564   0.403 -1.9304  1.0583  1.8378
 2378TIP3   OH2 7097   2.972   1.259   0.866  0.1510  0.5578 -0.1810
 2378TIP3    H1 7098   2.888   1.300   0.885  0.3175  1.1309 -0.6611
 2378TIP3    H2 7099   3.008   1.310   0.794  0.9597  0.3741  0.0857
 2379TIP3   OH2 7100   5.572   0.574   4.396 -0.0949 -0.0460 -0.2551
 2379TIP3    H1 7101   5.641   0.638   4.411  0.4433 -0.6758  0.0169
 2379TIP3    H2 7102   5.603   0.520   4.323 -0.3559 -0.2409 -0.2260
 2380TIP3   OH2 7103   5.489   6.140   2.671  0.3251 -0.6827 -0.6776
 2380TIP3    H1 7104   5.504   6.046   2.684 -0.6123 -0.9222 -1.1992
 2380TIP3    H2 7105   5.400   6.145   2.635  0.8333  0.3244 -1.8544
 2381TIP3   OH2 7106   3.467   0.878   2.966 -0.0701 -0.2848  0.3837
 2381TIP3    H1 7107   3.516   0.820   2.907 -1.2990 -0.0944 -0.8706
 2381TIP3    H2 7108   3.385   0.832   2.982 -0.6064  0.6211  0.2704
 2382TIP3   OH2 7109   4.894   1.505   0.065  0.5382 -0.0757  0.1739
 2382TIP3    H1 7110   4.846   1.586   0.079  0.4615 -0.1636  0.4202
 2382TIP3    H2 7111   4.924   1.479   0.152  0.7246 -0.2116  0.0712
 2383TIP3   OH2 7112   4.638   5.248   5.161 -0.5728 -0.2002 -0.1658
 2383TIP3    H1 7113   4.592   5.176   5.204  0.8337 -0.4366  1.0478
 2383TIP3    H2 7114   4.689   5.288   5.231  0.5804  0.4159 -1.3150
 2384TIP3   OH2 7115   4.850   4.337   4.489  0.0423  0.1340  0.4050
 2384TIP3    H1 7116   4.805   4.381   4.562 -0.0260 -0.1782  0.5515
 2384TIP3    H2 7117   4.920   4.287   4.531  0.0405  0.0032  0.2489
 2385TIP3   OH2 7118   5.416   6.673   1.399  0.5672 -0.0236 -0.1888
 2385TIP3    H1 7119   5.438   6.655   1.490 -0.0482  0.5513  0.0869
 2385TIP3    H2 7120   5.343   6.614   1.380 -0.5296  1.1195  0.2848
 2386TIP3   OH2 7121   3.538   2.482   5.300  0.1600  0.3921  0.3092
 2386TIP3    H1 7122   3.578   2.395   5.294 -2.7089 -0.9661 -0.6587
 2386TIP3    H2 7123   3.525   2.496   5.394 -0.6620 -0.9208  0.4211
 2387TIP3   OH2 7124   0.459   6.295   0.594 -0.4913  0.8734 -0.2134
 2387TIP3    H1 7125   0.516   6.282   0.670 -0.2649 -1.2958 -0.7037
 2387TIP3    H2 7126   0.391   6.228   0.602 -1.1963  1.4233 -1.2736
 2388TIP3   OH2 7127   3.766   0.496   2.960  0.2303  0.0106  0.1623
 2388TIP3    H1 7128   3.793   0.486   2.869  1.5680  0.2805  0.5134
 2388TIP3    H2 7129   3.817   0.431   3.008  0.3043  0.5690  0.8533
 2389TIP3   OH2 7130   0.019   1.392   3.422  0.0466 -0.1937 -0.1875
 2389TIP3    H1 7131   0.113   1.374   3.415  0.1301 -0.3096  0.9320
 2389TIP3    H2 7132   0.014   1.472   3.475 -0.4986 -0.7227  0.5851
 2390TIP3   OH2 7133   0.145   3.838   1.238 -0.3623  0.1367  0.5491
 2390TIP3    H1 7134   0.224   3.808   1.283 -0.7062 -0.0590  1.0386
 2390TIP3    H2 7135   0.135   3.929   1.265  0.0216  0.3431  0.0115
 2391TIP3   OH2 7136   3.647   1.437   4.725  0.1980 -0.4231 -0.5426
 2391TIP3    H1 7137   3.706   1.454   4.651  1.3760 -2.3031 -0.0919
 2391TIP3    H2 7138   3.691   1.370   4.776 -1.1596 -0.0276  1.2486
 2392TIP3   OH2 7139   4.719   2.004   4.018 -0.1412  0.0819 -0.3919
 2392TIP3    H1 7140   4.809   2.035   4.021 -1.0510  3.0101 -0.4721
 2392TIP3    H2 7141   4.726   1.909   4.029  2.8758  0.2738  0.1515
 2393TIP3   OH2 7142   5.216   4.538   2.793 -0.1905  0.2845  0.1289
 2393TIP3    H1 7143   5.148   4.470   2.788  1.0424 -0.9613 -0.5079
 2393TIP3    H2 7144   5.284   4.508   2.732  0.1968  2.3471 -0.5095
 2394TIP3   OH2 7145   5.563   5.363   0.262 -0.5692  0.3188 -0.0551
 2394TIP3    H1 7146   5.623   5.416   0.315 -0.0286 -0.4432  0.1222
 2394TIP3    H2 7147   5.549   5.414   0.183 -1.3523  1.4586  0.7915
 2395TIP3   OH2 7148   3.455   1.344   0.938  0.2899 -0.0439 -0.0949
 2395TIP3    H1 7149   3.495   1.281   0.999  0.0660 -0.6615 -0.5771
 2395TIP3    H2 7150   3.375   1.372   0.983  1.0897  0.9768  0.7433
 2396TIP3   OH2 7151   3.187   0.248   2.706  0.0395  0.5737  0.0138
 2396TIP3    H1 7152   3.207   0.243   2.613  0.4990 -0.4280  0.1576
 2396TIP3    H2 7153   3.093   0.267   2.709 -0.2169 -0.4745 -0.6601
 2397TIP3   OH2 7154   3.474   1.484   1.802  0.6601 -0.1545 -0.5658
 2397TIP3    H1 7155   3.390   1.529   1.802  0.7602  0.0307 -0.8906
 2397TIP3    H2 7156   3.465   1.417   1.871  1.5818  2.3820  2.2441
 2398TIP3   OH2 7157   0.934   5.510   5.146 -0.2278  0.3347 -0.0791
 2398TIP3    H1 7158   0.872   5.560   5.200  0.6456  0.5266  0.7810
 2398TIP3    H2 7159   0.905   5.419   5.156  0.4350  0.2490  1.4999
 2399TIP3   OH2 7160   5.265   4.060   5.121  0.2481 -0.1116  0.0023
 2399TIP3    H1 7161   5.319   4.118   5.068  0.0902 -0.2497 -0.3091
 2399TIP3    H2 7162   5.270   3.975   5.077 -1.3581  0.1985 -0.8358
 2400TIP3   OH2 7163   6.969   1.015   1.971  0.2526 -0.8715 -0.6608
 2400TIP3    H1 7164   6.902   0.953   2.001 -0.3714  0.8334  1.7728
 2400TIP3    H2 7165   6.920   1.084   1.927  0.8529 -1.5701 -2.5039
 2401TIP3   OH2 7166   5.218   0.162   1.765 -1.0927 -0.0968  0.0236
 2401TIP3    H1 7167   5.160   0.090   1.739  1.0694 -2.0164  0.0969
 2401TIP3    H2 7168   5.248   0.200   1.682 -0.7390 -0.6056 -0.0895
 2402TIP3   OH2 7169   4.947   1.312   0.654  0.4586 -0.2206  0.2793
 2402TIP3    H1 7170   4.928   1.219   0.666  0.4609 -0.0045  2.2078
 2402TIP3    H2 7171   4.874   1.345   0.602  0.4679 -1.2855 -0.4371
 2403TIP3   OH2 7172   1.066   4.315   1.466 -0.5399 -0.2603  0.2449
 2403TIP3    H1 7173   1.052   4.366   1.545 -0.3204 -0.3024  0.3133
 2403TIP3    H2 7174   1.105   4.233   1.497  2.6399  0.9735 -0.1382
 2404TIP3   OH2 7175   2.078   5.415   3.173 -0.2071 -0.5092 -0.1757
 2404TIP3    H1 7176   2.029   5.481   3.221  0.1686 -0.3698  0.0238
 2404TIP3    H2 7177   2.011   5.359   3.134 -0.5229 -0.2727  0.0195
 2405TIP3   OH2 7178   1.457   1.576   1.284 -0.3530  0.4711 -0.4654
 2405TIP3    H1 7179   1.396   1.572   1.357 -0.3219  1.1155 -0.4030
 2405TIP3    H2 7180   1.438   1.498   1.233 -1.1712  0.6259 -0.4012
 2406TIP3   OH2 7181   2.179   4.689   2.988  0.2086  0.0107 -0.2638
 2406TIP3    H1 7182   2.191   4.726   2.901 -0.0470  2.0688  0.5253
 2406TIP3    H2 7183   2.211   4.599   2.981 -1.3255 -0.4378 -2.8952
 2407TIP3   OH2 7184   6.466   3.578   4.869 -0.0241  0.5382  0.5720
 2407TIP3    H1 7185   6.475   3.560   4.775 -0.5202  0.0366  0.6173
 2407TIP3    H2 7186   6.376   3.610   4.878  0.1500  0.9649  0.8204
 2408TIP3   OH2 7187   1.590   5.599   2.394 -0.4428 -0.1661 -0.2328
 2408TIP3    H1 7188   1.566   5.646   2.473 -0.2237  1.1298 -0.9169
 2408TIP3    H2 7189   1.636   5.521   2.426 -0.6119  0.1867  0.9144
 2409TIP3   OH2 7190   3.130   5.139   5.096 -0.2328 -0.3910 -0.7708
 2409TIP3    H1 7191   3.175   5.171   5.018 -0.5294  0.6256 -0.5328
 2409TIP3    H2 7192   3.195   5.146   5.166 -0.4151  0.0375 -0.6452
 2410TIP3   OH2 7193   3.077   1.722   5.216  0.7322  0.5230  0.4899
 2410TIP3    H1 7194   3.117   1.655   5.160  0.5399  0.5221  0.3521
 2410TIP3    H2 7195   2.996   1.746   5.170 -0.1351 -0.4657  1.4489
 2411TIP3   OH2 7196   4.100   1.313   2.175  0.3792  0.0404 -0.4046
 2411TIP3    H1 7197   4.143   1.271   2.100 -0.0508  0.6213 -0.9864
 2411TIP3    H2 7198   4.051   1.386   2.137  0.2265  0.3994  0.4565
 2412TIP3   OH2 7199   0.099   2.372   4.040  0.3453  0.2942 -0.3828
 2412TIP3    H1 7200   0.115   2.447   4.098 -1.1050 -0.7082  1.4012
 2412TIP3    H2 7201   0.176   2.369   3.983  2.1240  1.0163  1.8453
 2413TIP3   OH2 7202   2.831   5.204   0.282  0.5184 -0.3270 -0.1438
 2413TIP3    H1 7203   2.792   5.117   0.294 -0.7629  0.4918  2.0242
 2413TIP3    H2 7204   2.911   5.202   0.334  0.1094  0.0202  0.5031
 2414TIP3   OH2 7205   3.367   1.841   1.954 -0.3603 -0.2513 -0.4108
 2414TIP3    H1 7206   3.384   1.871   1.865  0.7669 -0.3529 -0.2445
 2414TIP3    H2 7207   3.452   1.809   1.985 -1.2857 -2.7349 -0.2391
 2415TIP3   OH2 7208   1.746   4.871   0.756 -0.1328  0.3361 -0.4527
 2415TIP3    H1 7209   1.726   4.845   0.666 -1.0842 -0.1492 -0.1207
 2415TIP3    H2 7210   1.796   4.798   0.792 -0.2197  0.2863 -0.4315
 2416TIP3   OH2 7211   6.062   2.867   2.966  0.3715 -0.1615  0.1138
 2416TIP3    H1 7212   6.148   2.856   3.008  0.0214 -1.5280  0.5267
 2416TIP3    H2 7213   6.023   2.943   3.010  1.2321  0.2781  0.1400
 2417TIP3   OH2 7214   0.877   5.856   5.058  0.1742 -0.1492 -0.1792
 2417TIP3    H1 7215   0.843   5.866   5.147  2.8821  1.6010  0.8025
 2417TIP3    H2 7216   0.799   5.850   5.003 -1.6037 -0.9280  2.2532
 2418TIP3   OH2 7217   3.238   6.802   0.653  0.7388 -0.0690  0.0274
 2418TIP3    H1 7218   3.202   6.822   0.567  0.0655  1.3888  0.6297
 2418TIP3    H2 7219   3.176   6.740   0.692  1.3252 -1.1684 -0.7030
 2419TIP3   OH2 7220   4.156   3.038   2.090 -0.1844  0.3050 -0.2888
 2419TIP3    H1 7221   4.222   3.092   2.047  0.4931 -0.0475  0.2787
 2419TIP3    H2 7222   4.086   3.099   2.113 -0.0427  0.6928 -0.8598
 2420TIP3   OH2 7223   3.886   5.091   5.917  0.1014 -0.0563  0.1522
 2420TIP3    H1 7224   3.945   5.075   5.843  0.6641 -1.7956  0.9076
 2420TIP3    H2 7225   3.799   5.070   5.884  0.3139 -0.5243 -0.1231
 2421TIP3   OH2 7226   3.402   2.150   5.550 -0.0529  0.0540  0.0582
 2421TIP3    H1 7227   3.318   2.187   5.521  0.4268  0.8856 -0.3038
 2421TIP3    H2 7228   3.422   2.082   5.485 -1.0252 -1.0121  0.8274
 2422TIP3   OH2 7229   4.033   1.222   2.423  0.1038 -0.1937  0.0858
 2422TIP3    H1 7230   4.100   1.158   2.446 -0.1583 -0.6549 -0.4267
 2422TIP3    H2 7231   4.058   1.253   2.336 -0.6227 -0.7368 -0.3216
 2423TIP3   OH2 7232   5.731   4.423   5.334 -0.0124 -0.1505 -0.6480
 2423TIP3    H1 7233   5.681   4.504   5.331  0.3683  0.0744 -1.0506
 2423TIP3    H2 7234   5.673   4.360   5.377  0.0089  0.5616  0.4681
 2424TIP3   OH2 7235   4.215   0.259   3.780  0.2801  0.2498 -0.6637
 2424TIP3    H1 7236   4.255   0.204   3.847  0.1240 -0.0097 -0.7819
 2424TIP3    H2 7237   4.274   0.252   3.705 -0.1085 -0.3232 -0.9186
 2425TIP3   OH2 7238   6.585   1.433   5.776 -0.0905 -0.3330 -0.0421
 2425TIP3    H1 7239   6.524   1.389   5.836  0.4835 -2.1151 -0.7197
 2425TIP3    H2 7240   6.669   1.391   5.792  0.5222  0.6071 -0.6646
 2426TIP3   OH2 7241   5.410   0.598   3.429 -0.2992 -0.6989  0.6289
 2426TIP3    H1 7242   5.503   0.620   3.422 -0.4626 -0.3561 -0.6440
 2426TIP3    H2 7243   5.399   0.570   3.520  1.1871 -1.3960  0.6260
 2427TIP3   OH2 7244   3.090   1.434   4.122 -0.6991  0.2906  0.6373
 2427TIP3    H1 7245   3.001   1.448   4.155 -0.8945  0.8671 -0.1039
 2427TIP3    H2 7246   3.076   1.395   4.035 -0.2356 -4.4107  2.3581
 2428TIP3   OH2 7247   3.042   5.022   2.588  0.0573  0.6645 -0.0386
 2428TIP3    H1 7248   3.067   5.115   2.584 -1.4759  1.0981 -0.2173
 2428TIP3    H2 7249   3.042   4.994   2.497  0.7571  0.4157  0.0357
 2429TIP3   OH2 7250   6.234   6.254   3.937  0.4057  0.2348 -0.0855
 2429TIP3    H1 7251   6.172   6.233   3.868  0.9915  1.0433 -0.8843
 2429TIP3    H2 7252   6.237   6.350   3.939  0.8534  0.2148  0.6420
 2430TIP3   OH2 7253   5.727   4.048   4.298  0.2132 -0.0319  0.1954
 2430TIP3    H1 7254   5.798   4.112   4.295 -2.4407  3.1496 -1.7916
 2430TIP3    H2 7255   5.687   4.059   4.384  1.0075 -0.5430  0.6367
 2431TIP3   OH2 7256   3.270   1.597   1.126  0.0686 -0.3041  0.2512
 2431TIP3    H1 7257   3.334   1.559   1.185  0.1632  0.0585  0.3828
 2431TIP3    H2 7258   3.311   1.678   1.094  0.5060 -1.0449 -1.1952
 2432TIP3   OH2 7259   4.629   0.025   5.190 -0.2410  0.1525 -0.6808
 2432TIP3    H1 7260   4.538  -0.003   5.189 -0.1332 -0.2539  0.0879
 2432TIP3    H2 7261   4.635   0.090   5.120 -0.5265 -1.5979 -2.4304
 2433TIP3   OH2 7262   0.435   3.121   4.798  0.1721  0.5724 -0.0031
 2433TIP3    H1 7263   0.378   3.049   4.770 -1.6432  1.3419  1.4646
 2433TIP3    H2 7264   0.415   3.192   4.737  2.0101 -0.1037 -1.4910
 2434TIP3   OH2 7265   5.486   5.227   4.907  0.2980  1.2043 -0.3609
 2434TIP3    H1 7266   5.466   5.179   4.988  0.9393  1.4211 -0.0602
 2434TIP3    H2 7267   5.433   5.185   4.840  0.6647  0.2288 -0.0528
 2435TIP3   OH2 7268   2.480   1.742   1.794 -0.1956  0.1169 -0.4896
 2435TIP3    H1 7269   2.551   1.801   1.770 -0.6086  0.4800 -0.8341
 2435TIP3    H2 7270   2.405   1.771   1.742 -0.6257 -0.1994 -0.0668
 2436TIP3   OH2 7271   6.085   2.062   3.956 -0.0175  0.1764  0.1581
 2436TIP3    H1 7272   6.036   1.997   3.904 -0.0814 -0.4937  1.0390
 2436TIP3    H2 7273   6.020   2.099   4.015  0.4344 -0.3971  1.0291
 2437TIP3   OH2 7274   2.414   4.254   3.290 -0.7414 -0.2316  0.2359
 2437TIP3    H1 7275   2.336   4.302   3.261 -1.2477 -0.0147  1.8251
 2437TIP3    H2 7276   2.464   4.239   3.210 -2.6702 -0.8547 -0.9268
 2438TIP3   OH2 7277   4.821   3.940   2.256 -0.3051 -0.3575  0.3046
 2438TIP3    H1 7278   4.854   3.852   2.239 -2.0687 -0.9313 -0.4402
 2438TIP3    H2 7279   4.809   3.978   2.168 -2.1218 -0.4297  0.4695
 2439TIP3   OH2 7280   0.212   6.353   3.749  0.9482  0.3479  0.4976
 2439TIP3    H1 7281   0.262   6.271   3.746 -0.1553 -0.3252 -0.7035
 2439TIP3    H2 7282   0.120   6.325   3.752  0.5489  1.5413  0.0957
 2440TIP3   OH2 7283   3.497   1.328   1.567 -0.1533 -0.4018 -0.2590
 2440TIP3    H1 7284   3.481   1.352   1.659  3.4378 -0.4874  0.5539
 2440TIP3    H2 7285   3.509   1.233   1.569 -0.9062 -0.5199 -1.0036
 2441TIP3   OH2 7286   5.856   4.981   5.791  0.5069  0.0259 -0.5588
 2441TIP3    H1 7287   5.937   5.029   5.812 -0.5022  0.8599  1.8037
 2441TIP3    H2 7288   5.792   5.050   5.771 -0.1613 -0.5154 -0.3154
 2442TIP3   OH2 7289   5.532   5.852   4.020 -0.2836  0.1556 -0.5251
 2442TIP3    H1 7290   5.606   5.827   4.074 -1.1875 -2.0302 -0.1951
 2442TIP3    H2 7291   5.570   5.883   3.938  1.0021  0.2050  0.0781
 2443TIP3   OH2 7292   1.426   0.263   2.561  0.2741  0.0876  0.0020
 2443TIP3    H1 7293   1.383   0.341   2.596 -1.6821 -1.2094  0.6337
 2443TIP3    H2 7294   1.395   0.257   2.470 -0.9785 -0.8792  0.4742
 2444TIP3   OH2 7295   1.589   2.225   4.927 -0.0134  0.6616  0.6243
 2444TIP3    H1 7296   1.578   2.294   4.861 -0.0452  1.1956  1.1854
 2444TIP3    H2 7297   1.660   2.257   4.983  1.0139 -0.4531  0.0016
 2445TIP3   OH2 7298   6.413   5.129   0.909  0.1446 -0.6070 -0.2469
 2445TIP3    H1 7299   6.444   5.196   0.969 -1.5712 -0.2464  0.2648
 2445TIP3    H2 7300   6.491   5.105   0.858  1.2616  0.2060  1.0222
 2446TIP3   OH2 7301   5.001   5.998   3.587  0.2805  0.1703  0.4864
 2446TIP3    H1 7302   4.978   5.961   3.672 -0.0260 -0.2605  0.2189
 2446TIP3    H2 7303   5.096   5.992   3.583  0.1755 -1.5972 -0.0008
 2447TIP3   OH2 7304   4.156   4.485   3.162 -0.1206 -0.0787 -0.5871
 2447TIP3    H1 7305   4.114   4.564   3.127  0.9001  0.4149 -0.7317
 2447TIP3    H2 7306   4.193   4.442   3.085  0.1296 -0.2091 -0.3926
 2448TIP3   OH2 7307   6.028   3.394   1.731  0.2607  0.1574 -0.1453
 2448TIP3    H1 7308   6.019   3.434   1.645  0.2865  0.7384  0.1146
 2448TIP3    H2 7309   5.992   3.458   1.792 -0.0338 -0.3741  0.2530
 2449TIP3   OH2 7310   3.837   4.617   2.387 -0.3368 -0.5238  0.3688
 2449TIP3    H1 7311   3.900   4.553   2.352 -1.3144 -1.6864  0.6727
 2449TIP3    H2 7312   3.796   4.654   2.309  1.4595  1.0668  0.1149
 2450TIP3   OH2 7313   3.273   5.719   5.525  0.2570 -0.0891  0.7253
 2450TIP3    H1 7314   3.345   5.760   5.574  0.6177 -0.8106  0.8153
 2450TIP3    H2 7315   3.196   5.769   5.550  0.9522  1.7225 -0.5956
 2451TIP3   OH2 7316   3.078   4.618   0.491 -0.0038  0.0562  0.3480
 2451TIP3    H1 7317   3.056   4.546   0.550 -1.5426  1.5431  1.6667
 2451TIP3    H2 7318   3.007   4.681   0.502  0.6353  1.2308 -1.7267
 2452TIP3   OH2 7319   3.102   5.760   3.442 -0.2010  0.4180  0.1663
 2452TIP3    H1 7320   3.143   5.685   3.485  1.0202  0.2180 -1.2697
 2452TIP3    H2 7321   3.008   5.745   3.454  0.0376 -0.8725  0.6816
 2453TIP3   OH2 7322   6.491   5.736   3.279  0.5354 -0.4684 -0.0502
 2453TIP3    H1 7323   6.404   5.768   3.255  0.9429 -0.2881 -1.4046
 2453TIP3    H2 7324   6.478   5.642   3.293 -0.5239  0.0552  3.2547
 2454TIP3   OH2 7325   4.669   4.340   1.469 -0.0551  0.4143 -0.2803
 2454TIP3    H1 7326   4.594   4.378   1.515 -0.4975 -0.1915 -0.4819
 2454TIP3    H2 7327   4.738   4.335   1.535  0.1386  1.8966 -0.3455
 2455TIP3   OH2 7328   1.195   1.599   1.451 -0.8498  0.0418  0.0887
 2455TIP3    H1 7329   1.173   1.516   1.493 -1.0474  0.7231  1.4231
 2455TIP3    H2 7330   1.139   1.663   1.496 -0.4490  0.9378 -0.6666
 2456TIP3   OH2 7331   2.491   3.989   0.061  0.0044 -0.0029 -0.3343
 2456TIP3    H1 7332   2.537   3.985  -0.022  1.1381  0.2344  0.2674
 2456TIP3    H2 7333   2.456   4.079   0.065  2.9556  1.2288  0.9555
 2457TIP3   OH2 7334   0.075   1.293   2.494 -0.4787 -0.4909  0.1308
 2457TIP3    H1 7335   0.034   1.226   2.440 -1.1199  0.3326 -0.4426
 2457TIP3    H2 7336   0.121   1.245   2.562  1.8633 -1.6603 -2.1237
 2458TIP3   OH2 7337   3.699   4.453   1.325 -0.0408 -0.0930 -0.4308
 2458TIP3    H1 7338   3.670   4.528   1.274  0.2933  0.5453  0.2956
 2458TIP3    H2 7339   3.667   4.470   1.414  0.9146 -0.2960 -0.0329
 2459TIP3   OH2 7340   4.519   5.823   3.762  0.3924 -0.0150  0.5280
 2459TIP3    H1 7341   4.571   5.892   3.802  2.8336 -1.0532 -0.6558
 2459TIP3    H2 7342   4.560   5.741   3.791 -1.0930 -0.9204  0.1917
 2460TIP3   OH2 7343   6.425   5.869   2.491  0.2367  0.1923 -0.1360
 2460TIP3    H1 7344   6.400   5.960   2.475  0.5117  0.8025  2.3806
 2460TIP3    H2 7345   6.415   5.825   2.407  1.8625  2.9427 -1.9095
 2461TIP3   OH2 7346   4.461   0.042   0.845  0.0738  0.0058  0.1610
 2461TIP3    H1 7347   4.435   0.119   0.894 -2.0026  0.6225 -1.7212
 2461TIP3    H2 7348   4.459   0.070   0.753  1.7801 -1.6206 -0.4548
 2462TIP3   OH2 7349   5.743   0.214   0.782 -0.2349 -0.3642  0.5140
 2462TIP3    H1 7350   5.696   0.283   0.735  1.2603  0.2592 -0.1412
 2462TIP3    H2 7351   5.710   0.132   0.745 -0.9252  0.0387  0.2138
 2463TIP3   OH2 7352   1.490   2.709   5.594  0.0526  0.3318 -0.2181
 2463TIP3    H1 7353   1.480   2.789   5.542 -0.8634 -0.2889 -1.0318
 2463TIP3    H2 7354   1.493   2.740   5.685 -0.7129  1.2723 -0.4960
 2464TIP3   OH2 7355   0.043   5.536   2.569  0.1450 -0.2243  0.0708
 2464TIP3    H1 7356   0.077   5.446   2.566 -0.2507 -0.5120  2.2489
 2464TIP3    H2 7357  -0.026   5.533   2.636  0.6670  1.8752  0.7783
 2465TIP3   OH2 7358   2.005   3.439   3.770 -0.2243  0.8829  0.0573
 2465TIP3    H1 7359   1.951   3.516   3.749  0.5850  1.8089  1.2273
 2465TIP3    H2 7360   2.087   3.455   3.724  0.2007  1.0853  0.8657
 2466TIP3   OH2 7361   0.623   3.718   5.540  0.5453 -0.1400 -0.0427
 2466TIP3    H1 7362   0.612   3.802   5.495 -0.7549  0.4006  1.2184
 2466TIP3    H2 7363   0.634   3.655   5.469 -0.8985  0.7483 -1.1234
 2467TIP3   OH2 7364   6.932   2.643   2.051 -0.2012  0.4618  0.2074
 2467TIP3    H1 7365   6.902   2.553   2.035  0.1570  0.6957 -2.0233
 2467TIP3    H2 7366   6.862   2.682   2.105 -1.1859 -0.6515 -0.2163
 2468TIP3   OH2 7367   3.566   2.408   1.564 -0.1834  0.4214 -0.0939
 2468TIP3    H1 7368   3.551   2.440   1.476  2.2093  0.5707 -0.4908
 2468TIP3    H2 7369   3.480   2.376   1.593 -1.3112  1.6741 -1.9043
 2469TIP3   OH2 7370   6.653   1.319   4.109 -0.8068  0.4362 -0.0622
 2469TIP3    H1 7371   6.619   1.374   4.038 -0.6590 -0.7765 -1.1174
 2469TIP3    H2 7372   6.701   1.380   4.166 -0.2136  1.3297 -1.4575
 2470TIP3   OH2 7373   0.597   6.543   4.687  0.0886 -0.0010  0.5036
 2470TIP3    H1 7374   0.685   6.556   4.651 -0.7524  0.8596 -1.3648
 2470TIP3    H2 7375   0.562   6.468   4.640  0.4652 -1.6086  2.6303
 2471TIP3   OH2 7376   6.057   0.748   1.277 -0.2826  0.1016  0.1933
 2471TIP3    H1 7377   6.015   0.813   1.221  1.0368  0.4539 -0.4305
 2471TIP3    H2 7378   6.117   0.701   1.218 -0.1464 -0.6968  0.9496
 2472TIP3   OH2 7379   1.635   1.542   5.861  0.3475 -0.1322  0.0070
 2472TIP3    H1 7380   1.561   1.583   5.906  0.5939 -0.0779  0.3611
 2472TIP3    H2 7381   1.607   1.538   5.769  0.9805  2.3936 -0.3738
 2473TIP3   OH2 7382   7.044   4.046   2.328  0.4229 -0.1362  0.1351
 2473TIP3    H1 7383   6.984   4.098   2.382 -1.0626 -1.6240  0.0062
 2473TIP3    H2 7384   7.001   3.961   2.320  2.0539 -0.9094 -0.9106
 2474TIP3   OH2 7385   4.030   1.367   5.501 -0.2603  0.2224 -0.3439
 2474TIP3    H1 7386   4.035   1.288   5.448  0.0522  1.6259 -2.5429
 2474TIP3    H2 7387   3.979   1.429   5.448 -1.4357  1.1897  1.7700
 2475TIP3   OH2 7388   1.287   1.732   0.801 -0.5147  0.0007 -0.4009
 2475TIP3    H1 7389   1.292   1.640   0.824  0.7650  0.2958  0.5872
 2475TIP3    H2 7390   1.296   1.733   0.706 -2.0904 -0.9691 -0.6066
 2476TIP3   OH2 7391   6.058   0.140   0.514  0.3434 -0.4527 -0.3465
 2476TIP3    H1 7392   6.067   0.129   0.608 -1.7441  1.0235  0.0950
 2476TIP3    H2 7393   6.015   0.060   0.484 -0.1005 -0.4117  0.1671
 2477TIP3   OH2 7394   3.579   0.104   4.064  0.3759  0.3496  0.3487
 2477TIP3    H1 7395   3.539   0.144   3.987 -0.2617  0.1719  0.5777
 2477TIP3    H2 7396   3.608   0.178   4.117  1.4912  0.4698 -0.3916
 2478TIP3   OH2 7397   1.966   0.383   3.908 -0.2232  0.1739  0.3743
 2478TIP3    H1 7398   1.982   0.292   3.885 -0.4023 -0.1320  1.3923
 2478TIP3    H2 7399   1.871   0.394   3.903 -0.1252  0.6063 -0.7773
 2479TIP3   OH2 7400   1.508   4.099   4.279 -0.0804  0.5758 -0.0703
 2479TIP3    H1 7401   1.444   4.042   4.322 -0.7218  1.6918  0.5093
 2479TIP3    H2 7402   1.538   4.158   4.348  0.8735  0.6906 -0.5590
 2480TIP3   OH2 7403   4.738   0.264   2.360  0.3804  0.2782  0.3195
 2480TIP3    H1 7404   4.778   0.297   2.280 -1.3183 -0.3986 -0.8555
 2480TIP3    H2 7405   4.803   0.203   2.396  0.1449 -1.4551 -1.9880
 2481TIP3   OH2 7406   2.760   0.711   0.975  0.5956  0.1113 -0.0002
 2481TIP3    H1 7407   2.751   0.696   0.881  0.1075  1.6915 -0.2290
 2481TIP3    H2 7408   2.838   0.766   0.984 -0.7771  2.1374  0.2282
 2482TIP3   OH2 7409   4.808   0.190   0.544  0.1986  0.3379  0.0020
 2482TIP3    H1 7410   4.788   0.131   0.617  0.3211  0.1799 -0.0915
 2482TIP3    H2 7411   4.824   0.131   0.470 -1.2105  0.5359 -0.4791
 2483TIP3   OH2 7412   5.554   5.804   2.253 -0.2314  0.0205  0.4847
 2483TIP3    H1 7413   5.637   5.767   2.224 -0.0248  0.3783  0.6121
 2483TIP3    H2 7414   5.519   5.739   2.315 -0.3068 -0.3798  0.0244
 2484TIP3   OH2 7415   6.017   5.599   4.846 -0.4658  0.3119  0.5452
 2484TIP3    H1 7416   6.009   5.692   4.826 -0.0510  0.3179  0.3986
 2484TIP3    H2 7417   6.009   5.594   4.941  0.3747  0.5968  0.6403
 2485TIP3   OH2 7418   6.234   0.859   2.684 -0.4206  0.1441 -0.5823
 2485TIP3    H1 7419   6.318   0.889   2.718 -0.4398  0.5429 -0.8664
 2485TIP3    H2 7420   6.195   0.938   2.645 -0.5429 -0.2209 -1.2183
 2486TIP3   OH2 7421   6.110   2.533   0.735 -0.2044  0.1328  0.7375
 2486TIP3    H1 7422   6.074   2.572   0.815 -1.0464 -0.8204  0.8361
 2486TIP3    H2 7423   6.186   2.588   0.714 -0.5574  0.9909  1.6305
 2487TIP3   OH2 7424   0.686   0.405   3.168 -0.6155 -0.9672 -0.1623
 2487TIP3    H1 7425   0.651   0.494   3.161  3.7896  1.1789  1.0831
 2487TIP3    H2 7426   0.707   0.381   3.077  1.5555  1.0148 -0.2869
 2488TIP3   OH2 7427   1.401   6.362   3.954 -0.1259  0.0552 -0.2033
 2488TIP3    H1 7428   1.406   6.449   3.914  0.3205  0.1637  0.0753
 2488TIP3    H2 7429   1.308   6.338   3.948 -0.3580  0.7937  0.2186
 2489TIP3   OH2 7430   0.120   1.771   1.538  0.0916 -0.0613  0.7945
 2489TIP3    H1 7431   0.088   1.756   1.449  0.2721 -0.0960  0.7358
 2489TIP3    H2 7432   0.200   1.821   1.527  0.1412 -0.1087  0.9357
 2490TIP3   OH2 7433   0.924   4.803   3.363 -0.1315  0.4954  0.4276
 2490TIP3    H1 7434   0.881   4.720   3.381  0.9032 -0.1897 -0.1399
 2490TIP3    H2 7435   0.878   4.867   3.418 -1.5818 -0.2576  0.1361
 2491TIP3   OH2 7436   5.387   3.759   1.697 -0.1518 -0.2077  0.1914
 2491TIP3    H1 7437   5.387   3.674   1.741 -1.5200  0.3561  1.3593
 2491TIP3    H2 7438   5.387   3.738   1.604 -1.4963 -1.5198  0.4513
 2492TIP3   OH2 7439   2.844   6.214   0.554  0.4870 -0.4037 -0.3765
 2492TIP3    H1 7440   2.939   6.212   0.561  0.4706 -0.5495 -0.1947
 2492TIP3    H2 7441   2.824   6.166   0.474  0.5479 -0.6319 -0.2530
 2493TIP3   OH2 7442   1.505   3.545   1.963 -0.2824 -0.0382  0.0942
 2493TIP3    H1 7443   1.537   3.484   2.029 -1.6905 -0.1861  0.6756
 2493TIP3    H2 7444   1.452   3.608   2.012 -1.9338 -0.5566 -0.9407
 2494TIP3   OH2 7445   4.727   5.352   5.469 -0.3596  0.3553 -0.2373
 2494TIP3    H1 7446   4.805   5.303   5.495  0.7210  2.0077 -0.2236
 2494TIP3    H2 7447   4.667   5.344   5.543  0.3074  0.1205  0.2884
 2495TIP3   OH2 7448   1.554   0.669   4.358 -0.2410 -0.0161  0.4634
 2495TIP3    H1 7449   1.498   0.593   4.375  0.3984 -0.5873  0.0879
 2495TIP3    H2 7450   1.565   0.711   4.443 -0.2955 -0.5637  0.7440
 2496TIP3   OH2 7451   6.270   2.136   2.897 -0.0890 -0.6622  0.6896
 2496TIP3    H1 7452   6.333   2.204   2.870  0.2186 -0.3401  2.1311
 2496TIP3    H2 7453   6.317   2.054   2.887  0.6032 -0.4234  1.7436
 2497TIP3   OH2 7454   5.754   1.162   1.763 -0.1425  0.2108 -0.6289
 2497TIP3    H1 7455   5.734   1.226   1.832  2.4398  0.7334 -0.2662
 2497TIP3    H2 7456   5.743   1.077   1.806  0.1250  0.5037  0.0391
 2498TIP3   OH2 7457   4.352   3.023   3.508 -0.0169  0.2010  0.4275
 2498TIP3    H1 7458   4.313   3.017   3.595 -0.7659 -1.2496  0.0312
 2498TIP3    H2 7459   4.373   2.932   3.485 -1.5799  0.3039 -1.6714
 2499TIP3   OH2 7460   6.540   4.485   1.457 -0.2767 -0.0359 -0.7182
 2499TIP3    H1 7461   6.596   4.561   1.442  1.1013 -1.2645 -2.0230
 2499TIP3    H2 7462   6.514   4.493   1.549  0.1348  1.7887 -0.7216
 2500TIP3   OH2 7463   3.831   3.665   3.755 -0.0514 -0.7784 -0.0519
 2500TIP3    H1 7464   3.806   3.744   3.708 -1.0188  0.5817  2.5151
 2500TIP3    H2 7465   3.769   3.598   3.726 -1.3952  0.3407  0.1433
 2501TIP3   OH2 7466   3.605   0.258   2.212  0.2359 -0.0880  0.3716
 2501TIP3    H1 7467   3.515   0.276   2.239  0.0704  0.4958 -0.5436
 2501TIP3    H2 7468   3.599   0.178   2.160  0.5332 -1.1229  1.8598
 2502TIP3   OH2 7469   5.139   0.644   4.008 -0.1333  0.3402 -0.4169
 2502TIP3    H1 7470   5.102   0.600   3.932  0.1752 -3.3501  1.3561
 2502TIP3    H2 7471   5.079   0.623   4.079  2.3653 -1.0734  1.4136
 2503TIP3   OH2 7472   5.919   3.414   4.022  0.0519 -0.2577  0.5323
 2503TIP3    H1 7473   5.887   3.498   3.989  0.0860 -1.1882 -2.0789
 2503TIP3    H2 7474   5.995   3.394   3.968  0.6188 -1.5643  1.7443
 2504TIP3   OH2 7475   0.534   0.754   5.800  0.4439  0.6910  0.1628
 2504TIP3    H1 7476   0.517   0.728   5.890  2.9629 -0.2659  0.4562
 2504TIP3    H2 7477   0.624   0.786   5.801  1.1303 -0.8747 -2.2867
 2505TIP3   OH2 7478   0.139   3.016   3.268  0.2832 -0.7492 -0.6582
 2505TIP3    H1 7479   0.120   3.092   3.323  0.5611 -2.1837  1.5338
 2505TIP3    H2 7480   0.233   3.019   3.254  0.1652 -0.1949 -1.3769
 2506TIP3   OH2 7481   1.927   2.291   4.694 -0.4848 -0.1880  0.0550
 2506TIP3    H1 7482   1.861   2.301   4.625 -1.8391 -1.9375  1.0100
 2506TIP3    H2 7483   1.980   2.217   4.666  0.7701  0.8615 -0.4295
 2507TIP3   OH2 7484   1.094   3.412   5.527 -0.5033  0.0183 -0.4197
 2507TIP3    H1 7485   1.074   3.318   5.521 -2.5642  0.3633  0.1945
 2507TIP3    H2 7486   1.039   3.452   5.459 -0.6479  0.8891  0.1955
 2508TIP3   OH2 7487   6.167   0.301   5.062  0.0415 -0.2414  0.1293
 2508TIP3    H1 7488   6.260   0.293   5.040 -0.3083 -1.6475 -0.9521
 2508TIP3    H2 7489   6.166   0.310   5.158  1.2918  0.1834  0.1257
 2509TIP3   OH2 7490   6.806   0.920   0.531 -0.1984 -0.5720  0.4676
 2509TIP3    H1 7491   6.889   0.946   0.491 -0.6518  1.6108  0.8458
 2509TIP3    H2 7492   6.831   0.872   0.610  0.7161  0.0433  0.5680
 2510TIP3   OH2 7493   1.824   0.088   4.086  0.4660 -0.4468 -0.3111
 2510TIP3    H1 7494   1.858   0.110   3.999 -2.1531  1.2948 -0.9809
 2510TIP3    H2 7495   1.812   0.172   4.130  0.3821 -1.2251  1.2419
 2511TIP3   OH2 7496   2.717   0.899   0.503  0.8859 -0.2782  0.3109
 2511TIP3    H1 7497   2.756   0.948   0.431  1.7312  0.4154  1.2117
 2511TIP3    H2 7498   2.697   0.966   0.569 -0.4065 -0.8245  0.5008
 2512TIP3   OH2 7499   3.172   1.803   2.788  0.6887  0.2027 -0.2500
 2512TIP3    H1 7500   3.108   1.853   2.737  1.1676  1.0046 -0.0751
 2512TIP3    H2 7501   3.194   1.729   2.732  1.3910  1.2015 -1.3284
 2513TIP3   OH2 7502   2.506   1.101   4.034 -0.2958  0.7435  0.4488
 2513TIP3    H1 7503   2.445   1.080   3.963 -0.3772  1.4483  0.3024
 2513TIP3    H2 7504   2.593   1.087   3.997 -0.3459  0.7794  0.3196
 2514TIP3   OH2 7505   4.521   5.353   3.490 -0.5750 -0.3970  0.7521
 2514TIP3    H1 7506   4.553   5.326   3.404 -0.4980  2.8322 -0.3648
 2514TIP3    H2 7507   4.574   5.302   3.552  1.0967 -1.0524 -1.1031
 2515TIP3   OH2 7508   1.996   0.571   1.453 -0.0704  0.1421 -0.4189
 2515TIP3    H1 7509   1.912   0.616   1.444 -0.7866 -0.8596  0.9714
 2515TIP3    H2 7510   1.976   0.478   1.441  0.5317 -0.2772  1.4703
 2516TIP3   OH2 7511   3.381   2.413   3.972 -0.3392  0.4877  0.3862
 2516TIP3    H1 7512   3.347   2.343   4.027  0.7789 -0.7939 -0.4994
 2516TIP3    H2 7513   3.347   2.393   3.884  1.0197  0.2887 -0.1264
 2517TIP3   OH2 7514   6.100   2.673   3.634 -0.0985  0.2457  0.5316
 2517TIP3    H1 7515   6.010   2.675   3.667 -0.1748 -0.9095  0.4094
 2517TIP3    H2 7516   6.131   2.586   3.655  1.5296  1.1055  1.9447
 2518TIP3   OH2 7517   2.924   4.170   1.455 -0.2175  0.2826 -0.1043
 2518TIP3    H1 7518   2.865   4.192   1.527  0.5953  0.0311  0.6504
 2518TIP3    H2 7519   2.866   4.147   1.382 -1.0488  1.2291  0.2499
 2519TIP3   OH2 7520   6.737   2.099   4.485 -0.5028 -0.2355  0.7524
 2519TIP3    H1 7521   6.791   2.022   4.503  1.8518  1.3460  0.9292
 2519TIP3    H2 7522   6.705   2.127   4.570 -1.2891 -0.9325  0.6973
 2520TIP3   OH2 7523   0.315   5.367   4.646  0.1879 -0.4470  0.2979
 2520TIP3    H1 7524   0.338   5.275   4.635  1.2450 -0.3333  1.3456
 2520TIP3    H2 7525   0.226   5.374   4.612  0.3012 -1.7266 -0.3172
 2521TIP3   OH2 7526   0.940   5.686   2.989 -0.0878  0.7389  0.1319
 2521TIP3    H1 7527   0.996   5.627   2.938  0.3065  1.7021 -0.5954
 2521TIP3    H2 7528   0.852   5.653   2.976  0.2399 -0.4905  0.8604
 2522TIP3   OH2 7529   6.148   2.910   4.459  0.5182 -0.0908  0.8229
 2522TIP3    H1 7530   6.181   2.831   4.502  0.3031 -0.5115  0.2208
 2522TIP3    H2 7531   6.113   2.963   4.531 -0.4059 -1.0529  1.1013
 2523TIP3   OH2 7532   5.582   4.278   4.791  0.4687 -0.1049 -0.3408
 2523TIP3    H1 7533   5.515   4.334   4.830 -1.5586 -1.3784 -1.7906
 2523TIP3    H2 7534   5.643   4.338   4.750  0.2998  1.1075  1.0982
 2524TIP3   OH2 7535   3.301   1.870   3.802 -0.7212  0.4046 -0.2263
 2524TIP3    H1 7536   3.362   1.847   3.871 -1.3722  2.8630  1.2853
 2524TIP3    H2 7537   3.357   1.896   3.729 -0.0030  0.1310  0.2157
 2525TIP3   OH2 7538   1.134   6.514   2.598 -0.0779  0.3394 -0.3485
 2525TIP3    H1 7539   1.081   6.457   2.543  0.1142  0.1677 -0.3535
 2525TIP3    H2 7540   1.188   6.564   2.537  0.6626 -0.3714 -0.2822
 2526TIP3   OH2 7541   6.781   0.817   4.976 -0.5452 -0.3202  0.2196
 2526TIP3    H1 7542   6.770   0.766   5.056  1.2961 -0.7846  0.2182
 2526TIP3    H2 7543   6.828   0.895   5.004  0.9933 -0.9387 -0.5143
 2527TIP3   OH2 7544   6.813   5.053   3.400 -0.0933  0.2314  0.5247
 2527TIP3    H1 7545   6.907   5.054   3.414  0.1964 -0.5244 -1.0451
 2527TIP3    H2 7546   6.778   5.007   3.476  0.9052 -0.2590  0.7083
 2528TIP3   OH2 7547   5.612   3.856   0.589 -0.3551  0.3697 -0.1685
 2528TIP3    H1 7548   5.551   3.912   0.638 -0.5040  0.1866 -0.1440
 2528TIP3    H2 7549   5.614   3.774   0.638  0.5072  0.6361  0.2603
 2529TIP3   OH2 7550   5.714   3.268   2.725 -0.2111  0.0069  0.6308
 2529TIP3    H1 7551   5.796   3.315   2.716  0.4984 -0.9670  1.6537
 2529TIP3    H2 7552   5.661   3.322   2.783 -0.0522  0.3484  0.4565
 2530TIP3   OH2 7553   6.084   1.449   0.608  0.1279 -0.3108 -0.0218
 2530TIP3    H1 7554   6.148   1.438   0.678 -2.8752 -0.6488  2.9321
 2530TIP3    H2 7555   6.052   1.360   0.591  0.9609 -0.2714 -2.1273
 2531TIP3   OH2 7556   6.586   1.411   2.049  0.3420 -0.1758  0.0688
 2531TIP3    H1 7557   6.607   1.319   2.060 -0.7187 -0.5272 -0.6684
 2531TIP3    H2 7558   6.572   1.421   1.954 -1.1628  0.3649  0.3265
 2532TIP3   OH2 7559   6.735   5.745   5.620 -0.0676  0.5197 -0.1663
 2532TIP3    H1 7560   6.724   5.700   5.536  1.4088 -0.5148  0.1684
 2532TIP3    H2 7561   6.759   5.676   5.682 -0.2155  1.4082  0.9177
 2533TIP3   OH2 7562   1.847   5.090   3.962 -0.8186  0.0789 -0.5866
 2533TIP3    H1 7563   1.926   5.066   3.913 -0.2550  1.5124 -0.4033
 2533TIP3    H2 7564   1.853   5.184   3.973 -1.9403  0.0399  0.5339
 2534TIP3   OH2 7565   2.752   4.358   5.275  0.2135  0.1599  0.5008
 2534TIP3    H1 7566   2.847   4.350   5.272  0.3105 -0.1363  2.7522
 2534TIP3    H2 7567   2.729   4.408   5.197  2.5002  2.7138  1.3363
 2535TIP3   OH2 7568   4.457   3.341   0.475 -0.3239  0.2992  0.4069
 2535TIP3    H1 7569   4.479   3.347   0.568 -2.4099  0.4160  0.9318
 2535TIP3    H2 7570   4.489   3.255   0.448 -2.7664 -1.2881  2.1597
 2536TIP3   OH2 7571   1.018   3.908   0.449  0.8077  0.3229 -0.3237
 2536TIP3    H1 7572   0.962   3.833   0.472 -0.3393  0.9337 -1.0379
 2536TIP3    H2 7573   1.079   3.916   0.522  0.3900 -0.7732  0.1666
 2537TIP3   OH2 7574   2.172   1.141   1.046 -0.3168 -0.1775  0.2684
 2537TIP3    H1 7575   2.085   1.178   1.029  0.1830 -0.1074 -2.6526
 2537TIP3    H2 7576   2.156   1.048   1.061 -0.9364 -0.1359 -0.0841
 2538TIP3   OH2 7577   7.212   5.703   2.111  0.2392  0.4229 -0.2421
 2538TIP3    H1 7578   7.180   5.724   2.199 -0.3301 -0.3200 -0.2652
 2538TIP3    H2 7579   7.172   5.770   2.055  1.1284  1.3030  0.1386
 2539TIP3   OH2 7580   1.731   5.718   0.927  0.2488  0.2332 -0.1813
 2539TIP3    H1 7581   1.665   5.699   0.861  0.4916 -0.9626 -0.0956
 2539TIP3    H2 7582   1.746   5.813   0.919  0.5778  0.0671 -2.1347
 2540TIP3   OH2 7583   0.239   2.197   2.185 -0.5795 -0.3499  0.0351
 2540TIP3    H1 7584   0.290   2.131   2.232  0.6079  0.3365 -0.2576
 2540TIP3    H2 7585   0.172   2.224   2.248 -0.3180 -0.9472  0.5820
 2541TIP3   OH2 7586   1.828   0.219   1.160 -0.3597 -0.1917  0.4593
 2541TIP3    H1 7587   1.757   0.185   1.105 -0.0950  1.1774 -0.8061
 2541TIP3    H2 7588   1.892   0.148   1.162 -0.4008 -0.3171 -1.0060
 2542TIP3   OH2 7589   3.249   3.511   1.535  0.1034  0.1881  0.1405
 2542TIP3    H1 7590   3.276   3.442   1.473  1.3895 -0.8186  1.7262
 2542TIP3    H2 7591   3.155   3.501   1.543  0.3957 -2.4761  1.4341
 2543TIP3   OH2 7592   5.745   1.927   0.621  0.5768 -0.4684  0.7705
 2543TIP3    H1 7593   5.800   1.851   0.642  1.3885 -0.0758  0.1334
 2543TIP3    H2 7594   5.799   1.979   0.561 -1.0393 -0.7462 -0.9845
 2544TIP3   OH2 7595   6.590   0.174   2.808 -0.8250 -0.5578 -0.1675
 2544TIP3    H1 7596   6.609   0.141   2.896  1.8289 -1.0877 -0.8309
 2544TIP3    H2 7597   6.563   0.097   2.758 -1.0040 -0.5089 -0.1465
 2545TIP3   OH2 7598   2.375   6.099   4.128 -0.8396 -0.1398 -0.2813
 2545TIP3    H1 7599   2.389   6.098   4.223  0.9130  0.8141 -0.4831
 2545TIP3    H2 7600   2.294   6.050   4.115  0.5260 -3.0658  1.4077
 2546TIP3   OH2 7601   7.099   0.576   4.863 -0.2534 -0.4883  0.6431
 2546TIP3    H1 7602   7.064   0.639   4.800 -0.4418  0.0397  1.2655
 2546TIP3    H2 7603   7.071   0.491   4.830 -2.4111 -0.0747  1.2671
 2547TIP3   OH2 7604   5.434   1.455   5.548 -0.2181 -0.0075 -0.3199
 2547TIP3    H1 7605   5.431   1.441   5.643 -1.3273  0.3850 -0.2806
 2547TIP3    H2 7606   5.441   1.367   5.511  2.0397 -0.0817  0.1440
 2548TIP3   OH2 7607   6.721   5.314   2.233  0.1007 -0.2260  0.6937
 2548TIP3    H1 7608   6.762   5.391   2.194 -1.5759  0.4422  0.1708
 2548TIP3    H2 7609   6.773   5.297   2.312  1.1860  0.7483  0.2253
 2549TIP3   OH2 7610   6.911   2.483   0.191  0.6784 -0.1138  0.0473
 2549TIP3    H1 7611   6.872   2.432   0.120  1.0366  0.9204 -0.9270
 2549TIP3    H2 7612   6.893   2.574   0.168  0.5863  0.2384  1.4258
 2550TIP3   OH2 7613   2.954   1.229   3.293 -0.2919  0.5795 -0.2336
 2550TIP3    H1 7614   2.902   1.302   3.326 -0.0093 -0.1293  1.8921
 2550TIP3    H2 7615   3.037   1.269   3.266 -0.6177  1.2095 -0.3241
 2551TIP3   OH2 7616   6.419   1.913   2.140  0.1639  0.2686  0.4683
 2551TIP3    H1 7617   6.471   1.891   2.217 -0.6486 -1.4012  0.5962
 2551TIP3    H2 7618   6.328   1.906   2.169 -0.1501  0.1902 -0.4768
 2552TIP3   OH2 7619   5.335   1.086   4.346 -0.0140 -0.3310  0.0352
 2552TIP3    H1 7620   5.376   1.003   4.372 -0.4166 -0.4248  0.3771
 2552TIP3    H2 7621   5.407   1.149   4.346  0.3595 -0.7406 -0.5341
 2553TIP3   OH2 7622   4.479   4.620   2.432 -0.4060  0.2701 -0.4670
 2553TIP3    H1 7623   4.490   4.605   2.526 -2.9110 -0.3116 -0.1916
 2553TIP3    H2 7624   4.517   4.542   2.391  1.0415  0.6950 -0.0045
 2554TIP3   OH2 7625   3.394   2.876   1.887  0.3159  0.8644  0.6270
 2554TIP3    H1 7626   3.487   2.885   1.867 -0.0375 -1.2060 -2.7591
 2554TIP3    H2 7627   3.372   2.787   1.860 -3.1005  2.0566 -1.2303
 2555TIP3   OH2 7628   4.511   6.124   1.609 -0.3948 -0.3135  0.5377
 2555TIP3    H1 7629   4.575   6.129   1.539 -0.7094 -2.7754 -0.0019
 2555TIP3    H2 7630   4.461   6.206   1.602  2.4755  1.6057  0.8757
 2556TIP3   OH2 7631   1.808   0.789   2.603 -0.6731 -0.3456 -0.4683
 2556TIP3    H1 7632   1.787   0.861   2.662  0.3338 -0.0709 -0.4295
 2556TIP3    H2 7633   1.805   0.710   2.658  0.1892 -0.0990 -0.0512
 2557TIP3   OH2 7634   2.836   2.723   1.458  0.1195 -0.6858 -0.2338
 2557TIP3    H1 7635   2.752   2.684   1.436  0.3065 -1.3460  0.1844
 2557TIP3    H2 7636   2.870   2.757   1.375 -0.9972  0.4818 -0.2440
 2558TIP3   OH2 7637   3.302   0.090   2.029 -0.4549 -0.4406 -0.1238
 2558TIP3    H1 7638   3.270   0.176   2.001 -0.2386  0.0244  1.0072
 2558TIP3    H2 7639   3.373   0.071   1.967 -1.2438 -0.3394 -1.0886
 2559TIP3   OH2 7640   5.733   0.633   0.749 -0.1938 -0.0834  0.0569
 2559TIP3    H1 7641   5.806   0.580   0.718 -0.0387 -1.5938  2.6678
 2559TIP3    H2 7642   5.774   0.703   0.800 -0.4712  1.8161 -2.1472
 2560TIP3   OH2 7643   1.459   3.668   3.444  0.0680  0.0905 -0.1418
 2560TIP3    H1 7644   1.520   3.740   3.426 -1.4663  1.6682  0.5414
 2560TIP3    H2 7645   1.514   3.597   3.477  1.4519  1.8418  1.5795
 2561TIP3   OH2 7646   3.862   2.233   2.413 -0.6769  0.9949  0.2882
 2561TIP3    H1 7647   3.814   2.262   2.335  1.8927  1.3370 -1.3189
 2561TIP3    H2 7648   3.840   2.141   2.423 -0.9780  0.9212 -0.9224
 2562TIP3   OH2 7649   0.401   0.821   4.385  0.4290 -0.5402 -0.2594
 2562TIP3    H1 7650   0.445   0.892   4.432 -0.0165 -1.0474  0.9702
 2562TIP3    H2 7651   0.390   0.854   4.296  1.5631  0.3373 -0.0930
 2563TIP3   OH2 7652   1.507   2.961   5.441 -0.4128 -0.2873  0.2505
 2563TIP3    H1 7653   1.448   3.031   5.415  0.0572  0.0858  0.1712
 2563TIP3    H2 7654   1.577   3.005   5.489 -1.5326 -0.9927  2.7121
 2564TIP3   OH2 7655   5.583   1.483   5.816 -0.1907 -0.0464  0.1974
 2564TIP3    H1 7656   5.670   1.446   5.800  0.2984  0.2787  1.9084
 2564TIP3    H2 7657   5.550   1.436   5.892 -0.8119  0.9557  0.5705
 2565TIP3   OH2 7658   2.482   5.351   3.682  0.0673 -0.0630  0.4790
 2565TIP3    H1 7659   2.443   5.353   3.594  0.0489  0.2626  0.4950
 2565TIP3    H2 7660   2.412   5.379   3.740 -0.0202 -0.5902  0.6395
 2566TIP3   OH2 7661   2.905   3.195   4.450 -0.3978  0.1552  0.3915
 2566TIP3    H1 7662   2.852   3.125   4.411 -1.6708  1.6224 -0.6490
 2566TIP3    H2 7663   2.961   3.225   4.378 -0.4113  0.6936  0.6044
 2567TIP3   OH2 7664   5.075   1.198   0.287 -0.0662 -0.4420  0.3137
 2567TIP3    H1 7665   5.040   1.268   0.343 -2.3163 -0.9188 -0.3712
 2567TIP3    H2 7666   5.132   1.243   0.225 -0.7253  0.6708  0.4865
 2568TIP3   OH2 7667   4.176   3.080   2.411 -0.0516  0.3101 -0.5047
 2568TIP3    H1 7668   4.220   3.139   2.349  0.3466 -1.0553 -1.5579
 2568TIP3    H2 7669   4.202   2.992   2.383 -1.3514 -0.4163  0.4831
 2569TIP3   OH2 7670   5.841   2.914   2.594 -0.5709  0.1147  0.4998
 2569TIP3    H1 7671   5.786   2.893   2.669  1.0924  0.3240  1.8294
 2569TIP3    H2 7672   5.909   2.848   2.594 -1.6935 -1.2190 -2.1889
 2570TIP3   OH2 7673   4.531   3.052   0.453  0.1442 -0.0392 -0.1038
 2570TIP3    H1 7674   4.443   3.036   0.488  0.1058  1.0139  0.3090
 2570TIP3    H2 7675   4.584   2.979   0.486 -0.5327 -0.6261 -0.2686
 2571TIP3   OH2 7676   1.636   1.745   0.742 -0.5302  0.0938 -0.4367
 2571TIP3    H1 7677   1.637   1.657   0.703 -0.1037 -0.0099 -0.1992
 2571TIP3    H2 7678   1.633   1.730   0.836  1.3885  0.2879 -0.3050
 2572TIP3   OH2 7679   6.498   4.156   3.747 -0.1696  0.1511  0.2470
 2572TIP3    H1 7680   6.525   4.068   3.773 -0.6942  0.1926  0.9872
 2572TIP3    H2 7681   6.472   4.198   3.830  0.0677  0.9964 -0.0976
 2573TIP3   OH2 7682   4.273   0.573   0.558 -0.0790  0.3505 -0.1754
 2573TIP3    H1 7683   4.325   0.540   0.485  0.7574  0.8053  0.2041
 2573TIP3    H2 7684   4.240   0.657   0.528  2.1034  1.6201  0.7264
 2574TIP3   OH2 7685   5.718   4.064   3.394  0.4071  0.6408 -0.2883
 2574TIP3    H1 7686   5.626   4.038   3.392  0.4931  0.3804 -1.5269
 2574TIP3    H2 7687   5.735   4.083   3.487 -0.6360 -0.2010  0.1015
 2575TIP3   OH2 7688   2.192   2.843   3.369 -0.9612  0.0679 -0.1042
 2575TIP3    H1 7689   2.286   2.853   3.388 -0.7933  0.0392 -0.8848
 2575TIP3    H2 7690   2.153   2.926   3.398 -1.0144 -0.6150  1.9793
 2576TIP3   OH2 7691   6.657   4.181   5.436  0.0613  0.3209  0.1571
 2576TIP3    H1 7692   6.664   4.124   5.512  0.6275 -0.4012 -0.4145
 2576TIP3    H2 7693   6.657   4.270   5.472 -0.0090 -0.0171  1.0095
 2577TIP3   OH2 7694   0.217   6.622   2.986 -0.2657  0.6225 -0.0515
 2577TIP3    H1 7695   0.157   6.562   3.030 -0.3710  1.3869  0.8705
 2577TIP3    H2 7696   0.301   6.577   2.984 -0.2425  0.6024  1.0047
 2578TIP3   OH2 7697   5.669   6.681   2.637 -0.0391  0.4606  0.8306
 2578TIP3    H1 7698   5.762   6.668   2.654 -0.4328 -1.7966  1.5908
 2578TIP3    H2 7699   5.628   6.685   2.723 -0.6142  2.1779  0.5271
 2579TIP3   OH2 7700   3.588   1.731   4.756 -0.3569 -0.1800 -0.5406
 2579TIP3    H1 7701   3.591   1.639   4.732 -0.1098 -0.3147 -0.0150
 2579TIP3    H2 7702   3.562   1.776   4.676 -1.6046 -0.8168 -0.5147
 2580TIP3   OH2 7703   1.875   4.074   4.472 -0.8763  0.8349  0.3308
 2580TIP3    H1 7704   1.878   3.980   4.455  1.2490  1.0154 -0.5954
 2580TIP3    H2 7705   1.817   4.083   4.548 -0.4141 -1.2922  0.9922
 2581TIP3   OH2 7706   0.936   0.488   0.436  0.0771 -0.2179 -0.4169
 2581TIP3    H1 7707   0.918   0.563   0.492  0.0503 -1.5575  1.4894
 2581TIP3    H2 7708   1.019   0.510   0.392  1.4424 -0.0632  2.0533
 2582TIP3   OH2 7709   4.224   3.532   3.197 -0.0223 -0.1298  0.1748
 2582TIP3    H1 7710   4.156   3.591   3.164  0.5856  0.6117  0.2185
 2582TIP3    H2 7711   4.221   3.457   3.138 -0.0333  0.4645 -0.6013
 2583TIP3   OH2 7712   5.339   5.599   0.408 -0.7018  0.2622 -0.9186
 2583TIP3    H1 7713   5.262   5.581   0.354  0.1284 -0.4135 -1.9277
 2583TIP3    H2 7714   5.354   5.518   0.456 -1.0797  0.6643 -0.0953
 2584TIP3   OH2 7715   3.035   2.670   5.300  0.0002  0.3552 -0.2901
 2584TIP3    H1 7716   3.069   2.685   5.212 -0.8588 -2.1526 -1.1209
 2584TIP3    H2 7717   3.091   2.601   5.336 -0.6022  0.2829  0.5469
 2585TIP3   OH2 7718   1.971   6.187   0.860 -0.0405 -0.3613  0.4860
 2585TIP3    H1 7719   1.887   6.230   0.874  0.2640  0.6182 -0.4548
 2585TIP3    H2 7720   2.034   6.241   0.908  0.2522 -0.1081 -0.1558
 2586TIP3   OH2 7721   2.741   0.194   4.734 -0.6883  0.6855  0.0285
 2586TIP3    H1 7722   2.662   0.194   4.788 -1.4023  0.9320 -1.0027
 2586TIP3    H2 7723   2.746   0.105   4.700 -0.7996  0.8090 -0.3102
 2587TIP3   OH2 7724   0.503   4.616   2.804 -0.1510  0.2438  0.2112
 2587TIP3    H1 7725   0.513   4.711   2.798  1.5847  0.2214  1.8836
 2587TIP3    H2 7726   0.551   4.581   2.729  2.3410  0.6302  1.5159
 2588TIP3   OH2 7727   5.450   3.009   2.380  0.1367  0.2751 -0.4030
 2588TIP3    H1 7728   5.425   3.028   2.290 -0.4982  0.9740 -0.0913
 2588TIP3    H2 7729   5.512   3.078   2.403 -0.4209  0.6628 -0.0130
 2589TIP3   OH2 7730   2.244   2.664   2.031 -0.1954  0.1021 -0.0217
 2589TIP3    H1 7731   2.331   2.701   2.045 -0.5556  0.9929 -0.0267
 2589TIP3    H2 7732   2.190   2.740   2.007 -0.7377 -0.5955 -1.0838
 2590TIP3   OH2 7733   4.623   3.636   2.067  0.7587  0.1361  0.1659
 2590TIP3    H1 7734   4.709   3.658   2.104  1.6124 -0.5212 -1.3550
 2590TIP3    H2 7735   4.565   3.706   2.098  1.8412  0.6244  1.1668
 2591TIP3   OH2 7736   0.464   0.876   0.193  0.3373 -0.2718  0.1750
 2591TIP3    H1 7737   0.442   0.874   0.100  0.9014 -0.4231  0.0444
 2591TIP3    H2 7738   0.559   0.883   0.195  0.3923 -1.0831  0.7482
 2592TIP3   OH2 7739   5.089   3.096   1.598 -0.9390 -0.6270 -0.5357
 2592TIP3    H1 7740   5.097   3.157   1.525  2.3546 -1.2745 -0.8798
 2592TIP3    H2 7741   5.130   3.140   1.672 -1.4476 -1.2039  0.1101
 2593TIP3   OH2 7742   4.443   4.931   2.355 -0.6959  0.1330 -0.1144
 2593TIP3    H1 7743   4.359   4.899   2.323 -0.2172 -0.9876 -0.2704
 2593TIP3    H2 7744   4.464   4.874   2.429  0.5309 -0.4324 -0.8635
 2594TIP3   OH2 7745   5.982   1.361   5.319 -0.1938 -0.0934 -0.3711
 2594TIP3    H1 7746   6.072   1.343   5.293  0.4044  0.3826  1.2522
 2594TIP3    H2 7747   5.984   1.360   5.415 -1.9365 -0.1502 -0.2969
 2595TIP3   OH2 7748   6.492   3.370   0.169 -0.1365 -0.4592 -0.1749
 2595TIP3    H1 7749   6.519   3.299   0.110 -2.0237 -0.7873 -0.7101
 2595TIP3    H2 7750   6.548   3.359   0.246  0.4812 -1.7628 -0.7734
 2596TIP3   OH2 7751   4.886   2.704   1.758  0.4275  0.3251  0.4298
 2596TIP3    H1 7752   4.796   2.687   1.785  1.0270  0.9556  3.1284
 2596TIP3    H2 7753   4.939   2.678   1.834  2.4551  0.7328 -0.7744
 2597TIP3   OH2 7754   0.263   6.129   3.133  0.3404  0.3666  0.3520
 2597TIP3    H1 7755   0.235   6.061   3.072  1.2529 -0.7864  1.1727
 2597TIP3    H2 7756   0.304   6.196   3.078 -0.2471  0.0948 -0.4325
 2598TIP3   OH2 7757   3.997   3.639   4.285  0.6534 -0.1078  0.3064
 2598TIP3    H1 7758   3.980   3.564   4.227 -0.1057  0.7219 -0.5863
 2598TIP3    H2 7759   3.910   3.667   4.313  0.8806  0.9199  0.0008
 2599TIP3   OH2 7760   2.332   1.711   3.301 -0.3227 -0.3266 -0.5808
 2599TIP3    H1 7761   2.272   1.646   3.266 -1.3972  0.6811 -0.6831
 2599TIP3    H2 7762   2.284   1.752   3.373  0.0422  0.8316 -0.9717
 2600TIP3   OH2 7763   3.745   4.665   3.029 -0.1346  0.3189 -0.5055
 2600TIP3    H1 7764   3.826   4.680   2.980 -0.4507 -0.6853 -1.3741
 2600TIP3    H2 7765   3.700   4.750   3.026  0.1469  0.4477 -1.4107
 2601TIP3   OH2 7766   6.122   6.505   3.641  0.3066 -0.1491 -0.4016
 2601TIP3    H1 7767   6.167   6.527   3.722  2.3891 -3.4232 -0.5129
 2601TIP3    H2 7768   6.179   6.539   3.572 -1.1364  2.0368 -0.6529
 2602TIP3   OH2 7769   1.472   0.710   4.906  0.1551  0.3973 -0.7460
 2602TIP3    H1 7770   1.562   0.685   4.924  0.6829  3.0517  0.9143
 2602TIP3    H2 7771   1.420   0.664   4.972  0.8508  1.8650  0.9303
 2603TIP3   OH2 7772   6.939   1.713   1.395 -0.2937  0.3809 -0.7126
 2603TIP3    H1 7773   6.873   1.747   1.455 -0.6748 -0.9494 -0.3278
 2603TIP3    H2 7774   6.918   1.620   1.387  1.5597 -0.1023 -0.5238
 2604TIP3   OH2 7775   3.054   0.950   5.076  0.1528  0.0502 -0.0109
 2604TIP3    H1 7776   3.051   1.035   5.121  2.0412 -0.0806  0.4358
 2604TIP3    H2 7777   3.049   0.886   5.147 -0.3791 -0.2088 -0.2814
 2605TIP3   OH2 7778   5.819   3.676   4.897 -0.6240  0.0671 -0.0733
 2605TIP3    H1 7779   5.897   3.727   4.916 -1.1743  0.4568  1.2399
 2605TIP3    H2 7780   5.835   3.591   4.938 -0.1668 -0.4787 -1.3279
 2606TIP3   OH2 7781   5.503   2.500   2.459  0.7557  0.2909 -0.0032
 2606TIP3    H1 7782   5.426   2.466   2.412 -0.4050  0.2370  1.8531
 2606TIP3    H2 7783   5.518   2.437   2.529  0.9005  1.6403  1.2247
 2607TIP3   OH2 7784   1.070   1.680   0.328  0.4441 -0.8134  0.3399
 2607TIP3    H1 7785   1.106   1.728   0.403 -0.7457  0.2623  0.2701
 2607TIP3    H2 7786   1.016   1.745   0.282  0.1643 -1.7857 -0.7563
 2608TIP3   OH2 7787   3.169   0.067   3.393  0.5118  0.1152  0.1164
 2608TIP3    H1 7788   3.159   0.009   3.468  1.7533 -0.7429 -0.3624
 2608TIP3    H2 7789   3.238   0.128   3.419  0.7379  0.0039 -0.2307
 2609TIP3   OH2 7790   0.161   2.889   3.993 -0.3003 -0.6136 -0.1932
 2609TIP3    H1 7791   0.146   2.838   3.913  0.2558 -0.5094 -0.3698
 2609TIP3    H2 7792   0.109   2.844   4.060  0.2269 -1.4517 -0.3299
 2610TIP3   OH2 7793   1.425   0.636   5.251 -0.1504  0.8001  0.1035
 2610TIP3    H1 7794   1.397   0.604   5.166 -0.5023 -0.3641  0.6300
 2610TIP3    H2 7795   1.362   0.597   5.313 -0.1527  1.9443  0.8507
 2611TIP3   OH2 7796   3.722   0.962   4.213 -0.1680 -0.4438 -0.3650
 2611TIP3    H1 7797   3.815   0.981   4.207  0.1514 -2.2471 -2.7437
 2611TIP3    H2 7798   3.694   0.948   4.122 -2.8050  0.1712  0.2516
 2612TIP3   OH2 7799   6.025   1.936   2.442  0.4078  0.3522  0.0470
 2612TIP3    H1 7800   6.015   1.907   2.351  0.1373  1.1006 -0.1712
 2612TIP3    H2 7801   6.003   1.859   2.494 -0.8413  0.3053 -0.5051
 2613TIP3   OH2 7802   2.097   1.496   2.755  0.2829 -0.3687  0.2321
 2613TIP3    H1 7803   2.070   1.573   2.806 -1.3071 -0.8191  0.1188
 2613TIP3    H2 7804   2.135   1.436   2.820  0.8468  0.1949  0.4346
 2614TIP3   OH2 7805   1.033   0.238   4.233  0.0508  0.1291 -0.0546
 2614TIP3    H1 7806   0.977   0.310   4.261 -1.3940 -1.3349  0.9972
 2614TIP3    H2 7807   0.976   0.182   4.179  0.8745 -0.7019 -0.0954
 2615TIP3   OH2 7808   3.822   4.062   0.833  0.8371  0.0832 -0.4694
 2615TIP3    H1 7809   3.894   4.015   0.792  0.2624 -1.5337  0.2889
 2615TIP3    H2 7810   3.745   4.039   0.780  0.2877 -1.1226  0.7783
 2616TIP3   OH2 7811   3.490   5.606   4.100  0.4570  0.3166  0.6305
 2616TIP3    H1 7812   3.454   5.588   4.013  1.1952  0.5934  0.2566
 2616TIP3    H2 7813   3.581   5.578   4.095  1.5410  3.5169  0.1619
 2617TIP3   OH2 7814   0.674   0.107   0.977  0.2723 -0.1596  0.2168
 2617TIP3    H1 7815   0.745   0.106   0.914  1.3698 -0.1960  1.4059
 2617TIP3    H2 7816   0.595   0.087   0.926  1.4359 -2.7856 -0.7117
 2618TIP3   OH2 7817   5.136   6.673   2.687 -0.0998  0.4160  0.3180
 2618TIP3    H1 7818   5.222   6.653   2.651 -0.4434 -3.1098  1.0805
 2618TIP3    H2 7819   5.135   6.630   2.773 -2.1682  1.5728  0.9489
 2619TIP3   OH2 7820   2.545   1.734   3.482  0.0770  0.0713  0.0082
 2619TIP3    H1 7821   2.635   1.734   3.448  0.3781 -1.2176  0.7190
 2619TIP3    H2 7822   2.490   1.730   3.404  0.6129  1.2731 -0.4513
 2620TIP3   OH2 7823   6.249   4.955   4.642  0.3274  0.4543  0.1477
 2620TIP3    H1 7824   6.287   5.041   4.660 -0.1034  0.8146 -0.5977
 2620TIP3    H2 7825   6.184   4.971   4.573 -0.2595 -0.3563  0.4940
 2621TIP3   OH2 7826   1.175   4.244   3.506  0.3210  0.1148 -0.2699
 2621TIP3    H1 7827   1.140   4.159   3.479 -0.3853  1.0961 -2.6843
 2621TIP3    H2 7828   1.255   4.253   3.454  0.5858  0.7805  0.2502
 2622TIP3   OH2 7829   1.948   3.506   1.354 -0.6708 -0.0836 -0.2028
 2622TIP3    H1 7830   1.880   3.454   1.398 -1.1272  0.1918 -0.5734
 2622TIP3    H2 7831   1.908   3.592   1.340  0.7793  1.0991  2.2877
 2623TIP3   OH2 7832   6.753   5.470   1.017  0.6530  0.5620  0.3844
 2623TIP3    H1 7833   6.736   5.487   0.924 -1.0212 -2.0041  0.1299
 2623TIP3    H2 7834   6.773   5.556   1.054  0.8246  1.7238 -2.2230
 2624TIP3   OH2 7835   5.183   2.325   0.080  0.3728 -0.2420 -0.3308
 2624TIP3    H1 7836   5.258   2.340   0.023 -0.5903 -1.1412 -1.8829
 2624TIP3    H2 7837   5.216   2.345   0.168  2.0424  0.6427 -1.1082
 2625TIP3   OH2 7838   2.769   6.714   2.464 -0.0353  0.2101  0.0479
 2625TIP3    H1 7839   2.802   6.629   2.493  1.8116  1.3300  1.4967
 2625TIP3    H2 7840   2.840   6.750   2.411 -0.5728  1.0498 -0.1133
 2626TIP3   OH2 7841   1.425   4.356   5.499 -0.0408  0.0863  0.0631
 2626TIP3    H1 7842   1.451   4.409   5.424 -0.8862  0.3080 -0.0757
 2626TIP3    H2 7843   1.334   4.378   5.514 -0.1548 -0.6822  0.5572
 2627TIP3   OH2 7844   5.764   4.378   3.868 -0.3518 -0.0192 -0.2720
 2627TIP3    H1 7845   5.739   4.303   3.813  0.1147 -0.0133 -0.4989
 2627TIP3    H2 7846   5.859   4.369   3.880 -0.6442 -0.8345  1.7653
 2628TIP3   OH2 7847   4.355   5.900   2.432  0.4174  0.1642 -0.1579
 2628TIP3    H1 7848   4.363   5.986   2.391  1.0048 -0.1149 -0.6486
 2628TIP3    H2 7849   4.260   5.885   2.439  0.3135  0.7213 -0.3422
 2629TIP3   OH2 7850   4.045   0.267   1.221  0.3528  0.0752  0.2339
 2629TIP3    H1 7851   4.086   0.345   1.183 -0.7000  0.3347 -0.4123
 2629TIP3    H2 7852   4.092   0.194   1.180  1.3280  0.3468  0.8249
 2630TIP3   OH2 7853   3.982   0.160   3.587  0.0168 -0.5002 -0.1446
 2630TIP3    H1 7854   4.021   0.204   3.511 -0.3237 -2.0186 -1.2354
 2630TIP3    H2 7855   4.057   0.138   3.642  0.2337  0.9612  0.1965
 2631TIP3   OH2 7856   5.515   1.609   0.991 -0.5187  0.2558 -0.0203
 2631TIP3    H1 7857   5.459   1.632   0.917 -1.3012 -0.3627  0.3665
 2631TIP3    H2 7858   5.475   1.653   1.066  0.1582  0.7186  0.0715
 2632TIP3   OH2 7859   0.665   2.803   4.513  1.0706 -0.0261 -0.8194
 2632TIP3    H1 7860   0.701   2.778   4.427  0.7810 -1.2273 -0.6057
 2632TIP3    H2 7861   0.736   2.784   4.575  0.1240 -2.6229 -0.3644
 2633TIP3   OH2 7862   5.267   2.422   4.993  0.4982  0.2125  0.0591
 2633TIP3    H1 7863   5.275   2.493   4.929  0.2926 -0.5068 -0.7995
 2633TIP3    H2 7864   5.219   2.354   4.946 -1.8849  0.5829  1.7664
 2634TIP3   OH2 7865   5.071   0.872   1.676 -0.2975  0.4922  0.3814
 2634TIP3    H1 7866   5.075   0.780   1.701  3.9377  0.3306 -0.1186
 2634TIP3    H2 7867   5.073   0.872   1.580  0.2502  1.0540  0.3792
 2635TIP3   OH2 7868   7.095   5.616   3.974 -0.7414  0.1895  0.2520
 2635TIP3    H1 7869   7.143   5.574   4.045  1.3180 -1.4152 -1.8991
 2635TIP3    H2 7870   7.124   5.707   3.975 -1.4135  0.4174  1.9407
 2636TIP3   OH2 7871   7.034   2.895   3.715  1.0945 -0.4128  0.0134
 2636TIP3    H1 7872   7.020   2.850   3.798 -0.5247  0.4199  0.2350
 2636TIP3    H2 7873   7.009   2.832   3.648  0.3102 -0.3603  0.2558
 2637TIP3   OH2 7874   5.608   2.222   1.094 -0.0134 -0.0213 -0.0756
 2637TIP3    H1 7875   5.644   2.223   1.006  1.4881 -0.3228  0.5005
 2637TIP3    H2 7876   5.677   2.261   1.149 -1.7595  2.2660  0.6925
 2638TIP3   OH2 7877   5.564   5.899   0.735 -0.4407  0.2060  0.0675
 2638TIP3    H1 7878   5.602   5.980   0.701  0.8998  0.3814  1.8361
 2638TIP3    H2 7879   5.530   5.854   0.658  1.1067  1.2544 -1.2946
 2639TIP3   OH2 7880   3.251   3.626   5.404  0.3809  0.3952 -0.0674
 2639TIP3    H1 7881   3.332   3.655   5.361  0.8587  0.4637  0.8543
 2639TIP3    H2 7882   3.281   3.567   5.473 -0.5256 -1.8026 -1.4593
 2640TIP3   OH2 7883   4.118   0.687   2.835 -0.6064 -0.2569  0.3989
 2640TIP3    H1 7884   4.106   0.687   2.930 -0.6713 -0.5599  0.3905
 2640TIP3    H2 7885   4.112   0.780   2.811  1.5147  0.0623  0.9446
 2641TIP3   OH2 7886   0.282   6.373   2.487  0.3056 -0.3579  0.3348
 2641TIP3    H1 7887   0.300   6.291   2.533 -0.9673 -1.0434 -0.3320
 2641TIP3    H2 7888   0.317   6.441   2.544  1.0331 -1.3373  1.0894
 2642TIP3   OH2 7889   5.762   0.271   0.330  0.0155  0.8356 -0.3762
 2642TIP3    H1 7890   5.671   0.245   0.339  0.1470  0.6454  0.4852
 2642TIP3    H2 7891   5.784   0.313   0.413  0.5507  1.3997 -0.7907
 2643TIP3   OH2 7892   6.445   6.394   0.067  0.4551 -0.2452 -0.6021
 2643TIP3    H1 7893   6.388   6.330   0.023  0.7209 -1.4143  0.6857
 2643TIP3    H2 7894   6.502   6.341   0.122  0.7626  1.1170  0.4327
 2644TIP3   OH2 7895   0.837   0.396   4.287 -0.3136  0.1678 -0.2916
 2644TIP3    H1 7896   0.811   0.354   4.369 -0.4896 -0.7517 -0.8033
 2644TIP3    H2 7897   0.754   0.420   4.245 -0.2244  2.2526  0.5654
 2645TIP3   OH2 7898   6.158   6.319   2.223 -0.4144  0.5894 -0.1191
 2645TIP3    H1 7899   6.216   6.314   2.299 -0.6916  0.5852  0.0945
 2645TIP3    H2 7900   6.214   6.347   2.151 -0.4173  1.9484  0.3795
 2646TIP3   OH2 7901   3.316   1.391   3.001  0.4664 -0.0006  0.4885
 2646TIP3    H1 7902   3.324   1.313   2.946 -0.7565  1.5857 -2.1372
 2646TIP3    H2 7903   3.406   1.415   3.022  0.9774 -0.8813 -0.5704
 2647TIP3   OH2 7904   4.522   4.958   0.114  0.3518 -0.7838 -0.2302
 2647TIP3    H1 7905   4.582   5.031   0.102 -0.3369 -0.3484 -1.1406
 2647TIP3    H2 7906   4.437   4.998   0.132  0.3614 -1.3964  1.3316
 2648TIP3   OH2 7907   5.492   2.353   4.164  0.0196  0.2534  0.2691
 2648TIP3    H1 7908   5.419   2.291   4.174  0.9877 -0.7701  1.1788
 2648TIP3    H2 7909   5.450   2.439   4.173 -1.2708 -0.2568 -0.5155
 2649TIP3   OH2 7910   5.865   4.362   3.550  0.4887 -0.7486 -0.0535
 2649TIP3    H1 7911   5.927   4.372   3.623  1.7559  1.1025 -1.2773
 2649TIP3    H2 7912   5.820   4.279   3.568 -0.2020  0.2004  3.4765
 2650TIP3   OH2 7913   0.108   4.061   3.073 -0.1357 -0.3735 -0.0449
 2650TIP3    H1 7914   0.151   4.001   3.135  1.0407  0.9204  0.4373
 2650TIP3    H2 7915   0.114   4.147   3.115 -0.0755  0.3987 -1.5856
 2651TIP3   OH2 7916   1.076   5.318   2.353  0.0949  0.7147  0.5284
 2651TIP3    H1 7917   1.150   5.304   2.295  0.2103 -1.2067  1.0670
 2651TIP3    H2 7918   1.033   5.398   2.320  1.5748  1.0601 -0.6261
 2652TIP3   OH2 7919   6.936   5.012   2.944 -0.3037 -0.0820  0.1127
 2652TIP3    H1 7920   6.909   5.029   2.854  0.7782  1.6093  0.0575
 2652TIP3    H2 7921   6.881   5.071   2.997 -0.4508 -0.5592  0.5016
 2653TIP3   OH2 7922   6.289   1.180   3.643  0.3441 -0.9298 -0.7262
 2653TIP3    H1 7923   6.374   1.174   3.685  0.1389 -0.2099 -0.1939
 2653TIP3    H2 7924   6.261   1.089   3.632  0.5809 -1.1379  0.3336
 2654TIP3   OH2 7925   4.693   6.263   5.221 -0.1195  0.2815 -0.8224
 2654TIP3    H1 7926   4.693   6.167   5.221  0.3890  0.2451  0.9963
 2654TIP3    H2 7927   4.784   6.287   5.207  0.3299  0.3932  1.8483
 2655TIP3   OH2 7928   7.042   3.098   5.238 -0.3809  0.0216 -0.3059
 2655TIP3    H1 7929   7.038   3.146   5.322 -1.3054  0.9986 -0.8791
 2655TIP3    H2 7930   6.958   3.053   5.233  0.3367 -1.3923  0.0468
 2656TIP3   OH2 7931   0.565   5.376   1.094 -0.4253  0.1784  0.3606
 2656TIP3    H1 7932   0.517   5.334   1.165 -0.0875 -0.8844 -0.0193
 2656TIP3    H2 7933   0.534   5.466   1.094 -2.8473 -0.5958 -0.2440
 2657TIP3   OH2 7934   4.875   3.204   0.672 -0.1407  0.2168  0.3697
 2657TIP3    H1 7935   4.831   3.119   0.673 -0.8068  0.5506  1.1733
 2657TIP3    H2 7936   4.807   3.265   0.643 -0.5912  0.9042  2.6553
 2658TIP3   OH2 7937   2.618   4.872   2.290 -0.1808  0.0565  0.1113
 2658TIP3    H1 7938   2.581   4.871   2.202 -1.6148  0.0369  0.6858
 2658TIP3    H2 7939   2.572   4.942   2.335 -2.3941 -2.3806  1.9811
 2659TIP3   OH2 7940   2.418   2.004   1.350  0.1201 -0.2540  0.7102
 2659TIP3    H1 7941   2.486   1.955   1.303  0.4527  0.1543  0.7627
 2659TIP3    H2 7942   2.373   2.053   1.282  0.6220  0.3616  0.8182
 2660TIP3   OH2 7943   1.893   0.489   5.681  0.6569  0.0057 -0.1281
 2660TIP3    H1 7944   1.813   0.445   5.712  0.5037 -0.1498 -0.7452
 2660TIP3    H2 7945   1.868   0.581   5.675  1.2149  0.3646  1.9826
 2661TIP3   OH2 7946   4.583   2.507   3.652  0.0708  0.1064  0.4065
 2661TIP3    H1 7947   4.618   2.505   3.741 -0.6801  0.9143  0.7387
 2661TIP3    H2 7948   4.566   2.600   3.635  0.1645 -0.0468 -0.5638
 2662TIP3   OH2 7949   7.001   6.518   0.833  0.3046 -0.0879 -0.4426
 2662TIP3    H1 7950   6.965   6.499   0.746  0.5378  1.7575 -0.9764
 2662TIP3    H2 7951   7.083   6.565   0.816 -1.2083  3.2630  0.6669
 2663TIP3   OH2 7952   3.420   0.432   4.322 -0.3167 -0.6580 -0.3474
 2663TIP3    H1 7953   3.412   0.526   4.341 -1.5856 -0.8004 -0.1280
 2663TIP3    H2 7954   3.334   0.406   4.291  0.0793 -1.7208 -0.5883
 2664TIP3   OH2 7955   5.410   6.200   3.393 -0.2924 -0.1099  0.3202
 2664TIP3    H1 7956   5.389   6.290   3.370  0.5475 -0.0795 -0.3931
 2664TIP3    H2 7957   5.478   6.207   3.460  1.0324 -0.1859 -0.9681
 2665TIP3   OH2 7958   0.387   5.450   0.252 -0.2524  0.5361 -0.0149
 2665TIP3    H1 7959   0.349   5.446   0.339 -2.7520  1.0654 -0.9778
 2665TIP3    H2 7960   0.460   5.388   0.254 -1.8761 -1.4668  1.7065
 2666TIP3   OH2 7961   6.289   6.113   2.815  0.3072  0.3064  0.4484
 2666TIP3    H1 7962   6.349   6.137   2.743 -0.2476 -0.8412 -0.4177
 2666TIP3    H2 7963   6.209   6.085   2.771  0.1467 -0.9535  1.5082
 2667TIP3   OH2 7964   2.529   1.802   1.166  0.1188  0.1311 -0.8914
 2667TIP3    H1 7965   2.504   1.713   1.191  0.6751  0.3931  0.7598
 2667TIP3    H2 7966   2.583   1.791   1.088  1.1545 -1.1150 -0.0436
 2668TIP3   OH2 7967   6.889   1.992   3.480 -0.2552  0.0137  0.2669
 2668TIP3    H1 7968   6.869   1.901   3.456 -2.1094  0.2497  0.7819
 2668TIP3    H2 7969   6.820   2.016   3.542  1.9957  0.7731  2.6435
 2669TIP3   OH2 7970   5.956   1.909   3.767  0.1798 -0.8585 -0.3570
 2669TIP3    H1 7971   5.995   1.898   3.680 -0.9541  0.0100 -1.0081
 2669TIP3    H2 7972   5.901   1.831   3.778 -0.2878 -0.6011 -0.7800
 2670TIP3   OH2 7973   2.755   6.579   5.275  0.3021  0.6449 -0.4169
 2670TIP3    H1 7974   2.748   6.485   5.293 -2.8766  0.7424 -0.6988
 2670TIP3    H2 7975   2.831   6.606   5.327  1.8424 -2.1680 -0.9662
 2671TIP3   OH2 7976   3.774   4.318   0.528  0.1428 -0.0199 -0.5110
 2671TIP3    H1 7977   3.738   4.233   0.503 -1.4422  0.8150 -1.2502
 2671TIP3    H2 7978   3.729   4.380   0.471  1.8320  1.2500 -0.5247
 2672TIP3   OH2 7979   1.550   1.621   5.590  0.2426 -0.1287 -0.0671
 2672TIP3    H1 7980   1.494   1.543   5.586 -0.0433  0.0290  0.6632
 2672TIP3    H2 7981   1.599   1.620   5.508  2.1403 -2.4979  0.9790
 2673TIP3   OH2 7982   5.524   0.525   5.211 -0.1849 -0.3408  0.0519
 2673TIP3    H1 7983   5.474   0.505   5.290  1.0610 -1.0384  0.6835
 2673TIP3    H2 7984   5.473   0.594   5.168 -1.8174 -1.2021  0.5197
 2674TIP3   OH2 7985   2.627   0.760   3.310 -0.1591  0.0896  0.4474
 2674TIP3    H1 7986   2.583   0.743   3.393  2.0134 -0.5365  1.5509
 2674TIP3    H2 7987   2.685   0.685   3.297  1.5130  1.4278 -0.2353
 2675TIP3   OH2 7988   5.458   4.969   5.811  0.1583 -0.3681 -0.1377
 2675TIP3    H1 7989   5.476   4.992   5.902  0.0013  0.0900 -0.2184
 2675TIP3    H2 7990   5.389   4.903   5.817 -1.1699  0.9721  0.0288
 2676TIP3   OH2 7991   5.838   1.321   0.243 -0.3306  0.0123 -0.3051
 2676TIP3    H1 7992   5.921   1.367   0.231  0.3151 -0.7840  0.8645
 2676TIP3    H2 7993   5.771   1.385   0.217  0.6059  0.9171 -0.5759
 2677TIP3   OH2 7994   5.286   4.084   5.395 -0.3106 -0.1098 -0.2650
 2677TIP3    H1 7995   5.284   4.078   5.300  2.5353  0.3172 -0.4540
 2677TIP3    H2 7996   5.320   4.000   5.424  0.3365  0.3088  0.2307
 2678TIP3   OH2 7997   4.001   5.688   1.148 -0.2539 -0.2154 -0.1965
 2678TIP3    H1 7998   3.952   5.763   1.181  0.3474  0.2098 -0.2521
 2678TIP3    H2 7999   3.983   5.686   1.054 -1.0145 -0.7094 -0.0489
 2679TIP3   OH2 8000   6.067   2.459   3.182 -0.2479 -0.4553 -0.5585
 2679TIP3    H1 8001   6.088   2.367   3.196 -0.6195 -0.3719  0.7149
 2679TIP3    H2 8002   6.119   2.485   3.106  0.9384 -1.3574 -0.0938
 2680TIP3   OH2 8003   0.849   2.869   2.972 -0.0400  0.2097  0.8924
 2680TIP3    H1 8004   0.753   2.867   2.975 -0.0664  0.5226  0.3638
 2680TIP3    H2 8005   0.872   2.803   2.905 -0.0339  2.2469 -1.2592
 2681TIP3   OH2 8006   6.249   1.699   5.243  0.1906 -0.1246  0.6644
 2681TIP3    H1 8007   6.234   1.698   5.338  0.0152  0.1395  0.6393
 2681TIP3    H2 8008   6.188   1.765   5.210  1.2207  0.7760  0.5269
 2682TIP3   OH2 8009   1.592   3.683   5.308  0.9417 -0.9517 -0.0987
 2682TIP3    H1 8010   1.654   3.686   5.381 -0.6679 -0.5703  1.3094
 2682TIP3    H2 8011   1.523   3.622   5.337 -1.3444  1.5405  0.0991
 2683TIP3   OH2 8012   4.830   6.572   3.808 -0.4367 -0.3299 -0.1141
 2683TIP3    H1 8013   4.845   6.487   3.849 -0.7165 -0.6950 -0.7594
 2683TIP3    H2 8014   4.766   6.615   3.865  0.7831  0.0534  1.0264
 2684TIP3   OH2 8015   3.252   0.123   3.106  0.1745  0.7625  0.0922
 2684TIP3    H1 8016   3.243   0.091   3.017 -1.4099  0.9841  0.1316
 2684TIP3    H2 8017   3.246   0.045   3.161  1.2029  0.6200  0.0219
 2685TIP3   OH2 8018   5.081   5.656   4.920 -0.3376 -0.0337 -0.0263
 2685TIP3    H1 8019   5.176   5.671   4.920 -0.1254 -1.2448 -0.6137
 2685TIP3    H2 8020   5.062   5.624   5.008 -0.0001 -0.8643 -0.2441
 2686TIP3   OH2 8021   3.980   3.969   1.481  0.3617 -0.4194  0.3978
 2686TIP3    H1 8022   3.926   3.923   1.417  0.1786 -0.0393  0.2771
 2686TIP3    H2 8023   4.056   3.913   1.493  0.6430 -0.2433 -0.5398
 2687TIP3   OH2 8024   5.183   2.539   4.495 -0.0098 -0.1808  0.1204
 2687TIP3    H1 8025   5.211   2.612   4.551  0.8114  0.8888 -1.6096
 2687TIP3    H2 8026   5.088   2.549   4.488 -0.3053 -1.0412  2.2232
 2688TIP3   OH2 8027   6.332   5.672   5.571 -0.2064  0.1004 -0.5034
 2688TIP3    H1 8028   6.376   5.594   5.605  1.3485  0.4943 -1.4890
 2688TIP3    H2 8029   6.269   5.696   5.639 -0.7950 -2.0522 -0.2231
 2689TIP3   OH2 8030   0.872   5.202   5.095  0.4575  0.0160  0.0945
 2689TIP3    H1 8031   0.848   5.120   5.138  0.2700  0.2698  0.4791
 2689TIP3    H2 8032   0.836   5.195   5.007  1.5773 -0.8689 -0.3092
 2690TIP3   OH2 8033   6.984   1.213   4.149  0.2565  0.2609 -0.0132
 2690TIP3    H1 8034   6.975   1.307   4.132  0.9523  0.7012  1.8615
 2690TIP3    H2 8035   7.055   1.185   4.091  0.2438  0.9499 -0.3681
 2691TIP3   OH2 8036   5.374   3.410   0.623  0.0237 -0.3150 -0.1651
 2691TIP3    H1 8037   5.294   3.427   0.673  0.4112 -0.9469  0.7054
 2691TIP3    H2 8038   5.358   3.325   0.582  0.0264 -0.1787 -0.4467
 2692TIP3   OH2 8039   3.776   5.400   3.785  0.0998  1.1147  0.0713
 2692TIP3    H1 8040   3.807   5.484   3.750 -0.0160  1.2049  0.1817
 2692TIP3    H2 8041   3.851   5.362   3.829  0.5745  0.4681 -1.2612
 2693TIP3   OH2 8042   4.306   3.433   5.767 -0.2807  0.2389 -0.2824
 2693TIP3    H1 8043   4.244   3.389   5.825  0.4480 -1.0782 -0.4350
 2693TIP3    H2 8044   4.347   3.500   5.822 -0.1378 -0.4858  0.5334
 2694TIP3   OH2 8045   6.391   4.820   3.860  0.3347  0.1753  0.1680
 2694TIP3    H1 8046   6.371   4.914   3.864  0.8676  0.2799  0.5374
 2694TIP3    H2 8047   6.334   4.786   3.791 -0.1961  0.6852  0.3478
 2695TIP3   OH2 8048   6.387   2.461   0.483 -0.1452 -0.2090  0.2880
 2695TIP3    H1 8049   6.368   2.550   0.514  0.2038  1.1201 -2.9735
 2695TIP3    H2 8050   6.480   2.448   0.504  0.4533  1.2076 -1.3032
 2696TIP3   OH2 8051   3.067   2.646   0.933  0.1657  0.1609 -0.2774
 2696TIP3    H1 8052   3.086   2.714   0.869  1.3181 -0.2743 -0.4327
 2696TIP3    H2 8053   3.153   2.622   0.968 -0.3863  0.0285  1.0548
 2697TIP3   OH2 8054   5.081   0.514   3.384  0.3890  0.4015  0.4690
 2697TIP3    H1 8055   5.165   0.544   3.351 -0.1791  1.1130 -0.3738
 2697TIP3    H2 8056   5.020   0.585   3.362 -0.8290 -0.9896 -0.8336
 2698TIP3   OH2 8057   2.811   6.195   4.071  0.1564  0.0381 -0.3991
 2698TIP3    H1 8058   2.881   6.208   4.008  1.4095 -1.1590  0.6670
 2698TIP3    H2 8059   2.760   6.122   4.037  2.4833 -2.5230  1.1916
 2699TIP3   OH2 8060   3.157   4.540   0.136  0.5771 -0.7030  0.0415
 2699TIP3    H1 8061   3.069   4.577   0.147  0.7829 -0.0404 -0.5261
 2699TIP3    H2 8062   3.214   4.596   0.187  0.7651 -0.7497 -0.1144
 2700TIP3   OH2 8063   1.974   3.995   2.253 -0.6744 -0.0125 -0.1435
 2700TIP3    H1 8064   1.982   4.079   2.299  1.2460  0.7025 -1.6180
 2700TIP3    H2 8065   2.039   3.938   2.295 -0.7597 -0.1933 -0.2553
 2701TIP3   OH2 8066   4.728   2.214   4.319 -0.0678  0.8448 -0.5333
 2701TIP3    H1 8067   4.703   2.260   4.399  1.2551 -1.3395  1.2595
 2701TIP3    H2 8068   4.647   2.173   4.289 -0.0268 -1.2260  1.8053
 2702TIP3   OH2 8069   5.855   5.422   1.021 -0.2765 -0.1840  0.0084
 2702TIP3    H1 8070   5.941   5.416   0.979 -0.3946 -0.7564 -0.1643
 2702TIP3    H2 8071   5.828   5.331   1.034 -0.8506 -0.0106  0.0712
 2703TIP3   OH2 8072   4.804   1.567   2.068  0.0088  0.1502  0.2533
 2703TIP3    H1 8073   4.839   1.602   1.986 -0.1597  2.0310  0.9258
 2703TIP3    H2 8074   4.721   1.527   2.044  0.3311 -0.0253 -0.6105
 2704TIP3   OH2 8075   1.500   3.873   5.135 -0.3123 -0.1518  0.1509
 2704TIP3    H1 8076   1.523   3.800   5.193  0.3470 -0.6004 -0.6530
 2704TIP3    H2 8077   1.537   3.950   5.178  0.3635 -0.5089  0.2281
 2705TIP3   OH2 8078   3.382   6.387   5.329  0.1632  0.1871 -0.1157
 2705TIP3    H1 8079   3.397   6.469   5.377  0.5354  0.9789 -1.5405
 2705TIP3    H2 8080   3.394   6.410   5.237 -0.7106 -1.2582 -0.6278
 2706TIP3   OH2 8081   3.582   1.592   0.868 -0.2573 -0.2947  0.0534
 2706TIP3    H1 8082   3.547   1.511   0.904  0.4386 -0.5528  0.1607
 2706TIP3    H2 8083   3.560   1.589   0.775  0.7392 -1.1526 -0.1750
 2707TIP3   OH2 8084   1.405   0.269   1.542  0.0641  0.3343  0.0905
 2707TIP3    H1 8085   1.389   0.225   1.458 -0.9033 -0.2375  0.5604
 2707TIP3    H2 8086   1.376   0.359   1.526  0.2370  0.3254 -0.2968
 2708TIP3   OH2 8087   1.144   0.813   1.227  0.0769  0.4734 -0.0879
 2708TIP3    H1 8088   1.120   0.744   1.290  0.0547  0.5930  0.0356
 2708TIP3    H2 8089   1.112   0.894   1.268 -0.5580  0.4772 -0.5680
 2709TIP3   OH2 8090   1.491   5.033   2.796  0.0854 -0.2350 -0.4058
 2709TIP3    H1 8091   1.440   4.953   2.787  1.3509 -1.6773  3.3883
 2709TIP3    H2 8092   1.444   5.085   2.861  0.6037  0.9582 -0.9465
 2710TIP3   OH2 8093   1.918   2.072   5.147  0.0790 -0.3319  0.2051
 2710TIP3    H1 8094   1.857   2.021   5.094 -0.4727  0.5280 -0.0249
 2710TIP3    H2 8095   1.979   2.110   5.083 -1.4986  1.9561 -0.0840
 2711TIP3   OH2 8096   1.582   1.038   2.574 -0.1344 -0.0080 -0.3257
 2711TIP3    H1 8097   1.635   1.093   2.631  1.0968 -1.7878  0.3677
 2711TIP3    H2 8098   1.510   1.009   2.630 -0.3325  0.2585 -0.4433
 2712TIP3   OH2 8099   4.020   6.287   5.260  0.3448  0.0321  0.2806
 2712TIP3    H1 8100   4.071   6.236   5.322  0.8100  0.4787  0.2721
 2712TIP3    H2 8101   4.084   6.345   5.218 -0.0807  0.2295 -0.1066
 2713TIP3   OH2 8102   1.873   0.766   0.337 -0.3078 -0.3883  0.2144
 2713TIP3    H1 8103   1.795   0.819   0.322 -0.8515 -1.4683 -0.9462
 2713TIP3    H2 8104   1.922   0.772   0.255  1.0094  0.5285  1.0359
 2714TIP3   OH2 8105   1.884   6.061   0.584 -0.2693  0.1747 -0.7034
 2714TIP3    H1 8106   1.867   6.014   0.666 -2.7248  0.6736 -0.8630
 2714TIP3    H2 8107   1.914   6.147   0.611 -2.0595  0.6892 -0.2624
 2715TIP3   OH2 8108   7.038   3.340   1.474  0.6667 -0.3828 -0.0058
 2715TIP3    H1 8109   7.047   3.252   1.510 -1.1013 -0.4595  0.3150
 2715TIP3    H2 8110   7.014   3.326   1.383 -0.8950 -0.2849  0.3634
 2716TIP3   OH2 8111   6.051   4.753   3.442 -0.3811  0.6284  0.3914
 2716TIP3    H1 8112   6.071   4.670   3.400  0.2924  0.6000  0.7638
 2716TIP3    H2 8113   5.994   4.798   3.379 -0.4298  0.0571  0.0184
 2717TIP3   OH2 8114   2.391   4.260   2.282 -0.2349 -0.2350  0.2777
 2717TIP3    H1 8115   2.465   4.299   2.328 -1.5176  1.1291  1.2721
 2717TIP3    H2 8116   2.385   4.171   2.318  1.9180 -0.9992 -1.0639
 2718TIP3   OH2 8117   2.528   3.511   3.304 -0.7163  0.4975  0.0785
 2718TIP3    H1 8118   2.604   3.568   3.287  0.6983 -1.6895 -1.6193
 2718TIP3    H2 8119   2.549   3.467   3.386  0.4810 -0.8955 -0.9149
 2719TIP3   OH2 8120   1.476   4.600   5.739 -0.2947 -0.5914 -0.0669
 2719TIP3    H1 8121   1.522   4.626   5.659  1.0760 -0.5409  0.7119
 2719TIP3    H2 8122   1.387   4.636   5.728  0.4227  1.1067 -0.7174
 2720TIP3   OH2 8123   0.295   5.362   2.767  0.1553 -0.4563 -0.3220
 2720TIP3    H1 8124   0.309   5.323   2.681 -0.5870  3.5008 -2.4897
 2720TIP3    H2 8125   0.200   5.357   2.781 -0.1840  1.6835 -1.3890
 2721TIP3   OH2 8126   1.677   2.997   4.798 -0.8317  0.3555 -0.1388
 2721TIP3    H1 8127   1.601   3.008   4.741 -1.4576  1.0398  0.7898
 2721TIP3    H2 8128   1.643   3.015   4.886  0.6680  1.9480  0.1586
 2722TIP3   OH2 8129   2.973   5.128   4.319  0.7926 -0.4385 -0.2278
 2722TIP3    H1 8130   2.954   5.119   4.413  0.5153  0.2631 -0.2098
 2722TIP3    H2 8131   3.040   5.197   4.315  1.3791 -1.0223 -0.4887
 2723TIP3   OH2 8132   7.117   0.988   4.321 -0.0709  0.0513 -0.0834
 2723TIP3    H1 8133   7.090   1.023   4.405 -0.2878  0.1565 -0.1954
 2723TIP3    H2 8134   7.037   0.990   4.267  0.0988  0.1233 -0.3368
 2724TIP3   OH2 8135   6.076   2.958   0.556 -0.3271  0.1406 -0.7162
 2724TIP3    H1 8136   6.012   2.887   0.552 -1.3965  1.0869 -1.1193
 2724TIP3    H2 8137   6.070   2.991   0.646  0.6461 -0.6731 -0.3315
 2725TIP3   OH2 8138   0.522   1.049   1.462 -0.6174 -0.7221 -0.1455
 2725TIP3    H1 8139   0.590   1.114   1.443 -1.0543  0.0674  0.8963
 2725TIP3    H2 8140   0.479   1.034   1.378  0.0536 -0.3094 -0.5688
 2726TIP3   OH2 8141   5.161   0.114   4.910 -0.1511 -0.0349 -0.0126
 2726TIP3    H1 8142   5.132   0.205   4.920 -1.3012 -0.3017 -0.7220
 2726TIP3    H2 8143   5.130   0.070   4.989 -1.6190 -0.2760 -0.6795
 2727TIP3   OH2 8144   6.805   5.937   1.948  0.6693 -0.7048 -0.3817
 2727TIP3    H1 8145   6.899   5.944   1.933  0.6348 -0.4188 -0.4666
 2727TIP3    H2 8146   6.796   5.867   2.013  0.8355 -1.8331 -1.5388
 2728TIP3   OH2 8147   3.299   3.705   2.754 -0.6867  0.0057 -0.1741
 2728TIP3    H1 8148   3.358   3.770   2.793 -1.3080  1.1328 -1.0637
 2728TIP3    H2 8149   3.341   3.621   2.771  0.0021  0.6103  1.2456
 2729TIP3   OH2 8150   1.783   1.021   5.135  0.2137  0.1846  0.8082
 2729TIP3    H1 8151   1.780   0.933   5.172  0.1572 -1.0307 -1.8269
 2729TIP3    H2 8152   1.691   1.048   5.132  0.2720  0.5454  2.0562
 2730TIP3   OH2 8153   3.787   1.114   5.253 -0.0399  0.3839 -0.2735
 2730TIP3    H1 8154   3.856   1.135   5.190  0.1164  0.4668 -0.0747
 2730TIP3    H2 8155   3.769   1.196   5.297 -1.0433  0.6300 -1.0798
 2731TIP3   OH2 8156   4.447   0.807   4.484 -0.1868 -0.2475 -0.2513
 2731TIP3    H1 8157   4.369   0.835   4.436 -2.1141 -1.7858  1.7092
 2731TIP3    H2 8158   4.475   0.885   4.532 -0.0407  0.5176 -1.5380
 2732TIP3   OH2 8159   4.195  -0.005   0.682  0.3710  0.5481  0.1527
 2732TIP3    H1 8160   4.160   0.002   0.771  0.7884  1.7021  0.2437
 2732TIP3    H2 8161   4.160   0.071   0.637  1.8242  1.1157 -0.0753
 2733TIP3   OH2 8162   3.535   6.231   0.717  0.0251 -0.3713  0.0816
 2733TIP3    H1 8163   3.470   6.193   0.658 -0.0904  0.0834 -0.0919
 2733TIP3    H2 8164   3.560   6.159   0.775  1.4360 -1.3003 -1.6136
 2734TIP3   OH2 8165   1.715   4.585   4.650  0.9649  0.8070 -0.0216
 2734TIP3    H1 8166   1.778   4.519   4.679 -0.4254 -1.6391 -2.0986
 2734TIP3    H2 8167   1.768   4.650   4.604  2.3021  0.6409  1.2293
 2735TIP3   OH2 8168   3.209   4.906   2.203 -0.1018 -0.5703  0.1487
 2735TIP3    H1 8169   3.242   4.994   2.184  1.4519 -1.0164  0.5929
 2735TIP3    H2 8170   3.124   4.921   2.243  0.4020  0.7810  0.8101
 2736TIP3   OH2 8171   4.696   1.925   2.966 -0.0010  0.1080 -0.0990
 2736TIP3    H1 8172   4.672   1.927   2.873  0.4698 -1.0457 -0.2625
 2736TIP3    H2 8173   4.771   1.865   2.970 -0.5997 -0.5792  1.1518
 2737TIP3   OH2 8174   3.210   6.541   2.885 -0.0235  0.1260  0.0788
 2737TIP3    H1 8175   3.246   6.452   2.887 -1.0774 -0.3494  2.5915
 2737TIP3    H2 8176   3.143   6.539   2.818  1.5245 -0.2467 -1.5295
 2738TIP3   OH2 8177   1.647   3.346   2.096 -0.4019 -0.4140  0.4012
 2738TIP3    H1 8178   1.723   3.401   2.116  0.4486 -0.3172 -2.7103
 2738TIP3    H2 8179   1.631   3.297   2.177  0.0339  2.8742  2.6559
 2739TIP3   OH2 8180   6.005   3.173   1.342 -0.0287  0.0839 -0.5284
 2739TIP3    H1 8181   6.038   3.263   1.340  0.3129 -0.0437 -0.9518
 2739TIP3    H2 8182   5.931   3.174   1.281  1.1908 -0.3617 -2.0939
 2740TIP3   OH2 8183   6.587   0.705   2.636 -0.4767 -0.6161  0.5824
 2740TIP3    H1 8184   6.603   0.614   2.661 -0.5708 -0.6311  0.5881
 2740TIP3    H2 8185   6.650   0.756   2.688  1.6523 -0.8880 -1.5277
 2741TIP3   OH2 8186   1.973   5.633   1.709  0.2183 -0.2512  0.0546
 2741TIP3    H1 8187   2.035   5.566   1.736 -0.1964 -1.3385 -1.5641
 2741TIP3    H2 8188   1.890   5.609   1.751  0.2865 -0.2380  0.1953
 2742TIP3   OH2 8189   6.882   3.459   4.136  0.5034 -0.0020  0.8522
 2742TIP3    H1 8190   6.917   3.391   4.194  0.0842 -0.0996  0.9929
 2742TIP3    H2 8191   6.931   3.537   4.158 -0.1619  0.1425  1.8621
 2743TIP3   OH2 8192   2.431   3.092   4.566  0.0101 -0.0786  0.4363
 2743TIP3    H1 8193   2.436   3.170   4.622 -0.2354 -0.3574  0.8584
 2743TIP3    H2 8194   2.338   3.086   4.543  0.0524 -0.1691  0.2879
 2744TIP3   OH2 8195   4.988   4.025   0.327 -0.6001  0.2346  0.3799
 2744TIP3    H1 8196   4.975   3.931   0.336 -1.5773  0.3914  0.6536
 2744TIP3    H2 8197   5.079   4.034   0.299 -0.3526 -0.7594  0.8433
 2745TIP3   OH2 8198   6.458   6.143   5.240  0.2460 -0.3089 -0.0057
 2745TIP3    H1 8199   6.363   6.154   5.230  0.1449 -1.6490 -0.7663
 2745TIP3    H2 8200   6.490   6.133   5.151  0.5110 -3.9854  0.3697
 2746TIP3   OH2 8201   3.887   4.173   5.071  0.2431  0.5828  0.6429
 2746TIP3    H1 8202   3.843   4.248   5.111  1.7590  1.3924  0.8879
 2746TIP3    H2 8203   3.921   4.207   4.988 -0.2777 -0.2534  0.0711
 2747TIP3   OH2 8204   1.050   6.496   5.581 -0.7524  0.6931  0.2713
 2747TIP3    H1 8205   1.029   6.403   5.568  1.4584  0.4408 -2.0997
 2747TIP3    H2 8206   1.002   6.542   5.512  2.2763  0.6028 -2.1141
 2748TIP3   OH2 8207   2.247   2.235   4.173 -1.1012  0.2766 -0.5801
 2748TIP3    H1 8208   2.202   2.246   4.257  0.8125 -1.8731  0.8416
 2748TIP3    H2 8209   2.327   2.286   4.181 -0.5127 -0.5895 -0.7274
 2749TIP3   OH2 8210   3.661   6.259   0.403  0.2962 -0.3406  0.1360
 2749TIP3    H1 8211   3.627   6.195   0.466 -0.4072 -0.3294 -0.2198
 2749TIP3    H2 8212   3.599   6.331   0.406 -0.3424 -0.7858 -1.3059
 2750TIP3   OH2 8213   2.198   3.826   2.701  0.4217  0.2920  0.9448
 2750TIP3    H1 8214   2.186   3.732   2.716  1.8921  0.0728  0.9214
 2750TIP3    H2 8215   2.184   3.866   2.787  0.1661  0.0082  1.0370
 2751TIP3   OH2 8216   3.481   3.398   5.017  0.2603  0.4243 -0.0666
 2751TIP3    H1 8217   3.476   3.480   4.968  0.4045  0.3332 -0.2379
 2751TIP3    H2 8218   3.558   3.408   5.073  1.1649 -0.1607 -1.1588
 2752TIP3   OH2 8219   3.150   2.186   5.438 -0.0634 -0.2589  0.4795
 2752TIP3    H1 8220   3.054   2.179   5.443 -0.1863 -0.0394 -1.1895
 2752TIP3    H2 8221   3.178   2.111   5.386  0.4801  0.6648 -0.6038
 2753TIP3   OH2 8222   2.863   1.762   5.043 -0.0384  0.0283 -0.4042
 2753TIP3    H1 8223   2.828   1.673   5.046 -1.2944  0.5129  0.6027
 2753TIP3    H2 8224   2.791   1.814   5.007  0.2257  0.8071  0.1595
 2754TIP3   OH2 8225   1.245   2.502   5.645  0.1766 -0.1232  0.3227
 2754TIP3    H1 8226   1.288   2.483   5.728 -0.3567  0.7258  0.8148
 2754TIP3    H2 8227   1.151   2.497   5.665  0.0338 -1.1332 -0.5342
 2755TIP3   OH2 8228   0.227   3.952   1.663 -1.1434  0.3287 -0.0890
 2755TIP3    H1 8229   0.303   3.951   1.722 -0.6038 -3.2084 -0.6615
 2755TIP3    H2 8230   0.216   4.045   1.640  2.1139  1.1364  1.0965
 2756TIP3   OH2 8231   1.204   6.598   0.572 -0.0045  0.6069  0.4429
 2756TIP3    H1 8232   1.300   6.602   0.569  0.0466 -0.3416  0.3760
 2756TIP3    H2 8233   1.180   6.556   0.489 -0.2635 -1.9646  1.7451
 2757TIP3   OH2 8234   6.975   2.872   4.274 -0.1224 -0.0189 -0.3654
 2757TIP3    H1 8235   7.024   2.898   4.353 -0.9984  1.1298 -0.1769
 2757TIP3    H2 8236   6.986   2.777   4.270  0.1230 -0.0740  1.0235
 2758TIP3   OH2 8237   3.617   4.416   3.522 -0.0776 -0.0828 -0.0912
 2758TIP3    H1 8238   3.649   4.466   3.598  0.1153  0.5988 -0.6112
 2758TIP3    H2 8239   3.682   4.432   3.454 -0.6606 -0.0517 -0.6500
 2759TIP3   OH2 8240   3.969   3.407   4.127  0.3390 -0.4403 -1.0997
 2759TIP3    H1 8241   3.908   3.345   4.087 -0.4134  0.3026 -1.1482
 2759TIP3    H2 8242   4.039   3.417   4.063 -1.2124  1.2972 -2.6370
 2760TIP3   OH2 8243   6.173   4.539   0.558  0.3303 -0.5663 -0.4049
 2760TIP3    H1 8244   6.088   4.580   0.543 -0.1019 -1.2130  0.2362
 2760TIP3    H2 8245   6.222   4.604   0.609  0.6342  0.2662 -1.7052
 2761TIP3   OH2 8246   2.891   5.313   1.488 -0.7230 -0.1232 -0.3534
 2761TIP3    H1 8247   2.976   5.281   1.518 -0.4491 -0.5270 -1.4962
 2761TIP3    H2 8248   2.834   5.306   1.564  0.3849  0.6235  0.5834
 2762TIP3   OH2 8249   6.207   5.583   2.341 -0.4691  0.2287  0.3089
 2762TIP3    H1 8250   6.184   5.503   2.387  0.2953 -1.5397 -2.1708
 2762TIP3    H2 8251   6.189   5.653   2.403 -3.0197 -1.7003  1.9188
 2763TIP3   OH2 8252   2.786   5.233   2.353  0.0564  0.1341 -0.0262
 2763TIP3    H1 8253   2.879   5.250   2.341 -0.0193  0.3517 -0.3265
 2763TIP3    H2 8254   2.747   5.319   2.368  0.2163 -0.1499  2.4652
 2764TIP3   OH2 8255   1.545   3.139   1.406  0.3691  0.4082 -0.9028
 2764TIP3    H1 8256   1.581   3.053   1.431  2.7596  0.6630 -3.0419
 2764TIP3    H2 8257   1.454   3.121   1.383  0.7632 -1.5334 -1.1355
 2765TIP3   OH2 8258   4.365   2.914   5.686 -0.3376 -0.6574  0.4987
 2765TIP3    H1 8259   4.338   2.853   5.754 -0.8254  0.1102  1.0179
 2765TIP3    H2 8260   4.293   2.978   5.682  0.3439  0.1082  0.2630
 2766TIP3   OH2 8261   6.182   2.938   3.637 -0.5537  0.4981  0.0885
 2766TIP3    H1 8262   6.141   2.851   3.637  0.9326 -0.2316  0.3651
 2766TIP3    H2 8263   6.276   2.920   3.646  0.0197  2.0321 -2.0871
 2767TIP3   OH2 8264   5.518   6.192   2.210 -0.1008  0.1675 -0.0074
 2767TIP3    H1 8265   5.493   6.118   2.265  0.5085  1.6412  2.3951
 2767TIP3    H2 8266   5.598   6.163   2.166  0.1618 -0.6178  0.9383
 2768TIP3   OH2 8267   5.997   3.211   0.063  0.1376  0.0877 -0.2565
 2768TIP3    H1 8268   6.072   3.248   0.109  0.9611 -0.9193 -0.7265
 2768TIP3    H2 8269   5.983   3.271  -0.011  0.2482  0.4823  0.0382
 2769TIP3   OH2 8270   0.922   5.803   5.834 -0.2096  0.4229 -0.1927
 2769TIP3    H1 8271   0.888   5.801   5.744 -2.9650  0.5402  0.7615
 2769TIP3    H2 8272   0.963   5.718   5.846 -0.7994 -0.0196 -1.1956
 2770TIP3   OH2 8273   1.967   1.661   2.911  0.0459  0.2542 -0.6509
 2770TIP3    H1 8274   1.895   1.708   2.868 -0.5827 -0.1508 -0.0710
 2770TIP3    H2 8275   1.930   1.631   2.994  0.2319 -1.7256 -1.2216
 2771TIP3   OH2 8276   3.983   4.641   2.649  0.1593  0.1942 -0.3394
 2771TIP3    H1 8277   3.920   4.671   2.584  0.7554 -0.5337 -1.2805
 2771TIP3    H2 8278   4.065   4.629   2.600  0.3934 -1.2278  0.3387
 2772TIP3   OH2 8279   5.935   4.712   5.835 -0.0513  0.3275  0.3608
 2772TIP3    H1 8280   5.888   4.676   5.910 -1.0118  0.8630  0.0445
 2772TIP3    H2 8281   5.901   4.802   5.827 -0.0832  0.2295 -0.8002
 2773TIP3   OH2 8282   0.141   3.922   0.569  0.3432  0.6237  0.4920
 2773TIP3    H1 8283   0.168   3.850   0.512 -1.7868  0.2841 -0.1675
 2773TIP3    H2 8284   0.221   3.973   0.584  1.3030 -0.2802 -1.3547
 2774TIP3   OH2 8285   0.271   0.374   5.782  0.3895 -0.0259  0.3982
 2774TIP3    H1 8286   0.217   0.329   5.717 -0.4454 -0.5250  1.3887
 2774TIP3    H2 8287   0.311   0.447   5.736 -0.5268 -0.1152 -0.5540
 2775TIP3   OH2 8288   4.605   3.431   5.521  0.4444  0.5208 -0.2374
 2775TIP3    H1 8289   4.641   3.436   5.433 -0.4146  1.8072 -0.5336
 2775TIP3    H2 8290   4.640   3.348   5.556  2.0605  0.7494 -1.1939
 2776TIP3   OH2 8291   0.739   6.402   1.142  0.5797 -0.3931  0.4105
 2776TIP3    H1 8292   0.751   6.357   1.059 -0.9483 -2.0094  1.0121
 2776TIP3    H2 8293   0.788   6.350   1.205  2.0398  1.0327  0.5081
 2777TIP3   OH2 8294   4.335   6.333   1.114  0.9179  0.1963  0.2917
 2777TIP3    H1 8295   4.390   6.315   1.190  1.1941 -0.8533 -0.1464
 2777TIP3    H2 8296   4.331   6.250   1.066  0.2148  0.6660 -0.4989
 2778TIP3   OH2 8297   4.871   2.526   1.254  0.4895 -0.0230  0.5138
 2778TIP3    H1 8298   4.785   2.486   1.267  0.0126  0.4788 -0.9252
 2778TIP3    H2 8299   4.933   2.456   1.274 -0.2340 -0.3946  1.5498
 2779TIP3   OH2 8300   4.188   0.964   2.732 -0.3080  0.6134 -0.0954
 2779TIP3    H1 8301   4.263   0.973   2.790 -1.5059 -0.3739  1.7012
 2779TIP3    H2 8302   4.208   1.022   2.658  3.2447 -1.3087 -0.8778
 2780TIP3   OH2 8303   0.667   6.601   1.438  0.4946  0.3004 -0.0948
 2780TIP3    H1 8304   0.649   6.675   1.496  2.3261 -0.0969  1.0826
 2780TIP3    H2 8305   0.750   6.622   1.397  0.0656 -0.2272 -1.2734
 2781TIP3   OH2 8306   4.141   0.218   2.815 -0.5715 -0.1539 -0.1586
 2781TIP3    H1 8307   4.141   0.132   2.857 -0.0717 -0.1717 -0.1910
 2781TIP3    H2 8308   4.200   0.208   2.740 -0.5141  0.2170 -0.1645
 2782TIP3   OH2 8309   2.303   3.294   2.871  0.2797  0.3846 -0.3650
 2782TIP3    H1 8310   2.322   3.216   2.922  1.6655  0.0223 -1.3575
 2782TIP3    H2 8311   2.252   3.350   2.930  0.3710 -0.7168  0.8022
 2783TIP3   OH2 8312   3.307   3.528   1.806  0.0699  0.0971  0.3215
 2783TIP3    H1 8313   3.272   3.441   1.786  0.7685  0.0560 -0.8449
 2783TIP3    H2 8314   3.393   3.510   1.844  0.5756  0.2699 -0.6952
 2784TIP3   OH2 8315   4.614   3.455   1.115  0.1394 -0.3798 -0.2871
 2784TIP3    H1 8316   4.595   3.361   1.120 -0.8531 -0.1762 -0.1378
 2784TIP3    H2 8317   4.667   3.464   1.035 -0.9457 -0.8795 -1.0949
 2785TIP3   OH2 8318   3.395   5.637   3.251 -0.2245  0.3624 -0.0161
 2785TIP3    H1 8319   3.344   5.576   3.303 -1.1968  0.1202 -1.1932
 2785TIP3    H2 8320   3.369   5.619   3.160  1.5866  0.5845 -0.6271
 2786TIP3   OH2 8321   0.742   6.633   2.419  0.3036  0.6995  0.2121
 2786TIP3    H1 8322   0.671   6.597   2.365  2.0522 -2.0443 -0.4630
 2786TIP3    H2 8323   0.785   6.697   2.362 -0.7658  1.3988  0.1547
 2787TIP3   OH2 8324   6.219   2.234   5.094  0.1026  0.0094  0.2583
 2787TIP3    H1 8325   6.194   2.187   5.014 -0.5505 -0.8689  0.9631
 2787TIP3    H2 8326   6.294   2.186   5.129 -0.1598 -0.1359  0.6320
 2788TIP3   OH2 8327   5.166   0.814   1.151 -0.3545 -0.0659 -0.0223
 2788TIP3    H1 8328   5.149   0.908   1.145 -1.6413  0.0442  3.0930
 2788TIP3    H2 8329   5.117   0.775   1.079  1.5856  1.6933 -2.4403
 2789TIP3   OH2 8330   5.889   2.777   0.491 -0.0825  0.4385  0.2393
 2789TIP3    H1 8331   5.872   2.807   0.402 -0.6906  0.5640  0.3941
 2789TIP3    H2 8332   5.915   2.686   0.482  0.3414  0.5936 -0.1098
 2790TIP3   OH2 8333   3.209   1.411   5.770 -0.2301 -0.1327 -0.1658
 2790TIP3    H1 8334   3.175   1.500   5.768 -1.5251 -0.6175 -0.6505
 2790TIP3    H2 8335   3.131   1.355   5.778  0.5737 -1.2125  0.4671
 2791TIP3   OH2 8336   3.793   1.052   2.411  0.4793 -0.7802 -0.1836
 2791TIP3    H1 8337   3.862   1.117   2.419  2.6119 -2.5936 -2.3638
 2791TIP3    H2 8338   3.836   0.969   2.431 -2.0289 -1.7083  2.0038
 2792TIP3   OH2 8339   7.060   5.965   3.319  0.1662 -0.0477 -0.1035
 2792TIP3    H1 8340   7.043   5.902   3.248  0.4837  0.9369 -1.0788
 2792TIP3    H2 8341   7.069   6.049   3.274  3.2763  0.1900  0.7956
 2793TIP3   OH2 8342   4.020   4.966   0.727 -0.8126 -0.0195 -0.0198
 2793TIP3    H1 8343   4.034   4.872   0.737  0.2240  0.1843  0.7266
 2793TIP3    H2 8344   3.991   4.995   0.814 -1.0053  0.3701 -0.2122
 2794TIP3   OH2 8345   1.638   4.567   1.541  0.0552  0.1951  0.0479
 2794TIP3    H1 8346   1.641   4.622   1.462  0.1793 -0.1076 -0.1602
 2794TIP3    H2 8347   1.546   4.540   1.547  0.0891  0.0358 -0.1225
 2795TIP3   OH2 8348   5.781   4.077   4.608 -0.2958  0.1662  0.5737
 2795TIP3    H1 8349   5.814   3.988   4.613 -0.2725  0.0728 -0.9100
 2795TIP3    H2 8350   5.842   4.128   4.662  0.6910 -0.4561  0.0867
 2796TIP3   OH2 8351   3.232   1.604   1.826 -0.7288 -0.2283 -0.5101
 2796TIP3    H1 8352   3.286   1.672   1.864 -0.4852 -0.0879 -1.1080
 2796TIP3    H2 8353   3.142   1.628   1.851 -0.6135  0.1171 -0.4257
 2797TIP3   OH2 8354   4.353   6.549   3.021 -0.1766  0.0804  0.3037
 2797TIP3    H1 8355   4.300   6.496   2.961  0.0883  1.4615 -1.2481
 2797TIP3    H2 8356   4.309   6.633   3.023  1.9341  1.3429 -1.1751
 2798TIP3   OH2 8357   4.102   5.420   4.842 -0.3420 -0.5810  0.1926
 2798TIP3    H1 8358   4.130   5.454   4.927  1.4768  1.5104 -1.0997
 2798TIP3    H2 8359   4.169   5.356   4.819 -0.2783 -0.4245 -0.0631
 2799TIP3   OH2 8360   3.309   6.541   0.193  0.6511  0.5264 -0.5471
 2799TIP3    H1 8361   3.238   6.539   0.129  0.8978  0.9149 -0.8376
 2799TIP3    H2 8362   3.290   6.617   0.248  0.6013  0.3661 -0.3380
 2800TIP3   OH2 8363   7.057   3.673   2.144 -0.3854  0.1142 -0.1290
 2800TIP3    H1 8364   7.123   3.716   2.090 -0.7928  0.6719 -0.1835
 2800TIP3    H2 8365   6.973   3.704   2.110 -0.6977 -0.8946 -0.3168
 2801TIP3   OH2 8366   2.499   6.607   0.746 -0.2350 -0.3551  0.1248
 2801TIP3    H1 8367   2.472   6.529   0.794 -0.2266  0.4690  1.5092
 2801TIP3    H2 8368   2.525   6.574   0.660  0.4224 -1.9705  0.9054
 2802TIP3   OH2 8369   5.853   4.998   2.972  0.2854 -0.0618 -0.2817
 2802TIP3    H1 8370   5.908   4.959   3.040 -0.3861  1.0527  0.9525
 2802TIP3    H2 8371   5.838   4.927   2.910 -0.3771 -1.6079  1.5394
 2803TIP3   OH2 8372   6.988   2.297   4.111  0.0677 -0.1959 -0.1074
 2803TIP3    H1 8373   7.082   2.313   4.104  0.7639 -3.5634  0.1437
 2803TIP3    H2 8374   6.954   2.313   4.023  0.4920  2.4891  0.1131
 2804TIP3   OH2 8375   6.379   0.897   0.231 -0.5719  0.2877  0.1141
 2804TIP3    H1 8376   6.398   0.939   0.147  0.5583  1.9604  1.1518
 2804TIP3    H2 8377   6.397   0.965   0.297 -0.0922 -1.3839  1.7964
 2805TIP3   OH2 8378   5.612   1.986   5.666 -0.3805  0.2353  0.3370
 2805TIP3    H1 8379   5.595   1.906   5.718 -0.9417  0.4305  0.4584
 2805TIP3    H2 8380   5.529   2.033   5.667 -0.6649 -0.1769 -1.4989
 2806TIP3   OH2 8381   6.702   1.606   0.561  0.2786  0.3016 -0.6874
 2806TIP3    H1 8382   6.640   1.591   0.632  1.2407  0.3667  0.2033
 2806TIP3    H2 8383   6.755   1.526   0.559 -0.3810 -0.1249 -2.0282
 2807TIP3   OH2 8384   3.985   0.558   4.786 -0.2991  0.4578 -0.0259
 2807TIP3    H1 8385   3.923   0.525   4.721 -0.7176 -0.1850  0.6832
 2807TIP3    H2 8386   4.071   0.544   4.747 -0.5342 -0.1726 -0.3266
 2808TIP3   OH2 8387   1.259   0.328   3.678  0.0533  0.1288 -0.1322
 2808TIP3    H1 8388   1.198   0.355   3.610  0.8370  0.0647 -0.8620
 2808TIP3    H2 8389   1.260   0.401   3.740 -1.1165 -0.0657  0.1336
 2809TIP3   OH2 8390   2.448   4.545   2.357 -0.0013  0.1955  0.3782
 2809TIP3    H1 8391   2.508   4.486   2.312 -0.8125 -0.2367 -0.1692
 2809TIP3    H2 8392   2.504   4.604   2.406  0.8467 -0.6689  0.4800
 2810TIP3   OH2 8393   2.219   3.469   1.828  0.8266  0.0059 -0.4306
 2810TIP3    H1 8394   2.200   3.382   1.865 -3.9053  0.2929 -1.4466
 2810TIP3    H2 8395   2.208   3.529   1.901 -0.9915  0.0046 -0.6411
 2811TIP3   OH2 8396   3.894   6.052   5.902  0.2490  0.6951  0.0177
 2811TIP3    H1 8397   3.899   6.126   5.841  0.7794  0.8564  0.2519
 2811TIP3    H2 8398   3.974   6.002   5.885 -0.0221  0.2670 -0.0164
 2812TIP3   OH2 8399   5.568   3.473   2.850  0.0791 -0.5148  0.4049
 2812TIP3    H1 8400   5.492   3.488   2.907  0.9964  0.0533  1.5285
 2812TIP3    H2 8401   5.552   3.529   2.775  0.1691  0.9264  1.4118
 2813TIP3   OH2 8402   1.273   0.098   2.352 -0.1856 -0.1450  0.0906
 2813TIP3    H1 8403   1.227   0.159   2.294 -0.7423 -1.5417 -0.9989
 2813TIP3    H2 8404   1.333   0.051   2.294  0.0231 -0.8310  0.8535
 2814TIP3   OH2 8405   2.402   3.671   3.677 -0.0146  0.3098  0.3953
 2814TIP3    H1 8406   2.446   3.709   3.601  2.5936 -1.3759  0.9101
 2814TIP3    H2 8407   2.433   3.722   3.751  0.4328 -0.3627  0.6815
 2815TIP3   OH2 8408   2.438   2.777   3.857  0.0945  0.1488  0.0078
 2815TIP3    H1 8409   2.368   2.740   3.912  0.3377 -0.9158 -0.3618
 2815TIP3    H2 8410   2.404   2.861   3.828 -0.9136 -0.2128  0.0880
 2816TIP3   OH2 8411   3.503   3.304   3.835 -0.8866  0.4172 -0.3194
 2816TIP3    H1 8412   3.434   3.360   3.800 -1.5122 -0.3978 -0.4180
 2816TIP3    H2 8413   3.459   3.248   3.898 -0.2220  0.2026 -0.0338
 2817TIP3   OH2 8414   4.377   6.757   2.601  0.3791  0.5223 -0.1772
 2817TIP3    H1 8415   4.304   6.795   2.551  0.0090 -0.7423 -0.6325
 2817TIP3    H2 8416   4.405   6.682   2.549  0.6616 -0.2317  1.0302
 2818TIP3   OH2 8417   6.334   3.550   1.401 -0.3262  0.3093 -0.3924
 2818TIP3    H1 8418   6.364   3.461   1.380  3.2286  1.4438 -0.8262
 2818TIP3    H2 8419   6.287   3.579   1.323 -2.4345 -1.4325  0.1250
 2819TIP3   OH2 8420   3.182   0.937   2.351  0.1654  0.2587 -0.1178
 2819TIP3    H1 8421   3.212   0.944   2.442 -0.4761  0.2272  0.0948
 2819TIP3    H2 8422   3.126   1.013   2.337 -1.0778 -0.5991  0.0350
 2820TIP3   OH2 8423   4.380   0.443   5.582  0.3343 -0.7129  0.2041
 2820TIP3    H1 8424   4.461   0.393   5.571  0.7649 -0.4616  1.9030
 2820TIP3    H2 8425   4.385   0.512   5.516  3.0658  1.2343  2.2388
 2821TIP3   OH2 8426   7.044   0.243   0.208 -0.7192  0.7418  0.2621
 2821TIP3    H1 8427   7.128   0.275   0.175 -1.0288  0.7872 -0.5103
 2821TIP3    H2 8428   7.053   0.245   0.303  0.7896 -0.9161  0.2270
 2822TIP3   OH2 8429   2.701   6.281   5.057  0.0326  0.1087 -0.0486
 2822TIP3    H1 8430   2.749   6.208   5.096  0.8806  1.5486  1.8131
 2822TIP3    H2 8431   2.694   6.259   4.964  1.2780 -1.7645  0.2469
 2823TIP3   OH2 8432   5.888   0.375   3.885  0.6594 -0.4475 -0.4348
 2823TIP3    H1 8433   5.900   0.283   3.910  2.3432 -0.7153 -2.0011
 2823TIP3    H2 8434   5.966   0.419   3.919  1.3017 -0.1887 -2.1645
 2824TIP3   OH2 8435   4.337   5.979   0.367  0.3333 -0.0687 -0.1213
 2824TIP3    H1 8436   4.268   6.012   0.423  0.1940  0.6820 -0.7177
 2824TIP3    H2 8437   4.418   6.009   0.408  0.2043  1.1513 -0.7241
 2825TIP3   OH2 8438  -0.009   6.329   2.408  0.0233  0.3592 -1.1489
 2825TIP3    H1 8439  -0.057   6.335   2.491 -1.4288 -0.4332 -1.8863
 2825TIP3    H2 8440   0.083   6.337   2.433 -0.3934  0.4303  0.4998
 2826TIP3   OH2 8441   5.621   3.627   1.988 -0.1614  0.2227 -0.4916
 2826TIP3    H1 8442   5.552   3.661   2.045  1.1446  1.8797  0.2090
 2826TIP3    H2 8443   5.668   3.564   2.042 -0.3246  0.0612 -0.5353
 2827TIP3   OH2 8444   6.499   5.583   1.529  0.1068 -0.8316 -0.1129
 2827TIP3    H1 8445   6.526   5.514   1.467 -0.5148 -0.3951 -0.8849
 2827TIP3    H2 8446   6.406   5.596   1.512  0.1370 -0.0505  0.2680
 2828TIP3   OH2 8447   5.508   4.289   3.517  0.1036  0.0651  0.4708
 2828TIP3    H1 8448   5.570   4.263   3.585 -0.6286 -0.6450  0.8898
 2828TIP3    H2 8449   5.530   4.233   3.442  0.4645  0.3664  0.3459
 2829TIP3   OH2 8450   2.721   3.156   0.318 -0.6230 -0.4945 -0.8949
 2829TIP3    H1 8451   2.799   3.194   0.360 -1.1796 -0.1961 -0.1042
 2829TIP3    H2 8452   2.695   3.085   0.376 -0.9125 -0.6191 -1.1789
 2830TIP3   OH2 8453   0.329   0.271   2.865 -0.1515  0.2343 -0.1507
 2830TIP3    H1 8454   0.331   0.267   2.960  0.1184 -1.1029 -0.1903
 2830TIP3    H2 8455   0.410   0.228   2.837 -1.2475 -1.4429 -0.9810
 2831TIP3   OH2 8456   1.830   1.040   4.309  0.4514  0.3825  0.1760
 2831TIP3    H1 8457   1.832   0.966   4.249 -1.8571 -0.2576  0.7770
 2831TIP3    H2 8458   1.921   1.050   4.338  1.0029 -1.5393 -0.7308
 2832TIP3   OH2 8459   5.431   4.259   3.857  0.0159  0.6493  0.7728
 2832TIP3    H1 8460   5.413   4.196   3.927 -0.3217 -0.1004  0.0272
 2832TIP3    H2 8461   5.503   4.219   3.807 -1.7583 -0.3484 -1.1306
 2833TIP3   OH2 8462   7.172   6.286   3.443  0.0375 -0.5000  0.2563
 2833TIP3    H1 8463   7.257   6.276   3.399 -0.3364  0.3090 -0.6970
 2833TIP3    H2 8464   7.111   6.305   3.372 -0.5482  1.1027  1.1442
 2834TIP3   OH2 8465   5.374   1.064   0.316 -0.1531 -0.0887  0.1037
 2834TIP3    H1 8466   5.467   1.070   0.291 -0.1133  1.7371  0.5207
 2834TIP3    H2 8467   5.334   1.013   0.247  1.1886 -1.0324 -0.0153
 2835TIP3   OH2 8468   4.632   1.108   3.756  0.1672  0.6277 -0.0214
 2835TIP3    H1 8469   4.710   1.062   3.786  0.1978  0.2077 -0.7329
 2835TIP3    H2 8470   4.591   1.049   3.694 -1.1813  0.4901  0.9477
 2836TIP3   OH2 8471   6.569   0.670   3.050  0.1831 -0.0981  0.3246
 2836TIP3    H1 8472   6.524   0.607   2.993 -1.4890 -0.2422  1.7348
 2836TIP3    H2 8473   6.633   0.617   3.097  1.0066 -0.1252 -0.7779
 2837TIP3   OH2 8474   5.101   0.382   4.890 -0.0433  0.4135  0.0469
 2837TIP3    H1 8475   5.193   0.410   4.885 -0.1491  0.7561  0.0504
 2837TIP3    H2 8476   5.050   0.461   4.874 -0.3416 -0.0435 -1.4691
 2838TIP3   OH2 8477   0.253   4.129   2.852 -0.7482  0.1344 -1.0420
 2838TIP3    H1 8478   0.216   4.094   2.934  1.2381 -2.0302 -0.9612
 2838TIP3    H2 8479   0.327   4.183   2.880  0.6680 -1.5511 -1.3623
 2839TIP3   OH2 8480   0.043   0.151   5.356  0.1119 -0.4542  0.1361
 2839TIP3    H1 8481  -0.036   0.120   5.312  0.5382  0.9371 -1.7438
 2839TIP3    H2 8482   0.113   0.133   5.294  1.2686 -1.3128  1.6116
 2840TIP3   OH2 8483   0.732   4.223   3.938 -0.0140  0.4368 -0.0124
 2840TIP3    H1 8484   0.723   4.136   3.898  0.4948  0.0233  0.7387
 2840TIP3    H2 8485   0.825   4.230   3.960 -0.2731  0.6338  1.1018
 2841TIP3   OH2 8486   1.811   6.752   2.990  0.8322  0.0520  0.1803
 2841TIP3    H1 8487   1.900   6.722   2.973  0.3929 -1.9541  1.1587
 2841TIP3    H2 8488   1.806   6.760   3.085 -0.2051 -0.5390  0.1930
 2842TIP3   OH2 8489   1.249   1.715   2.508 -0.3727 -0.4260 -0.0273
 2842TIP3    H1 8490   1.170   1.726   2.455  0.5843  1.8514 -1.1124
 2842TIP3    H2 8491   1.225   1.748   2.595 -0.4528  0.9014 -0.5379
 2843TIP3   OH2 8492   5.756   5.880   0.200  0.5361 -0.3371  0.8720
 2843TIP3    H1 8493   5.761   5.897   0.106  2.6894 -0.0117  0.9862
 2843TIP3    H2 8494   5.689   5.813   0.209  0.6609 -0.7548 -0.9616
 2844TIP3   OH2 8495   7.005   4.596   2.479 -0.2601  0.4061 -0.3347
 2844TIP3    H1 8496   6.998   4.558   2.391 -0.1134 -2.0269  0.6268
 2844TIP3    H2 8497   6.922   4.641   2.493  0.1426  1.8232 -2.1001
 2845TIP3   OH2 8498   6.320   1.048   0.529 -0.3440  0.2888  0.0132
 2845TIP3    H1 8499   6.299   0.988   0.600  0.2047  0.2044  0.1080
 2845TIP3    H2 8500   6.347   1.128   0.572  0.4010  0.0983 -0.0908
 2846TIP3   OH2 8501   5.313   5.029   2.108  0.5815  0.5397  0.0300
 2846TIP3    H1 8502   5.406   5.004   2.104  0.7576  1.2212 -0.3316
 2846TIP3    H2 8503   5.277   4.976   2.179  1.6061  1.4042  1.2446
 2847TIP3   OH2 8504   5.232   4.170   2.470  0.5470 -0.0865 -0.0256
 2847TIP3    H1 8505   5.175   4.094   2.463  0.7229 -0.1792 -0.4922
 2847TIP3    H2 8506   5.314   4.136   2.506  1.3255 -0.5040 -2.0586
 2848TIP3   OH2 8507   1.806   1.341   3.380  1.0072  0.5958 -0.5747
 2848TIP3    H1 8508   1.867   1.268   3.396 -0.2261 -0.7485 -1.7373
 2848TIP3    H2 8509   1.720   1.299   3.376 -0.3308  2.6131  2.7149
 2849TIP3   OH2 8510   6.737   5.533   0.517 -0.5700  0.1317 -0.9947
 2849TIP3    H1 8511   6.718   5.557   0.426 -0.8610  1.0438 -0.7092
 2849TIP3    H2 8512   6.833   5.526   0.520 -0.0920  4.0774 -0.5392
 2850TIP3   OH2 8513   0.042   0.735   0.917  0.1514  0.6191  0.1281
 2850TIP3    H1 8514  -0.037   0.708   0.964  0.0076 -1.3335 -1.0977
 2850TIP3    H2 8515   0.010   0.760   0.830  0.8027  0.4471 -0.1636
 2851TIP3   OH2 8516   2.463   4.763   4.468 -0.6695 -0.0778 -0.0975
 2851TIP3    H1 8517   2.499   4.794   4.551 -2.2839  1.3741  0.1426
 2851TIP3    H2 8518   2.507   4.816   4.401 -0.1402 -0.4850 -0.0673
 2852TIP3   OH2 8519   5.789   2.113   3.201 -0.3162  0.2091  0.0501
 2852TIP3    H1 8520   5.884   2.130   3.200 -0.4009  0.7645 -1.3017
 2852TIP3    H2 8521   5.769   2.089   3.111 -1.5058  0.2507  0.2958
 2853TIP3   OH2 8522   5.529   4.161   1.708  0.1992 -0.2841 -0.4721
 2853TIP3    H1 8523   5.462   4.141   1.774  0.0894 -0.4419 -0.6280
 2853TIP3    H2 8524   5.540   4.256   1.712 -0.3398 -0.2016 -0.7307
 2854TIP3   OH2 8525   1.277   1.548   4.223 -0.1837 -0.1153  0.6507
 2854TIP3    H1 8526   1.261   1.467   4.271 -2.4899  0.2168  0.5192
 2854TIP3    H2 8527   1.269   1.617   4.289 -0.7533  0.1613  0.2978
 2855TIP3   OH2 8528   1.279   5.302   1.034  0.2583 -0.5140  0.3114
 2855TIP3    H1 8529   1.258   5.259   0.951 -0.0251  0.9035 -0.3705
 2855TIP3    H2 8530   1.230   5.384   1.032 -1.0382 -1.1412  2.5816
 2856TIP3   OH2 8531   2.648   6.520   4.675 -0.0894  0.4714 -0.1460
 2856TIP3    H1 8532   2.600   6.513   4.758 -1.0601  0.2758 -0.7076
 2856TIP3    H2 8533   2.740   6.524   4.701 -0.3412 -0.1074  0.9199
 2857TIP3   OH2 8534   1.900   5.551   3.951 -0.2563  0.4701 -0.3735
 2857TIP3    H1 8535   1.900   5.492   3.876 -0.6428 -1.2091  0.8741
 2857TIP3    H2 8536   1.868   5.634   3.917  0.7239  0.1105 -2.2916
 2858TIP3   OH2 8537   0.793   1.260   1.725  0.4219 -0.3325 -0.4289
 2858TIP3    H1 8538   0.732   1.313   1.778 -0.2430 -0.2143 -1.2918
 2858TIP3    H2 8539   0.870   1.250   1.781  0.0022  0.3573  0.3038
 2859TIP3   OH2 8540   5.674   6.200   5.220 -0.5227  0.1535  0.1323
 2859TIP3    H1 8541   5.597   6.228   5.169 -0.1011  0.6273 -0.2511
 2859TIP3    H2 8542   5.748   6.243   5.177 -0.0076 -0.5170  0.3403
 2860TIP3   OH2 8543   4.232   2.546   3.937  0.6153 -0.1566 -0.1908
 2860TIP3    H1 8544   4.159   2.579   3.989  0.7516 -0.3353  0.1152
 2860TIP3    H2 8545   4.272   2.625   3.901 -0.1360 -0.0991 -0.9167
 2861TIP3   OH2 8546   4.177   2.811   2.315 -0.0763 -0.3376  0.4224
 2861TIP3    H1 8547   4.227   2.842   2.240 -0.8626 -0.4425 -0.1608
 2861TIP3    H2 8548   4.216   2.726   2.336  0.8359  0.1611  0.8203
 2862TIP3   OH2 8549   2.405   5.042   1.614  0.1139  0.3350  0.2509
 2862TIP3    H1 8550   2.383   5.046   1.707  0.8697 -1.6400  0.5816
 2862TIP3    H2 8551   2.465   5.115   1.600 -0.1411  0.7559  1.2704
 2863TIP3   OH2 8552   3.737   4.938   3.966  0.0152  0.3501 -0.2599
 2863TIP3    H1 8553   3.674   5.008   3.950 -1.0630 -0.3524  0.7736
 2863TIP3    H2 8554   3.691   4.877   4.023  0.5366 -1.7749 -1.9775
 2864TIP3   OH2 8555   2.108   0.558   2.847  0.0168 -0.1977  0.1357
 2864TIP3    H1 8556   2.085   0.487   2.787  1.8359 -0.9115  0.2213
 2864TIP3    H2 8557   2.203   0.551   2.858 -0.0427  0.9196  1.8315
 2865TIP3   OH2 8558   4.003   4.635   5.516  0.1186  0.2382 -0.4773
 2865TIP3    H1 8559   4.083   4.682   5.490 -1.5285  3.0778 -0.7693
 2865TIP3    H2 8560   3.936   4.703   5.522 -2.0172 -1.8557  1.0466
 2866TIP3   OH2 8561   0.796   0.723   4.167 -0.0516 -0.4851  0.0098
 2866TIP3    H1 8562   0.708   0.691   4.189 -0.9453  1.3150 -0.6834
 2866TIP3    H2 8563   0.853   0.687   4.235 -1.4904 -0.9191  1.0342
 2867TIP3   OH2 8564   3.186   0.209   2.443  0.1072 -0.2765 -0.5306
 2867TIP3    H1 8565   3.098   0.196   2.406  0.3475 -0.2500 -1.1325
 2867TIP3    H2 8566   3.237   0.135   2.410 -0.1502 -1.3695  1.3901
 2868TIP3   OH2 8567   0.493   3.967   2.535 -0.6062  0.7396 -0.0456
 2868TIP3    H1 8568   0.538   3.928   2.460  0.6985 -0.0756  1.0976
 2868TIP3    H2 8569   0.443   3.895   2.574  0.3950  0.5912  1.0409
 2869TIP3   OH2 8570   7.147   2.052   0.720 -0.7220  0.2257 -0.2084
 2869TIP3    H1 8571   7.105   2.134   0.694 -1.4613  0.3500  1.2499
 2869TIP3    H2 8572   7.239   2.075   0.735 -0.5324  0.3855 -1.5145
 2870TIP3   OH2 8573   2.789   1.227   2.991  0.8120 -0.2568  0.1515
 2870TIP3    H1 8574   2.859   1.290   3.010  0.0345  0.8753 -0.5752
 2870TIP3    H2 8575   2.762   1.195   3.077  0.5617  1.1658  0.6367
 2871TIP3   OH2 8576   5.443   3.489   5.591  0.0449  0.3470 -0.2646
 2871TIP3    H1 8577   5.537   3.498   5.578  0.1169  0.1908  0.1371
 2871TIP3    H2 8578   5.409   3.469   5.503  0.3914  0.3459 -0.4015
 2872TIP3   OH2 8579   4.747   0.899   1.586  0.3902  0.1768 -0.2075
 2872TIP3    H1 8580   4.819   0.950   1.550 -0.0745  0.2234 -1.0865
 2872TIP3    H2 8581   4.672   0.921   1.532 -0.1394 -0.3707  0.2900
 2873TIP3   OH2 8582   0.088   4.247   4.661  0.5155 -0.0072  0.5915
 2873TIP3    H1 8583   0.032   4.312   4.618 -1.1767 -0.0786  2.5138
 2873TIP3    H2 8584   0.094   4.277   4.752  0.3987 -2.0507  1.3307
 2874TIP3   OH2 8585   1.380   1.565   0.278  0.0690 -0.3058  0.0827
 2874TIP3    H1 8586   1.287   1.562   0.256 -0.0181 -0.1899  0.4233
 2874TIP3    H2 8587   1.419   1.620   0.210 -0.4844  1.5556  1.2049
 2875TIP3   OH2 8588   5.081   1.385   1.537 -0.0741 -0.1313 -0.1224
 2875TIP3    H1 8589   5.111   1.303   1.498  2.2651  0.6026 -0.0083
 2875TIP3    H2 8590   4.999   1.404   1.492  0.9235 -0.9414 -2.4150
 2876TIP3   OH2 8591   6.743   1.469   5.109  0.0883 -0.1001  0.5928
 2876TIP3    H1 8592   6.821   1.438   5.062 -0.2401 -1.1005  0.7067
 2876TIP3    H2 8593   6.743   1.421   5.191  1.4391  2.6514  2.3432
 2877TIP3   OH2 8594   3.619   1.167   3.886  0.3787  0.3238  0.1115
 2877TIP3    H1 8595   3.682   1.096   3.871 -1.5807 -1.2394 -1.1433
 2877TIP3    H2 8596   3.647   1.237   3.827 -0.1788 -1.1397 -2.0103
 2878TIP3   OH2 8597   5.214   5.070   5.473 -0.3288 -0.0871 -0.8624
 2878TIP3    H1 8598   5.200   4.985   5.431  0.9126 -1.4688  1.3304
 2878TIP3    H2 8599   5.308   5.070   5.495 -0.7956  0.7609  1.3241
 2879TIP3   OH2 8600   2.170   2.871   5.540 -0.0984  0.0560 -0.2181
 2879TIP3    H1 8601   2.094   2.884   5.596  1.1048  0.3423  1.4048
 2879TIP3    H2 8602   2.135   2.871   5.451 -2.0785 -0.5743  0.5199
 2880TIP3   OH2 8603   4.100   4.025   4.517  0.0348  0.1019  0.3858
 2880TIP3    H1 8604   4.153   4.099   4.486 -1.1403  0.0220 -2.1185
 2880TIP3    H2 8605   4.110   3.959   4.448 -0.3253 -1.4071  1.7272
 2881TIP3   OH2 8606   0.773   3.923   4.777  0.0944  0.2198 -0.7646
 2881TIP3    H1 8607   0.787   3.947   4.685 -0.1902 -0.1398 -0.9023
 2881TIP3    H2 8608   0.698   3.863   4.775  0.0237  0.2896 -0.2873
 2882TIP3   OH2 8609   5.768   2.869   4.527 -0.0973 -0.3381  0.0840
 2882TIP3    H1 8610   5.833   2.928   4.566 -1.9082  0.7186  1.6746
 2882TIP3    H2 8611   5.700   2.927   4.493 -1.6340 -1.4257  1.1395
 2883TIP3   OH2 8612   7.179   6.204   5.340  0.3552  0.6344 -0.3907
 2883TIP3    H1 8613   7.150   6.287   5.378 -0.4165  0.0435  0.3658
 2883TIP3    H2 8614   7.195   6.147   5.416  2.4844  0.5773 -0.8203
 2884TIP3   OH2 8615   6.658   6.552   5.673 -0.3289 -0.7043  0.1288
 2884TIP3    H1 8616   6.666   6.600   5.755 -0.6484  1.8088 -1.2273
 2884TIP3    H2 8617   6.598   6.480   5.693  0.7826 -1.0602  2.4319
 2885TIP3   OH2 8618   2.261   0.223   2.195 -0.1284 -0.5456  0.3930
 2885TIP3    H1 8619   2.309   0.206   2.276  0.6778  1.3036  0.3591
 2885TIP3    H2 8620   2.176   0.257   2.225  0.1205  0.0153  0.4728
 2886TIP3   OH2 8621   1.336   2.817   1.030  0.1775  0.4564  0.4462
 2886TIP3    H1 8622   1.382   2.758   0.970 -2.0781  1.0090 -2.0152
 2886TIP3    H2 8623   1.382   2.901   1.021  1.3291 -0.0451  1.3998
 2887TIP3   OH2 8624   7.215   3.182   2.696  1.1728  0.2719 -0.4463
 2887TIP3    H1 8625   7.217   3.098   2.649  0.8199 -0.2895  0.5025
 2887TIP3    H2 8626   7.122   3.202   2.704  1.2768  1.6959 -2.2382
 2888TIP3   OH2 8627   3.697   3.829   3.571  0.1428 -0.3961  0.1343
 2888TIP3    H1 8628   3.641   3.874   3.634  2.4270  0.0866  1.9565
 2888TIP3    H2 8629   3.639   3.765   3.529 -2.3929  1.9318 -0.1485
 2889TIP3   OH2 8630   2.188   3.811   4.871 -0.0058  0.2057 -0.0351
 2889TIP3    H1 8631   2.223   3.797   4.959  0.1843  0.5846 -0.0507
 2889TIP3    H2 8632   2.185   3.723   4.833 -0.6134 -0.0394  0.5410
 2890TIP3   OH2 8633   6.060   0.830   3.368 -0.4537 -0.3438 -0.3788
 2890TIP3    H1 8634   6.076   0.766   3.299  1.7326  0.7818 -1.0157
 2890TIP3    H2 8635   6.068   0.915   3.325  0.5750  0.3846  1.1304
 2891TIP3   OH2 8636   5.204   5.433   2.845  0.6718 -0.5498  0.2388
 2891TIP3    H1 8637   5.134   5.381   2.804  1.2249 -1.4039  0.3466
 2891TIP3    H2 8638   5.177   5.524   2.831  0.5469 -0.8167 -1.5180
 2892TIP3   OH2 8639   1.320   4.431   3.987 -0.2125  0.1899 -0.5110
 2892TIP3    H1 8640   1.278   4.403   3.906  1.2854 -1.9338 -0.6391
 2892TIP3    H2 8641   1.312   4.355   4.045 -0.1016  1.2120  0.8838
 2893TIP3   OH2 8642   1.929   2.117   1.807 -0.0913  0.0743 -0.3716
 2893TIP3    H1 8643   1.887   2.058   1.744 -2.0155  0.6314  0.2982
 2893TIP3    H2 8644   1.983   2.060   1.861 -0.4411 -0.7943 -0.9135
 2894TIP3   OH2 8645   2.343   4.134   1.957  0.4137  0.2096  0.4163
 2894TIP3    H1 8646   2.305   4.210   2.002 -0.4478  0.2497 -0.3464
 2894TIP3    H2 8647   2.315   4.059   2.010 -2.5287  0.0323 -1.1425
 2895TIP3   OH2 8648   5.822   1.340   1.302  0.1806 -0.1843  0.4025
 2895TIP3    H1 8649   5.748   1.324   1.360 -1.4380  0.2668 -1.4172
 2895TIP3    H2 8650   5.822   1.435   1.289  1.3611 -0.1257  0.6786
 2896TIP3   OH2 8651   1.309   1.995   0.760  0.7179  0.2623  0.2755
 2896TIP3    H1 8652   1.339   2.030   0.844  0.2716 -0.2371  0.6450
 2896TIP3    H2 8653   1.276   1.908   0.780 -0.2358  0.4874 -0.2607
 2897TIP3   OH2 8654   5.582   2.370   3.443  0.6873 -0.0276 -0.3069
 2897TIP3    H1 8655   5.549   2.286   3.411  1.1100 -0.7028  0.9679
 2897TIP3    H2 8656   5.529   2.435   3.397 -0.7291 -1.0237 -0.1594
 2898TIP3   OH2 8657   4.929   4.770   1.478 -0.2381  0.0525 -0.1176
 2898TIP3    H1 8658   4.990   4.721   1.533  0.3411 -0.7509 -1.4249
 2898TIP3    H2 8659   4.899   4.706   1.413 -1.7044  0.7014 -0.1290
 2899TIP3   OH2 8660   4.060   0.878   5.488 -0.1370  0.3723  0.1067
 2899TIP3    H1 8661   4.072   0.908   5.578 -1.4189  2.0236 -0.2243
 2899TIP3    H2 8662   4.075   0.783   5.492  4.0112  0.8891  1.2267
 2900TIP3   OH2 8663   0.184   6.062   0.070 -0.4059 -1.1467  0.7125
 2900TIP3    H1 8664   0.243   6.065  -0.005 -0.7467 -2.4263  0.3655
 2900TIP3    H2 8665   0.196   6.146   0.114  0.3679 -0.6903 -0.3383
 2901TIP3   OH2 8666   1.755   5.047   3.498 -0.2606  1.1855  0.1608
 2901TIP3    H1 8667   1.695   5.121   3.488  0.3403  2.0944  2.4971
 2901TIP3    H2 8668   1.829   5.084   3.547  0.1279 -0.9291  1.2555
 2902TIP3   OH2 8669   2.791   1.102   2.746 -0.3120 -0.0892 -0.7106
 2902TIP3    H1 8670   2.701   1.069   2.742  0.1425 -1.2808 -3.8572
 2902TIP3    H2 8671   2.800   1.137   2.834 -3.2761 -1.5815  0.3033
 2903TIP3   OH2 8672   6.092   5.220   3.982  0.4476 -0.0381  0.1316
 2903TIP3    H1 8673   6.050   5.292   4.030  1.6360  1.4609 -0.9675
 2903TIP3    H2 8674   6.023   5.154   3.974 -1.1461  1.5360  0.0096
 2904TIP3   OH2 8675   0.769   6.655   0.280 -0.1807 -0.0491  0.0054
 2904TIP3    H1 8676   0.790   6.627   0.191 -1.9663  0.7539 -0.7270
 2904TIP3    H2 8677   0.807   6.742   0.288  2.4045 -1.1842  1.0764
 2905TIP3   OH2 8678   6.066   6.063   2.639 -0.0982 -0.2192 -0.2223
 2905TIP3    H1 8679   5.983   6.093   2.677  1.0090  1.7385  0.8004
 2905TIP3    H2 8680   6.055   6.075   2.545 -1.3798 -1.1385 -0.2199
 2906TIP3   OH2 8681   5.196   3.271   1.808 -0.0845  0.5090 -0.7239
 2906TIP3    H1 8682   5.106   3.271   1.774 -0.4977 -0.2663  0.3138
 2906TIP3    H2 8683   5.195   3.334   1.879 -0.1301 -0.3343  0.0464
 2907TIP3   OH2 8684   4.612   0.145   4.506 -0.0480  0.0728  0.9818
 2907TIP3    H1 8685   4.611   0.077   4.573 -2.5675 -0.5211  0.4607
 2907TIP3    H2 8686   4.622   0.098   4.423  3.0381  0.7947  0.8240
 2908TIP3   OH2 8687   4.331   1.461   5.349 -0.2490 -0.2920 -0.6186
 2908TIP3    H1 8688   4.424   1.453   5.326  0.1544  1.7434  0.1170
 2908TIP3    H2 8689   4.326   1.439   5.441 -0.7453 -1.7284 -0.9699
 2909TIP3   OH2 8690   2.895   5.640   5.368  0.0234 -0.3214 -0.2401
 2909TIP3    H1 8691   2.875   5.547   5.354 -0.0615 -0.1579 -1.2751
 2909TIP3    H2 8692   2.988   5.648   5.348  0.7245 -0.6570  2.4367
 2910TIP3   OH2 8693   5.206   0.931   5.146  0.5479 -0.2841 -0.2369
 2910TIP3    H1 8694   5.223   0.943   5.052  0.7357 -0.1001 -0.1783
 2910TIP3    H2 8695   5.166   1.014   5.173  2.3002  0.4345  0.2809
 2911TIP3   OH2 8696   6.104   5.210   1.624 -0.1730  0.1345 -0.3836
 2911TIP3    H1 8697   6.142   5.146   1.565 -1.1751  0.3586 -1.3055
 2911TIP3    H2 8698   6.027   5.167   1.662  0.4021  0.0270  0.6987
 2912TIP3   OH2 8699   5.062   3.558   4.151 -0.3885 -0.1184 -0.4095
 2912TIP3    H1 8700   5.145   3.589   4.186 -0.8330  1.6242 -0.8022
 2912TIP3    H2 8701   5.003   3.558   4.227 -0.7433  1.3995 -0.6578
 2913TIP3   OH2 8702   3.411   1.503   2.219 -0.2452 -0.6880  0.1570
 2913TIP3    H1 8703   3.466   1.551   2.156 -2.8505  2.1813 -0.2106
 2913TIP3    H2 8704   3.361   1.442   2.165 -0.6002 -0.0738 -0.2358
 2914TIP3   OH2 8705   6.542   4.604   2.628  0.0030  0.1996 -0.2429
 2914TIP3    H1 8706   6.565   4.512   2.616  1.0635  0.2375  1.2876
 2914TIP3    H2 8707   6.614   4.652   2.588 -1.6152  0.4884 -3.1480
 2915TIP3   OH2 8708   1.458   5.436   1.767  0.0722 -0.3164  0.3154
 2915TIP3    H1 8709   1.436   5.415   1.676  1.5143 -1.8543  0.2837
 2915TIP3    H2 8710   1.380   5.409   1.816 -1.3969  2.0449 -0.5579
 2916TIP3   OH2 8711   0.940   3.947   3.623 -0.2975  0.0988  0.5202
 2916TIP3    H1 8712   0.906   3.915   3.539  0.6487  0.2506  0.0666
 2916TIP3    H2 8713   1.023   3.902   3.633 -0.2702  0.3036  1.2478
 2917TIP3   OH2 8714   0.747   4.917   5.385  0.1020 -0.1828  0.0204
 2917TIP3    H1 8715   0.805   4.900   5.459 -1.7452 -2.5616  1.0715
 2917TIP3    H2 8716   0.681   4.848   5.390 -1.3815  0.8916 -2.5779
 2918TIP3   OH2 8717   2.933   3.210   3.014  0.1155  0.2700  0.3392
 2918TIP3    H1 8718   2.942   3.261   2.933  0.2042  1.5784  1.1619
 2918TIP3    H2 8719   3.021   3.209   3.052  0.0278 -0.1565  0.5377
 2919TIP3   OH2 8720   4.253   5.709   3.949 -0.5462 -0.1277  0.1952
 2919TIP3    H1 8721   4.284   5.625   3.981 -1.7278 -0.1062  1.4728
 2919TIP3    H2 8722   4.283   5.772   4.015 -1.9736  0.0831  0.6617
 2920TIP3   OH2 8723   0.316   1.405   2.290  0.1437  0.2031  0.2574
 2920TIP3    H1 8724   0.377   1.386   2.361  0.4258  0.0270 -0.0319
 2920TIP3    H2 8725   0.246   1.341   2.302  0.4845 -0.2186  0.0226
 2921TIP3   OH2 8726   5.338   4.749   4.219  0.1140 -0.0659  0.0972
 2921TIP3    H1 8727   5.376   4.665   4.246 -0.7089 -0.7024 -0.6444
 2921TIP3    H2 8728   5.356   4.808   4.292 -1.3586 -1.5107  1.7247
 2922TIP3   OH2 8729   5.344   5.005   1.666  0.1703 -0.0265 -0.2305
 2922TIP3    H1 8730   5.342   4.927   1.721  1.0276  0.4589  0.5218
 2922TIP3    H2 8731   5.270   4.995   1.607  0.6000 -1.6782 -0.5360
 2923TIP3   OH2 8732   5.353   4.517   5.229  0.5267 -0.1964  0.2286
 2923TIP3    H1 8733   5.309   4.509   5.144  2.0135  1.8841 -0.8427
 2923TIP3    H2 8734   5.282   4.521   5.293 -0.8216  1.4687 -1.2679
 2924TIP3   OH2 8735   5.119   4.314   4.588 -0.0573  0.2492 -0.5268
 2924TIP3    H1 8736   5.135   4.322   4.493  1.3983 -0.0474 -0.3298
 2924TIP3    H2 8737   5.098   4.403   4.616 -0.8699  0.2780 -1.1788
 2925TIP3   OH2 8738   5.719   3.436   3.475 -0.2685  0.2907 -0.2012
 2925TIP3    H1 8739   5.695   3.344   3.487  0.6572  0.2382  1.8036
 2925TIP3    H2 8740   5.815   3.436   3.477 -0.2223  1.4737  2.3803
 2926TIP3   OH2 8741   1.871   5.657   1.998 -0.3282  0.2917  0.2614
 2926TIP3    H1 8742   1.795   5.701   2.036 -0.7194  1.2868 -1.5606
 2926TIP3    H2 8743   1.834   5.599   1.932  0.4198 -0.1961  0.2639
 2927TIP3   OH2 8744   3.538   6.640   4.548  0.0868 -0.6402 -0.6523
 2927TIP3    H1 8745   3.581   6.556   4.567  1.2626 -0.0565 -0.6179
 2927TIP3    H2 8746   3.576   6.701   4.612 -0.5052 -0.0065 -0.8942
 2928TIP3   OH2 8747   3.077   2.182   5.075  0.0975 -0.2857  0.0537
 2928TIP3    H1 8748   2.998   2.165   5.127  0.1751 -1.9767 -0.3301
 2928TIP3    H2 8749   3.062   2.268   5.035 -1.5663 -0.6162 -0.0723
 2929TIP3   OH2 8750   3.066   2.464   2.737  0.2629 -0.0189 -0.4865
 2929TIP3    H1 8751   3.139   2.497   2.790  0.1247  0.3691 -0.5340
 2929TIP3    H2 8752   3.027   2.395   2.791  2.0600 -1.8665 -1.4192
 2930TIP3   OH2 8753   4.998   5.239   5.500 -0.5325 -0.4375 -0.1118
 2930TIP3    H1 8754   4.927   5.176   5.488  0.2247 -1.3086 -0.0948
 2930TIP3    H2 8755   5.078   5.186   5.497  0.0169  0.0198  2.9129
 2931TIP3   OH2 8756   4.901   5.615   2.343  0.1071 -0.0516  0.0860
 2931TIP3    H1 8757   4.854   5.541   2.381  0.7624 -1.7619 -2.2155
 2931TIP3    H2 8758   4.959   5.576   2.278 -1.7623  2.6419 -3.5905
 2932TIP3   OH2 8759   4.043   5.854   5.679 -0.2639  1.0003 -0.0942
 2932TIP3    H1 8760   4.025   5.898   5.596  1.4458 -0.0566 -1.0851
 2932TIP3    H2 8761   4.110   5.908   5.721  0.9732  0.0331 -0.7658
 2933TIP3   OH2 8762   6.441   2.854   3.722  0.1649 -0.5081 -0.3505
 2933TIP3    H1 8763   6.455   2.794   3.795  0.1885  0.6557  0.6250
 2933TIP3    H2 8764   6.494   2.931   3.743 -1.3909  0.6774 -0.5679
 2934TIP3   OH2 8765   4.541   5.035   5.329 -0.5530 -0.1529 -0.1052
 2934TIP3    H1 8766   4.483   5.001   5.397 -0.3855  1.1808  0.7385
 2934TIP3    H2 8767   4.568   4.958   5.279  0.0658 -1.3007  1.8999
 2935TIP3   OH2 8768   2.060   6.015   2.341 -0.5970 -0.7567 -0.4153
 2935TIP3    H1 8769   2.130   6.038   2.281 -0.5661 -0.4382 -0.2569
 2935TIP3    H2 8770   1.983   6.003   2.285 -0.8100  0.5132 -0.4352
 2936TIP3   OH2 8771   0.894   6.550   0.047  0.6379 -0.4369 -0.0279
 2936TIP3    H1 8772   0.843   6.499  -0.017  1.1004  2.4386 -2.9078
 2936TIP3    H2 8773   0.975   6.573   0.002  0.4341  2.8553  1.0138
 2937TIP3   OH2 8774   1.271   1.662   3.345 -0.1144 -0.0088  0.0629
 2937TIP3    H1 8775   1.322   1.604   3.290  1.0340 -0.0316  1.1128
 2937TIP3    H2 8776   1.335   1.713   3.394 -1.0945  0.9345  0.4210
 2938TIP3   OH2 8777   2.820   5.371   5.288  0.4864 -0.4213 -0.2102
 2938TIP3    H1 8778   2.804   5.379   5.194 -0.1653 -1.3529 -0.1986
 2938TIP3    H2 8779   2.867   5.288   5.297 -0.2124 -0.7762  0.3489
 2939TIP3   OH2 8780   6.662   3.455   0.793 -0.3376  0.0572  0.0337
 2939TIP3    H1 8781   6.655   3.525   0.728 -0.1790  2.1482  2.1363
 2939TIP3    H2 8782   6.584   3.464   0.847  0.9629  0.3806  1.9489
 2940TIP3   OH2 8783   3.329   0.019   2.303  0.1284  0.1460 -0.7960
 2940TIP3    H1 8784   3.324   0.027   2.208  1.0455  2.6652 -0.7066
 2940TIP3    H2 8785   3.418  -0.010   2.320  0.8414  2.2170 -0.6821
 2941TIP3   OH2 8786   2.095   5.976   3.624  0.5487  0.0191 -0.2034
 2941TIP3    H1 8787   2.074   6.004   3.713  1.0902 -0.2587  0.0201
 2941TIP3    H2 8788   2.129   6.054   3.581  0.6988  0.0475 -0.0323
 2942TIP3   OH2 8789   3.624   0.785   1.024  0.5365 -0.1222  0.0157
 2942TIP3    H1 8790   3.693   0.850   1.011  0.4702 -0.2423 -1.0856
 2942TIP3    H2 8791   3.553   0.814   0.966  0.5935 -1.2921 -0.6720
 2943TIP3   OH2 8792   6.405   3.170   5.452  0.5243 -0.2378 -0.1439
 2943TIP3    H1 8793   6.436   3.243   5.506 -0.4456  0.0541  0.0294
 2943TIP3    H2 8794   6.317   3.195   5.425  0.7485 -0.6693 -1.3503
 2944TIP3   OH2 8795   4.132   4.760   0.165  0.4773 -0.4529 -0.3155
 2944TIP3    H1 8796   4.122   4.780   0.258  1.5279 -0.7228 -0.1282
 2944TIP3    H2 8797   4.099   4.839   0.120  1.8396  0.5311  0.3373
 2945TIP3   OH2 8798   1.401   6.051   0.885  0.7436 -0.7181  0.2811
 2945TIP3    H1 8799   1.359   5.967   0.900  0.2309 -0.3689  0.8578
 2945TIP3    H2 8800   1.347   6.114   0.933  0.8732 -0.0041 -0.4856
 2946TIP3   OH2 8801   3.638   1.798   1.808  0.5543 -0.3565  0.0746
 2946TIP3    H1 8802   3.658   1.758   1.892 -1.4870 -1.0812  0.2650
 2946TIP3    H2 8803   3.645   1.726   1.745  0.2304 -0.2395 -0.0963
 2947TIP3   OH2 8804   1.556   4.013   1.854 -0.4716 -0.0387 -0.3273
 2947TIP3    H1 8805   1.481   3.963   1.825  0.9398 -1.4714 -1.7094
 2947TIP3    H2 8806   1.583   3.971   1.935  0.3712 -1.2250 -1.1931
 2948TIP3   OH2 8807   6.986   2.058   1.794 -0.2850  0.0723  0.0206
 2948TIP3    H1 8808   6.987   2.068   1.698 -0.8042  1.5568  0.1463
 2948TIP3    H2 8809   7.039   1.980   1.810 -0.8506 -0.6782 -1.5279
 2949TIP3   OH2 8810   6.440   3.059   3.457  0.1223  0.1629  0.2582
 2949TIP3    H1 8811   6.404   2.973   3.481  2.1505 -0.5972  0.7959
 2949TIP3    H2 8812   6.474   3.094   3.540 -2.1246  2.2860  0.3893
 2950TIP3   OH2 8813   2.136   4.282   1.666  0.0212  0.6020 -0.2964
 2950TIP3    H1 8814   2.084   4.361   1.685 -1.6768  0.1417 -2.6301
 2950TIP3    H2 8815   2.166   4.252   1.752  0.1153  3.3578  0.7276
 2951TIP3   OH2 8816   6.799   3.980   5.249  0.0895 -0.2792 -0.6068
 2951TIP3    H1 8817   6.889   3.995   5.278 -0.0728 -2.0126  0.9957
 2951TIP3    H2 8818   6.747   4.046   5.294  0.1674 -1.4179  1.2363
 2952TIP3   OH2 8819   5.765   1.239   5.171 -0.3726 -0.5544 -0.3905
 2952TIP3    H1 8820   5.837   1.275   5.223 -0.7879 -2.3451  1.5366
 2952TIP3    H2 8821   5.693   1.300   5.185  0.0818  0.0170 -0.4770
 2953TIP3   OH2 8822   6.125   3.166   1.944 -0.0198 -0.0007  0.1506
 2953TIP3    H1 8823   6.039   3.148   1.908 -0.7220  1.2426  1.1147
 2953TIP3    H2 8824   6.114   3.249   1.991  1.2455 -0.7290  1.8294
 2954TIP3   OH2 8825   3.519   0.249   0.132 -0.2171  0.2679 -0.6940
 2954TIP3    H1 8826   3.608   0.283   0.141 -0.4602  0.8327 -0.3466
 2954TIP3    H2 8827   3.493   0.272   0.043 -0.2428  0.6695 -0.5862
 2955TIP3   OH2 8828   1.069   2.986   3.106  0.0647  0.1427 -1.2357
 2955TIP3    H1 8829   1.002   2.929   3.071  0.7418 -0.5214 -1.4859
 2955TIP3    H2 8830   1.151   2.954   3.067  0.6965  0.0792  0.0767
 2956TIP3   OH2 8831   1.796   1.137   0.486 -0.3751  0.0070  0.2299
 2956TIP3    H1 8832   1.782   1.209   0.548  1.8937  1.4028 -0.7427
 2956TIP3    H2 8833   1.891   1.127   0.483 -0.4448 -0.4338 -2.5303
 2957TIP3   OH2 8834   4.474   6.748   1.803  0.1767  0.2890  0.1609
 2957TIP3    H1 8835   4.407   6.680   1.815  1.3942 -0.9879 -0.0525
 2957TIP3    H2 8836   4.552   6.700   1.776  0.9914  1.8231 -0.3053
 2958TIP3   OH2 8837   1.768   0.986   1.016  0.5020 -0.0185  0.1172
 2958TIP3    H1 8838   1.773   0.900   1.059 -0.0124 -0.8316 -1.3869
 2958TIP3    H2 8839   1.677   0.993   0.987  0.2348  1.5570  1.2099
 2959TIP3   OH2 8840   1.481   1.924   4.300  0.0628  0.1005  0.0107
 2959TIP3    H1 8841   1.396   1.888   4.324 -0.6262  1.0589 -0.9219
 2959TIP3    H2 8842   1.538   1.847   4.290 -1.3521 -0.7709 -1.9315
 2960TIP3   OH2 8843   2.760   0.532   4.064  0.5853 -0.7648  0.3379
 2960TIP3    H1 8844   2.738   0.475   4.138  0.8997 -1.1240  0.1585
 2960TIP3    H2 8845   2.684   0.589   4.054  1.5323  1.0730  2.5932
 2961TIP3   OH2 8846   0.766   3.154   5.662 -0.0891  0.1740 -0.6433
 2961TIP3    H1 8847   0.839   3.171   5.723 -0.8650  2.6857 -0.2944
 2961TIP3    H2 8848   0.688   3.170   5.714 -0.8029  0.8059 -1.8653
 2962TIP3   OH2 8849   6.966   3.186   0.846  0.4979  0.4651  0.0155
 2962TIP3    H1 8850   7.036   3.133   0.884  0.0033  1.5970  2.7404
 2962TIP3    H2 8851   7.010   3.242   0.782  1.4387 -1.2826 -0.9352
 2963TIP3   OH2 8852   4.815   1.743   4.135 -0.3082 -0.6012 -0.0864
 2963TIP3    H1 8853   4.854   1.827   4.156 -0.4882 -0.1014 -1.6247
 2963TIP3    H2 8854   4.887   1.689   4.104 -0.2953 -0.8154  0.3074
 2964TIP3   OH2 8855   5.392   2.719   1.344  0.0647 -0.6285  0.1671
 2964TIP3    H1 8856   5.326   2.650   1.346 -0.2289 -0.4048  3.3877
 2964TIP3    H2 8857   5.397   2.750   1.434  4.3606 -0.4053  0.0461
 2965TIP3   OH2 8858   0.118   0.323   2.548  0.1424  0.7512 -0.3390
 2965TIP3    H1 8859   0.138   0.230   2.560 -0.3690  0.7319  0.4940
 2965TIP3    H2 8860   0.183   0.369   2.601  0.9357  0.9157 -1.4450
 2966TIP3   OH2 8861   7.162   5.757   2.398  0.0222  0.1620  0.4652
 2966TIP3    H1 8862   7.077   5.736   2.436  0.4371  0.6132  1.6941
 2966TIP3    H2 8863   7.223   5.699   2.445  0.0630 -2.6353 -2.6890
 2967TIP3   OH2 8864   2.917   1.636   0.213  0.6678 -0.1348 -0.1680
 2967TIP3    H1 8865   2.925   1.711   0.154  1.1348 -0.7082 -0.8589
 2967TIP3    H2 8866   2.837   1.652   0.262  1.8563  1.8895  1.2578
 2968TIP3   OH2 8867   1.451   6.417   2.508 -0.2656 -0.1833  0.5213
 2968TIP3    H1 8868   1.442   6.512   2.498  0.1746 -0.2995 -1.2945
 2968TIP3    H2 8869   1.362   6.385   2.520 -0.5778  0.3232 -0.3543
 2969TIP3   OH2 8870   6.671   5.893   4.467 -0.5121 -0.4653  0.4259
 2969TIP3    H1 8871   6.657   5.849   4.383  0.4935  0.8802 -0.4973
 2969TIP3    H2 8872   6.609   5.965   4.466 -0.4967 -0.4475  0.8488
 2970TIP3   OH2 8873   4.900   1.979   3.525  0.4118 -0.4153  0.5239
 2970TIP3    H1 8874   4.859   2.039   3.463  2.4421  2.1155  1.4831
 2970TIP3    H2 8875   4.841   1.979   3.601  1.3299  2.0700  1.3293
 2971TIP3   OH2 8876   4.835   5.618   2.922  0.4578  0.1811  0.0370
 2971TIP3    H1 8877   4.820   5.689   2.983  0.3587  0.3538 -0.1875
 2971TIP3    H2 8878   4.748   5.590   2.895  0.5146  0.6299 -0.6263
 2972TIP3   OH2 8879   1.804   4.083   0.933  0.0925  0.8814  0.0697
 2972TIP3    H1 8880   1.807   3.987   0.929  3.4067  0.8544  0.4811
 2972TIP3    H2 8881   1.759   4.102   1.016  1.5167 -0.4174  1.1977
 2973TIP3   OH2 8882   5.928   4.991   1.622  0.5650 -0.6289 -0.3092
 2973TIP3    H1 8883   5.833   5.001   1.617  0.6765  0.3487 -0.8640
 2973TIP3    H2 8884   5.945   4.963   1.711 -0.2590 -1.0320 -0.2670
 2974TIP3   OH2 8885   0.146   2.496   1.911  0.0339 -0.1726 -0.4354
 2974TIP3    H1 8886   0.201   2.574   1.920  0.0372  0.1887 -2.8905
 2974TIP3    H2 8887   0.204   2.429   1.875 -1.0092  0.1687 -2.9207
 2975TIP3   OH2 8888   5.328   4.317   0.352  0.0400 -0.7190 -0.0004
 2975TIP3    H1 8889   5.382   4.349   0.280 -2.2921  0.7937 -1.2159
 2975TIP3    H2 8890   5.352   4.372   0.426 -1.3396  1.5733 -1.1364
 2976TIP3   OH2 8891   2.848   3.405   5.855  0.6814 -0.2925  0.2128
 2976TIP3    H1 8892   2.848   3.500   5.851  0.1881 -0.2687  0.6463
 2976TIP3    H2 8893   2.935   3.381   5.887  1.2855 -0.0606 -1.1566
 2977TIP3   OH2 8894   2.806   0.337   5.478 -0.2109  0.4432 -0.1839
 2977TIP3    H1 8895   2.768   0.415   5.438  0.2880  0.3697 -0.8030
 2977TIP3    H2 8896   2.901   0.349   5.470 -0.1290 -0.9036 -1.6159
 2978TIP3   OH2 8897   5.755   4.013   1.614 -0.1994 -0.1359  0.7174
 2978TIP3    H1 8898   5.753   3.938   1.673 -3.1271 -0.2296  0.6387
 2978TIP3    H2 8899   5.689   4.072   1.648  1.2433  1.9523  0.1085
 2979TIP3   OH2 8900   4.432   1.273   1.099 -0.0446  0.0121 -0.3129
 2979TIP3    H1 8901   4.350   1.253   1.145  0.7144  0.0468  1.1173
 2979TIP3    H2 8902   4.458   1.190   1.060 -0.0062 -0.3733  0.4983
 2980TIP3   OH2 8903   6.264   3.230   0.335 -0.1569  0.0615 -0.1660
 2980TIP3    H1 8904   6.187   3.208   0.387 -3.0655  2.9291 -2.7862
 2980TIP3    H2 8905   6.314   3.291   0.389 -2.1464  1.6004  0.0151
 2981TIP3   OH2 8906   2.764   3.683   1.798  0.0450 -0.1085 -0.1340
 2981TIP3    H1 8907   2.683   3.633   1.810  0.8421 -1.3256  0.3958
 2981TIP3    H2 8908   2.800   3.692   1.886  1.9308 -2.1480 -0.6216
 2982TIP3   OH2 8909   4.769   1.288   2.972  0.0309  0.0613 -0.1734
 2982TIP3    H1 8910   4.730   1.304   3.058 -0.6660 -1.1539 -0.2349
 2982TIP3    H2 8911   4.850   1.339   2.971 -0.4791  0.9061  0.7991
 2983TIP3   OH2 8912   1.190   2.941   3.614 -0.0490  0.0968 -0.0496
 2983TIP3    H1 8913   1.212   2.970   3.702  1.8450  0.5123 -0.6358
 2983TIP3    H2 8914   1.107   2.984   3.595  0.7400  1.9804  0.5983
 2984TIP3   OH2 8915   2.288   0.780   4.447  0.3307  0.0164  0.0310
 2984TIP3    H1 8916   2.354   0.711   4.437 -0.1627 -0.4761  0.0647
 2984TIP3    H2 8917   2.334   0.852   4.488  0.5550 -0.8080  1.3011
 2985TIP3   OH2 8918   3.459   5.400   0.570  0.9156  0.7334  0.0513
 2985TIP3    H1 8919   3.498   5.349   0.499  2.5112  1.0948  0.6224
 2985TIP3    H2 8920   3.391   5.452   0.527  1.5476  0.6187 -1.1444
 2986TIP3   OH2 8921   2.007   2.002   0.235 -0.0108 -0.0800 -0.2113
 2986TIP3    H1 8922   1.958   2.006   0.153 -1.4316 -0.0112  0.6095
 2986TIP3    H2 8923   2.026   2.094   0.256 -0.1765 -0.0528 -0.1734
 2987TIP3   OH2 8924   6.764   4.124   2.804  0.3815  0.1055  0.4359
 2987TIP3    H1 8925   6.669   4.120   2.788  0.1724  4.2802 -0.6262
 2987TIP3    H2 8926   6.804   4.091   2.724 -0.2020 -0.6685  0.4593
 2988TIP3   OH2 8927   0.336   4.260   1.129 -0.0579 -0.3342  0.2774
 2988TIP3    H1 8928   0.311   4.295   1.043  2.0287  0.7113  0.0218
 2988TIP3    H2 8929   0.400   4.192   1.108 -0.6128 -1.0745  0.9687
 2989TIP3   OH2 8930   3.161  -0.016   5.177  0.3143 -0.0607  0.1495
 2989TIP3    H1 8931   3.190   0.075   5.165 -2.3625  0.9202  0.2842
 2989TIP3    H2 8932   3.174  -0.056   5.091 -0.9116  1.2695 -0.7098
 2990TIP3   OH2 8933   4.355   2.520   3.368  0.3158 -0.4814 -0.2053
 2990TIP3    H1 8934   4.397   2.478   3.443 -1.5283 -1.5868  0.2719
 2990TIP3    H2 8935   4.261   2.517   3.388 -0.0525  1.8558 -1.2280
 2991TIP3   OH2 8936   6.686   3.740   5.634 -0.2184 -0.2389  0.0125
 2991TIP3    H1 8937   6.651   3.666   5.684 -0.7980 -1.4166 -2.0143
 2991TIP3    H2 8938   6.609   3.778   5.591  0.4637 -0.5326 -1.5566
 2992TIP3   OH2 8939   6.409   0.251   3.850  0.1241 -0.1501 -0.4411
 2992TIP3    H1 8940   6.345   0.294   3.793 -0.7863 -2.6662 -1.4566
 2992TIP3    H2 8941   6.356   0.216   3.922  0.8190  0.2263  0.2661
 2993TIP3   OH2 8942   0.591   0.903   3.257  0.1369 -0.3430 -0.3176
 2993TIP3    H1 8943   0.621   0.952   3.181 -0.3186  1.9886  0.9050
 2993TIP3    H2 8944   0.530   0.962   3.301  0.6832 -1.4099  2.0458
 2994TIP3   OH2 8945   2.695   1.734   0.961  0.5397 -0.1819  0.4214
 2994TIP3    H1 8946   2.702   1.679   0.883  0.7906  0.9560 -0.3827
 2994TIP3    H2 8947   2.779   1.723   1.005  1.0531  0.4524 -0.3613
 2995TIP3   OH2 8948   6.780   2.099   1.963  0.3697 -0.5426  0.3694
 2995TIP3    H1 8949   6.827   2.096   1.880  1.4758  2.0640  0.8074
 2995TIP3    H2 8950   6.823   2.033   2.018  0.6136 -1.2316 -0.6231
 2996TIP3   OH2 8951   5.542   1.792   4.138 -0.6931  0.3809  0.2564
 2996TIP3    H1 8952   5.622   1.740   4.130  0.9153  2.7883 -0.2852
 2996TIP3    H2 8953   5.486   1.762   4.067  0.5868  0.0433 -0.6330
 2997TIP3   OH2 8954   5.017   1.393   4.719 -0.5545  0.3989  0.0470
 2997TIP3    H1 8955   4.952   1.426   4.782 -1.4537  0.2977 -0.8089
 2997TIP3    H2 8956   4.965   1.345   4.654  0.4307 -0.0670 -0.4104
 2998TIP3   OH2 8957   6.316   1.941   2.455  0.0754 -0.4105  0.3075
 2998TIP3    H1 8958   6.221   1.937   2.465 -0.1983  0.7465 -1.5510
 2998TIP3    H2 8959   6.348   1.866   2.506 -1.6455  0.3748  2.6988
 2999TIP3   OH2 8960   3.138   3.897   2.017 -0.1614  0.1149 -0.1328
 2999TIP3    H1 8961   3.146   3.993   2.020  0.8570  0.2457 -3.0951
 2999TIP3    H2 8962   3.223   3.865   2.046 -0.1013  0.1789 -0.2341
 3000TIP3   OH2 8963   1.990   0.183   0.289 -0.6704 -0.4490 -0.1489
 3000TIP3    H1 8964   2.084   0.200   0.280 -0.6469 -0.2755  0.4356
 3000TIP3    H2 8965   1.960   0.246   0.354 -1.2369 -0.3608 -0.4907
 3001TIP3   OH2 8966   3.666   0.323   4.214  0.4710  0.1748 -0.7878
 3001TIP3    H1 8967   3.725   0.311   4.289  0.0272  1.0722 -0.2714
 3001TIP3    H2 8968   3.599   0.383   4.246  0.2210  0.5051 -1.8828
 3002TIP3   OH2 8969   4.002   6.004   0.023  0.5414  0.5275  0.1518
 3002TIP3    H1 8970   4.097   6.003   0.026  0.5305  0.3242  0.5806
 3002TIP3    H2 8971   3.978   6.094   0.045  0.6187  0.3530  1.0089
 3003TIP3   OH2 8972   3.139   6.696   1.870 -0.2516  0.0891 -0.0134
 3003TIP3    H1 8973   3.081   6.645   1.927 -0.1634 -1.5324 -1.2960
 3003TIP3    H2 8974   3.206   6.633   1.841  1.0377  1.4509 -0.0774
 3004TIP3   OH2 8975   6.366   2.116   5.743  0.3674 -0.2124 -0.3185
 3004TIP3    H1 8976   6.377   2.044   5.680  0.8207 -0.2274 -0.2219
 3004TIP3    H2 8977   6.310   2.179   5.697 -0.7025 -0.9879 -0.1002
 3005TIP3   OH2 8978   5.791   2.624   2.648  0.0384 -0.0809  0.1704
 3005TIP3    H1 8979   5.810   2.662   2.734 -0.6873  0.0051  0.3018
 3005TIP3    H2 8980   5.790   2.530   2.664  3.0305 -0.2934 -0.3957
 3006TIP3   OH2 8981  -0.013   4.776   1.289  0.3248  0.4069  0.4648
 3006TIP3    H1 8982   0.046   4.847   1.315 -0.6872  1.0045  1.1810
 3006TIP3    H2 8983   0.045   4.709   1.252  1.7096  0.0937  2.9972
 3007TIP3   OH2 8984   1.350   5.178   3.001  0.0312 -0.0748  0.7538
 3007TIP3    H1 8985   1.349   5.240   3.074 -0.4282  0.3128  0.4311
 3007TIP3    H2 8986   1.261   5.141   3.000 -0.3291  0.7489 -0.2762
 3008TIP3   OH2 8987   1.079   6.189   2.718 -0.7126  0.0049  0.2228
 3008TIP3    H1 8988   1.043   6.268   2.759 -1.9098 -0.7402  0.6485
 3008TIP3    H2 8989   1.115   6.138   2.791  0.9684  0.5861 -0.1619
 3009TIP3   OH2 8990   6.267   0.173   4.629  0.0658 -0.2440 -0.0904
 3009TIP3    H1 8991   6.295   0.263   4.650 -0.5987 -0.4860  2.0893
 3009TIP3    H2 8992   6.243   0.176   4.537 -2.2140  2.4423  0.4750
 3010TIP3   OH2 8993   5.892   1.594   2.401 -0.4952 -0.4563 -0.3610
 3010TIP3    H1 8994   5.899   1.527   2.333 -0.8728 -0.8974  0.0233
 3010TIP3    H2 8995   5.852   1.548   2.475  1.3360 -0.3994  0.7133
 3011TIP3   OH2 8996   3.750   2.176   1.047 -0.1578 -0.7446  0.8281
 3011TIP3    H1 8997   3.785   2.172   0.958 -0.7891 -0.2973  0.5569
 3011TIP3    H2 8998   3.666   2.221   1.039 -0.7614 -1.6996  1.4938
 3012TIP3   OH2 8999   4.726   0.222   4.871  0.2658  0.3160  0.1934
 3012TIP3    H1 9000   4.770   0.285   4.927 -1.3497  1.7190 -0.0122
 3012TIP3    H2 9001   4.643   0.204   4.916  0.1340 -0.6559 -0.4027
 3013TIP3   OH2 9002   6.152   6.534   5.753  0.2299 -0.4346 -0.5434
 3013TIP3    H1 9003   6.131   6.626   5.734 -1.5047 -0.9065 -1.0950
 3013TIP3    H2 9004   6.190   6.536   5.841  0.4169  0.8273 -0.6361
 3014TIP3   OH2 9005   3.937   3.460   2.390 -0.3477 -0.3442  0.1145
 3014TIP3    H1 9006   3.893   3.500   2.315 -0.1560 -0.4952 -0.0783
 3014TIP3    H2 9007   3.903   3.371   2.393 -0.1751 -0.4115  0.0622
 3015TIP3   OH2 9008   4.392   3.028   4.890 -0.0944  0.6396  0.5330
 3015TIP3    H1 9009   4.318   2.987   4.847  1.8330  1.1156 -3.7322
 3015TIP3    H2 9010   4.376   3.122   4.880  0.1338  0.7829  1.4431
 3016TIP3   OH2 9011   4.621   5.945   5.097  0.0899 -0.0497  0.3581
 3016TIP3    H1 9012   4.572   5.869   5.067  0.0803  0.3749 -0.7669
 3016TIP3    H2 9013   4.566   6.020   5.075  0.1331  0.2981  1.3801
 3017TIP3   OH2 9014   6.526   6.116   2.958  0.1985 -0.4197  0.3407
 3017TIP3    H1 9015   6.548   6.042   2.900 -0.9988  0.5406 -1.4334
 3017TIP3    H2 9016   6.449   6.155   2.918  1.1158  2.1437  0.9086
 3018TIP3   OH2 9017   5.702   5.196   5.723 -0.1357 -0.4123  0.3171
 3018TIP3    H1 9018   5.702   5.254   5.647 -2.2735 -1.6241 -0.6634
 3018TIP3    H2 9019   5.675   5.253   5.796 -0.8008  0.1572 -0.3577
 3019TIP3   OH2 9020   3.091   2.781   1.565 -0.3171  0.0295  0.1252
 3019TIP3    H1 9021   3.093   2.829   1.648 -0.7267 -1.8841  1.3021
 3019TIP3    H2 9022   3.001   2.749   1.558 -0.3839  0.4480 -1.2578
 3020TIP3   OH2 9023   3.380   1.148   2.868 -0.4112 -0.6058  0.1128
 3020TIP3    H1 9024   3.418   1.066   2.902  2.0272  1.4113  2.8220
 3020TIP3    H2 9025   3.438   1.173   2.796 -0.8412 -0.9640 -0.3653
 3021TIP3   OH2 9026   5.679   5.524   0.444 -0.7223 -0.1858 -0.2130
 3021TIP3    H1 9027   5.768   5.557   0.434 -0.3255 -1.2347 -0.2410
 3021TIP3    H2 9028   5.676   5.490   0.534 -0.8294 -0.9106 -0.4852
 3022TIP3   OH2 9029   4.757   4.566   3.783  0.3433  0.0140 -0.0577
 3022TIP3    H1 9030   4.672   4.526   3.765  0.8692 -2.0667  1.6325
 3022TIP3    H2 9031   4.820   4.510   3.738  1.1202 -1.4076  2.6026
 3023TIP3   OH2 9032   7.051   5.940   4.540 -0.2807 -0.0047 -0.1113
 3023TIP3    H1 9033   7.123   5.937   4.602  1.2598 -1.1641 -1.8523
 3023TIP3    H2 9034   7.092   5.926   4.455 -2.0510  3.1508 -1.6629
 3024TIP3   OH2 9035   2.159   5.182   3.340 -0.1163 -0.4244  0.1027
 3024TIP3    H1 9036   2.138   5.242   3.268 -1.7008 -1.8636 -0.7090
 3024TIP3    H2 9037   2.150   5.095   3.301 -0.7736 -1.2410  1.9774
 3025TIP3   OH2 9038   0.966   6.730   3.644  0.0435  0.2801  0.0478
 3025TIP3    H1 9039   1.032   6.716   3.712 -0.5758  0.4709  0.6952
 3025TIP3    H2 9040   1.017   6.747   3.565  0.7725  0.1341  0.4767
 3026TIP3   OH2 9041   1.673   2.333   2.887 -0.0363 -0.1458  0.1436
 3026TIP3    H1 9042   1.684   2.348   2.793  0.0197  1.5787  0.3990
 3026TIP3    H2 9043   1.763   2.330   2.921 -0.0433 -1.1261  0.1203
 3027TIP3   OH2 9044   2.651   2.718   1.038  0.2110  0.3131  0.0195
 3027TIP3    H1 9045   2.714   2.648   1.020  0.0518 -0.6470  2.6663
 3027TIP3    H2 9046   2.587   2.711   0.967  1.3306 -0.8454 -0.9313
 3028TIP3   OH2 9047   2.524   3.996   3.264 -0.1392  0.5169  0.2128
 3028TIP3    H1 9048   2.487   4.081   3.286 -1.2649 -0.2636  1.5021
 3028TIP3    H2 9049   2.494   3.979   3.175 -2.3506  0.2539  0.9432
 3029TIP3   OH2 9050   6.631   0.442   2.732  0.2882  0.6596 -0.1522
 3029TIP3    H1 9051   6.585   0.390   2.799  1.6251  0.1481  0.4030
 3029TIP3    H2 9052   6.688   0.380   2.687  1.2585  1.4577 -0.0767
 3030TIP3   OH2 9053   3.992   3.899   0.692 -0.2042  0.1466 -0.6367
 3030TIP3    H1 9054   3.950   3.832   0.639  2.8939 -1.1328 -1.7281
 3030TIP3    H2 9055   4.069   3.855   0.729  0.7807  2.5478  0.3587
 3031TIP3   OH2 9056   6.720   4.896   1.941 -0.2814  0.5688  0.1985
 3031TIP3    H1 9057   6.678   4.828   1.888 -0.8668  1.3781 -0.3912
 3031TIP3    H2 9058   6.761   4.848   2.013  2.0988 -0.8171 -1.8848
 3032TIP3   OH2 9059   0.824   2.939   2.234  0.0335 -0.7833 -0.3030
 3032TIP3    H1 9060   0.778   2.876   2.179 -0.2162 -1.1386  0.3008
 3032TIP3    H2 9061   0.912   2.903   2.242  0.6267  0.2020 -1.9502
 3033TIP3   OH2 9062   2.122   4.544   2.667  0.1583 -0.2679 -0.7338
 3033TIP3    H1 9063   2.189   4.612   2.658  1.6127 -1.1472  2.0518
 3033TIP3    H2 9064   2.050   4.587   2.712 -0.1233  0.0792 -1.5025
 3034TIP3   OH2 9065   3.850   2.422   3.707 -0.0016 -0.0465 -0.2904
 3034TIP3    H1 9066   3.899   2.503   3.719 -1.2666  0.8321 -0.7688
 3034TIP3    H2 9067   3.802   2.410   3.789 -0.0932 -0.1042 -0.3521
 3035TIP3   OH2 9068   2.617   3.576   2.938  0.1257  0.2150 -0.1785
 3035TIP3    H1 9069   2.620   3.510   2.868 -0.4451  1.2765 -1.2528
 3035TIP3    H2 9070   2.523   3.585   2.957  0.1627  0.9770 -0.3272
 3036TIP3   OH2 9071   3.241   6.271   0.252  0.5402  0.1635  0.1131
 3036TIP3    H1 9072   3.271   6.353   0.214  1.0801 -0.0650  0.0408
 3036TIP3    H2 9073   3.157   6.293   0.293 -0.4722  0.2459 -1.8797
 3037TIP3   OH2 9074   4.106   4.241   1.045 -0.1381 -0.1326  0.1327
 3037TIP3    H1 9075   4.144   4.256   1.131 -0.5522 -0.7983  0.4414
 3037TIP3    H2 9076   4.021   4.200   1.063  0.0833 -0.9467 -0.6054
 3038TIP3   OH2 9077   0.701   3.347   2.445 -0.7123 -0.3284  0.2071
 3038TIP3    H1 9078   0.733   3.437   2.453  0.3598 -0.6758 -0.0987
 3038TIP3    H2 9079   0.699   3.315   2.536  2.2421 -1.1106  0.0677
 3039TIP3   OH2 9080   0.728   4.853   1.348 -0.3575 -0.0414 -0.8571
 3039TIP3    H1 9081   0.695   4.763   1.352  0.5991 -0.3951 -0.5229
 3039TIP3    H2 9082   0.817   4.844   1.314  0.0332  0.7030 -0.0748
 3040TIP3   OH2 9083   6.247   1.460   0.838  0.0778 -0.0278 -0.4484
 3040TIP3    H1 9084   6.326   1.505   0.868  0.1935  0.3747 -1.3452
 3040TIP3    H2 9085   6.178   1.492   0.897  0.1689  1.3149 -1.0502
 3041TIP3   OH2 9086   0.720   0.709   1.094 -0.2784 -0.2636  0.3875
 3041TIP3    H1 9087   0.689   0.619   1.099  1.5922 -0.8740  2.5955
 3041TIP3    H2 9088   0.800   0.704   1.042 -0.2963  0.1815  0.3108
 3042TIP3   OH2 9089   6.729   6.554   0.156  0.2472  0.0322 -0.2116
 3042TIP3    H1 9090   6.801   6.492   0.150 -0.9323 -1.8512  2.8905
 3042TIP3    H2 9091   6.652   6.505   0.126  0.0804  2.1009 -3.8018
 3043TIP3   OH2 9092   1.645   5.318   2.056 -0.0011  0.6867 -0.2134
 3043TIP3    H1 9093   1.683   5.266   2.127  1.8710 -0.0329 -1.6355
 3043TIP3    H2 9094   1.693   5.290   1.978 -1.0671  2.3789 -1.5530
 3044TIP3   OH2 9095   7.037   4.970   5.510  0.7015 -0.3597 -0.6941
 3044TIP3    H1 9096   6.994   5.026   5.445  1.3318  1.1843  0.1528
 3044TIP3    H2 9097   7.131   4.983   5.495  0.9847 -3.4765 -2.3505
 3045TIP3   OH2 9098   2.109   0.328   4.175 -0.0745 -0.2129  0.2594
 3045TIP3    H1 9099   2.021   0.313   4.141  0.6521 -2.8724 -0.6162
 3045TIP3    H2 9100   2.155   0.373   4.104 -0.3760  0.0908  0.2544
 3046TIP3   OH2 9101   0.076   5.211   2.050 -0.7680  0.4438 -0.4899
 3046TIP3    H1 9102   0.088   5.297   2.011  1.4140  0.1337 -0.6275
 3046TIP3    H2 9103   0.161   5.190   2.088 -1.5629 -1.2002  0.4756
 3047TIP3   OH2 9104   0.383   3.853   5.340 -0.5197 -0.4449  0.2156
 3047TIP3    H1 9105   0.444   3.905   5.288  0.6421 -0.6556  1.3128
 3047TIP3    H2 9106   0.326   3.811   5.275  0.1397  0.1849 -0.8091
 3048TIP3   OH2 9107   4.790   1.475   5.855 -0.4209  0.3332  0.2693
 3048TIP3    H1 9108   4.767   1.566   5.878  0.9499  0.8126 -0.1862
 3048TIP3    H2 9109   4.708   1.437   5.823 -0.7912  1.7356 -0.5319
 3049TIP3   OH2 9110   6.410   3.028   2.590 -0.0002 -0.0174  0.1992
 3049TIP3    H1 9111   6.340   3.017   2.655 -1.4064  1.4483 -1.0085
 3049TIP3    H2 9112   6.398   2.955   2.530 -0.4000  0.1378  0.0876
 3050TIP3   OH2 9113   1.703   4.132   1.204 -0.1078 -0.1496 -0.0433
 3050TIP3    H1 9114   1.682   4.219   1.170 -0.7479  0.0355  0.7802
 3050TIP3    H2 9115   1.766   4.148   1.275 -0.1951 -0.3604  0.0836
 3051TIP3   OH2 9116   5.435   5.538   2.977  0.7550 -0.1567 -0.2720
 3051TIP3    H1 9117   5.412   5.631   2.976  1.0103 -0.0862 -1.4288
 3051TIP3    H2 9118   5.358   5.494   2.943  1.1651 -0.2133 -1.1610
 3052TIP3   OH2 9119   6.599   0.042   0.601 -0.0942  0.0060  0.1729
 3052TIP3    H1 9120   6.538   0.081   0.539  1.4566 -0.8167 -2.0231
 3052TIP3    H2 9121   6.553   0.042   0.685 -1.8542  2.2583 -0.6975
 3053TIP3   OH2 9122   0.216   0.182   1.349 -0.0710  0.3679 -0.3452
 3053TIP3    H1 9123   0.124   0.176   1.323 -0.1845 -0.0316  0.1419
 3053TIP3    H2 9124   0.263   0.137   1.279 -0.1891  1.0860 -0.8955
 3054TIP3   OH2 9125   5.192   0.447   5.371 -0.0976 -0.2257 -0.2154
 3054TIP3    H1 9126   5.221   0.394   5.446 -0.9370  1.3122  1.2584
 3054TIP3    H2 9127   5.153   0.384   5.311 -0.9441 -1.3209  1.4185
 3055TIP3   OH2 9128   0.879   0.232   0.530  0.3939  0.3599 -0.4175
 3055TIP3    H1 9129   0.889   0.321   0.496 -2.8958  0.5546 -1.2099
 3055TIP3    H2 9130   0.923   0.177   0.465 -2.6315  1.0290 -3.2693
 3056TIP3   OH2 9131   3.613   5.621   1.202  0.4446  0.6358 -0.1666
 3056TIP3    H1 9132   3.640   5.656   1.117  0.7166  0.2108 -0.2617
 3056TIP3    H2 9133   3.694   5.621   1.254  0.7350 -0.9108 -0.5409
 3057TIP3   OH2 9134   4.468   4.750   5.656  0.2401  0.3419  0.1448
 3057TIP3    H1 9135   4.428   4.681   5.604  0.0337  1.9998 -2.0195
 3057TIP3    H2 9136   4.425   4.745   5.742 -0.4676 -1.5279 -0.2878
 3058TIP3   OH2 9137   1.733   1.155   5.831  0.5839 -0.0512  0.2528
 3058TIP3    H1 9138   1.708   1.214   5.902 -1.7477  1.0663 -1.3480
 3058TIP3    H2 9139   1.825   1.136   5.847  0.9508  2.5520  1.9069
 3059TIP3   OH2 9140   7.055   1.713   5.148  0.1194  0.1631 -0.0547
 3059TIP3    H1 9141   6.990   1.761   5.199 -0.2036  0.2148 -0.5056
 3059TIP3    H2 9142   7.130   1.772   5.142  0.6827 -0.3375  1.4471
 3060TIP3   OH2 9143   1.179   0.309   3.987 -0.0173 -0.7276  0.0003
 3060TIP3    H1 9144   1.215   0.348   4.066  0.3639 -0.7083 -0.1810
 3060TIP3    H2 9145   1.173   0.216   4.008  0.7932 -0.8338 -0.2089
 3061TIP3   OH2 9146   3.301   4.411   3.421  0.1100 -0.0708  0.0959
 3061TIP3    H1 9147   3.335   4.328   3.454  1.1108 -0.2725 -1.3550
 3061TIP3    H2 9148   3.239   4.440   3.489  0.2055 -1.6702  0.9198
 3062TIP3   OH2 9149   4.191   3.804   1.540 -0.4065 -0.1742  0.4147
 3062TIP3    H1 9150   4.279   3.816   1.576  0.2543  0.3552 -1.2748
 3062TIP3    H2 9151   4.200   3.731   1.479 -0.8005  0.7079 -0.7414
 3063TIP3   OH2 9152   2.420   5.432   3.999 -0.4637  0.3835  0.3830
 3063TIP3    H1 9153   2.451   5.510   3.953 -0.3537  1.2370  1.8590
 3063TIP3    H2 9154   2.348   5.464   4.054 -0.5638 -0.6073  0.8480
 3064TIP3   OH2 9155   5.930   5.490   1.682  0.3119  0.0650 -0.2988
 3064TIP3    H1 9156   5.945   5.583   1.662 -0.3804  0.2461 -0.0033
 3064TIP3    H2 9157   5.974   5.443   1.611 -1.0387  0.6675 -1.5979
 3065TIP3   OH2 9158   3.505   4.145   3.049  0.2731 -0.8672 -1.3038
 3065TIP3    H1 9159   3.527   4.230   3.010 -2.9150  0.5179 -0.3995
 3065TIP3    H2 9160   3.543   4.148   3.137 -0.6265  0.0742 -0.9273
 3066TIP3   OH2 9161   3.826   4.091   5.507  0.5435 -0.0615  0.4777
 3066TIP3    H1 9162   3.820   4.172   5.557 -0.2073  1.2597 -1.6320
 3066TIP3    H2 9163   3.886   4.111   5.435 -3.2867  0.3762 -2.9361
 3067TIP3   OH2 9164   0.580   4.704   5.390  0.6216  0.4347 -0.4491
 3067TIP3    H1 9165   0.486   4.704   5.373  0.1065 -0.8264  1.8972
 3067TIP3    H2 9166   0.620   4.686   5.305 -1.1824  1.6734 -1.6227
 3068TIP3   OH2 9167   3.568   3.377   1.885 -0.3772  0.3769  0.1137
 3068TIP3    H1 9168   3.637   3.312   1.896  1.0646  1.7605 -0.2853
 3068TIP3    H2 9169   3.493   3.342   1.933  0.6424 -1.1178  0.6782
 3069TIP3   OH2 9170   4.165   5.626   2.262 -0.2398 -0.3989 -0.4455
 3069TIP3    H1 9171   4.248   5.618   2.215  0.4948 -0.9116  0.8892
 3069TIP3    H2 9172   4.170   5.561   2.332 -1.5060 -0.0041  0.0533
 3070TIP3   OH2 9173   6.828   4.942   4.116 -0.1281 -0.4204 -0.8103
 3070TIP3    H1 9174   6.790   5.029   4.120  0.5436 -0.1562  0.2267
 3070TIP3    H2 9175   6.788   4.895   4.189  1.4909 -0.1257  0.3223
 3071TIP3   OH2 9176   3.884   6.199   1.164  0.1515  0.3409  0.4302
 3071TIP3    H1 9177   3.853   6.206   1.255  0.2639 -0.2548  0.5175
 3071TIP3    H2 9178   3.887   6.105   1.147  0.3514  0.4458 -0.1173
 3072TIP3   OH2 9179   2.525   5.280   1.722  0.2626 -0.2795  0.3477
 3072TIP3    H1 9180   2.512   5.358   1.668 -1.3006 -2.1907 -2.3158
 3072TIP3    H2 9181   2.455   5.285   1.788 -1.8062 -0.7919 -1.6694
 3073TIP3   OH2 9182   4.483   4.810   2.803  0.1166  1.1319  0.1963
 3073TIP3    H1 9183   4.516   4.723   2.781 -2.7527 -0.3108  1.0712
 3073TIP3    H2 9184   4.560   4.857   2.837  1.7320 -1.0519 -0.2328
 3074TIP3   OH2 9185   0.306   3.791   2.613  0.3002 -0.7056 -0.2118
 3074TIP3    H1 9186   0.306   3.704   2.573  0.5556 -1.5376  1.4840
 3074TIP3    H2 9187   0.216   3.806   2.639  0.0374  0.0473 -1.4815
 3075TIP3   OH2 9188   5.480   1.051   3.602 -0.8469 -0.2927  0.4709
 3075TIP3    H1 9189   5.518   1.083   3.684  0.3820  0.5312 -0.3888
 3075TIP3    H2 9190   5.428   0.975   3.628 -0.8886  0.2496  2.0772
 3076TIP3   OH2 9191   2.316   3.732   1.690 -0.0099 -0.4561 -0.4420
 3076TIP3    H1 9192   2.256   3.732   1.616 -3.3611 -1.0649  2.0238
 3076TIP3    H2 9193   2.284   3.662   1.747  2.1103  0.2546  1.8056
 3077TIP3   OH2 9194   6.674   2.531   5.144  0.3191 -0.7040  0.1462
 3077TIP3    H1 9195   6.753   2.572   5.110 -1.5469  2.0987 -1.1296
 3077TIP3    H2 9196   6.667   2.563   5.234 -1.5612  2.8211 -1.0802
 3078TIP3   OH2 9197   3.835   6.751   1.178  0.2666  0.1294  0.5476
 3078TIP3    H1 9198   3.793   6.737   1.094 -0.2121  1.2521  0.5780
 3078TIP3    H2 9199   3.779   6.707   1.242  0.3545 -0.2857  0.3360
 3079TIP3   OH2 9200   1.907   1.090   0.168 -0.5771  0.4467  0.2691
 3079TIP3    H1 9201   1.970   1.149   0.128 -0.7579 -0.2383 -1.0594
 3079TIP3    H2 9202   1.916   1.008   0.119 -1.9984  0.1134  0.5246
 3080TIP3   OH2 9203   4.419   5.398   3.166  0.1914  0.1780  0.1032
 3080TIP3    H1 9204   4.429   5.434   3.254  1.8509 -1.9281  0.8580
 3080TIP3    H2 9205   4.329   5.369   3.161  0.0841  0.3317  1.0976
 3081TIP3   OH2 9206   0.807   5.947   2.458 -0.2487 -0.0250  0.3388
 3081TIP3    H1 9207   0.716   5.919   2.461 -0.4549  0.6861  1.9753
 3081TIP3    H2 9208   0.820   5.996   2.539  1.6080 -0.1565  0.1826
 3082TIP3   OH2 9209   5.904   2.487   5.395 -0.1445  0.0668 -0.5228
 3082TIP3    H1 9210   5.982   2.432   5.391  0.1496  0.1490  2.2180
 3082TIP3    H2 9211   5.848   2.455   5.324  0.8953 -2.3936 -0.3118
 3083TIP3   OH2 9212   4.557   6.525   1.484  0.7067 -0.2352  0.2299
 3083TIP3    H1 9213   4.622   6.476   1.434 -0.6861  0.0364 -1.9936
 3083TIP3    H2 9214   4.485   6.464   1.498  0.3283  0.2260  0.3394
 3084TIP3   OH2 9215   7.147   3.953   2.871 -0.0959  0.0177  0.3340
 3084TIP3    H1 9216   7.110   3.899   2.941  2.3238 -0.3483  1.4215
 3084TIP3    H2 9217   7.200   4.018   2.916  1.6550 -0.3087 -1.1477
 3085TIP3   OH2 9218   1.693   4.065   4.033  0.1490  0.1597  0.5183
 3085TIP3    H1 9219   1.776   4.042   4.075  0.0483  0.1437  0.7079
 3085TIP3    H2 9220   1.630   4.069   4.105 -0.3570 -1.3589  0.1887
 3086TIP3   OH2 9221   6.109   1.810   2.186  0.4109  0.5744  0.0337
 3086TIP3    H1 9222   6.163   1.767   2.252 -1.2773  1.2843  2.0176
 3086TIP3    H2 9223   6.087   1.741   2.124  1.5257 -0.2836  0.5646
 3087TIP3   OH2 9224   7.071   1.373   0.665 -0.0081 -0.0401  0.2004
 3087TIP3    H1 9225   7.032   1.299   0.712 -0.8050  0.1136 -0.2029
 3087TIP3    H2 9226   7.035   1.367   0.577 -0.0320  0.7874  0.1443
 3088TIP3   OH2 9227   3.557   3.107   4.335  0.2431  0.4751  0.0970
 3088TIP3    H1 9228   3.581   3.186   4.287  2.6495 -0.3369 -0.1750
 3088TIP3    H2 9229   3.559   3.133   4.427  0.2737  0.9134 -0.0281
 3089TIP3   OH2 9230   0.699   4.433   0.138 -0.1063 -0.7013 -0.5751
 3089TIP3    H1 9231   0.609   4.463   0.144 -0.2959 -1.2778 -0.5382
 3089TIP3    H2 9232   0.745   4.482   0.206 -0.2121  0.2151 -1.1434
 3090TIP3   OH2 9233   3.614   6.294   4.820  0.0601 -0.2144  0.1680
 3090TIP3    H1 9234   3.533   6.340   4.798 -0.7602 -0.9068  1.5798
 3090TIP3    H2 9235   3.585   6.209   4.852  1.4327 -0.9290 -0.4118
 3091TIP3   OH2 9236   0.401   3.031   5.559  0.7547  0.3461  0.0388
 3091TIP3    H1 9237   0.437   3.054   5.473  1.1691 -1.8790 -0.4224
 3091TIP3    H2 9238   0.363   2.944   5.547 -0.5256  0.6183  1.7570
 3092TIP3   OH2 9239   6.065   5.661   5.726 -0.1113 -0.5643  0.1063
 3092TIP3    H1 9240   6.012   5.668   5.647 -0.6643 -0.4438  0.4900
 3092TIP3    H2 9241   6.057   5.569   5.753 -1.4504 -0.1847  1.0794
 3093TIP3   OH2 9242   3.786   6.059   0.241  0.2138  0.4392 -0.2921
 3093TIP3    H1 9243   3.728   6.103   0.302 -0.4232  0.4843 -0.9184
 3093TIP3    H2 9244   3.869   6.106   0.247  0.3752  0.0291  1.0188
 3094TIP3   OH2 9245   6.135   1.938   5.041 -0.2084  0.2772 -0.2637
 3094TIP3    H1 9246   6.230   1.942   5.025 -0.4428  0.7566 -1.6608
 3094TIP3    H2 9247   6.122   1.993   5.119  1.0255 -2.3788  1.9697
 3095TIP3   OH2 9248   6.223   0.915   5.167  0.8742  0.4020  0.0837
 3095TIP3    H1 9249   6.279   0.895   5.091  1.3449 -0.0616  0.5481
 3095TIP3    H2 9250   6.238   0.843   5.228  2.2991  1.9027  1.6258
 3096TIP3   OH2 9251   5.712   3.305   1.914 -0.3557  0.4786  0.3181
 3096TIP3    H1 9252   5.734   3.377   1.855  1.3085 -0.7434 -0.6379
 3096TIP3    H2 9253   5.714   3.344   2.001  2.7744  1.1903  0.0396
 3097TIP3   OH2 9254   0.068   1.932   2.735 -0.0418 -0.0065 -0.0990
 3097TIP3    H1 9255  -0.010   1.968   2.777 -0.0138  2.0099 -1.6387
 3097TIP3    H2 9256   0.126   2.007   2.723  1.3961 -1.1458 -0.6021
 3098TIP3   OH2 9257   3.290   2.850   0.230 -0.3034 -0.3120  0.1864
 3098TIP3    H1 9258   3.378   2.816   0.243 -0.5689 -0.8848  0.4930
 3098TIP3    H2 9259   3.300   2.915   0.160  0.5001  0.2139  0.7734
 3099TIP3   OH2 9260   1.706   5.708   5.618  0.4226  0.3084 -0.3025
 3099TIP3    H1 9261   1.801   5.696   5.607  0.2419 -0.4627 -1.0945
 3099TIP3    H2 9262   1.671   5.620   5.629 -0.4568  0.3689 -2.2355
 3100TIP3   OH2 9263   5.783   4.460   4.663  0.6633 -0.0763 -0.3129
 3100TIP3    H1 9264   5.833   4.412   4.728  0.3644  0.4211  0.3024
 3100TIP3    H2 9265   5.848   4.511   4.614  0.9122 -0.6235 -0.5576
 3101TIP3   OH2 9266   1.646   1.644   2.072  0.6275 -0.3905  0.2389
 3101TIP3    H1 9267   1.592   1.685   2.005 -0.4453 -2.2803 -0.1346
 3101TIP3    H2 9268   1.595   1.569   2.102  1.7095 -0.4378  2.1520
 3102TIP3   OH2 9269   3.528   5.957   3.896 -0.4237 -0.1135  0.0403
 3102TIP3    H1 9270   3.438   5.927   3.907 -0.5069  0.7815  2.2344
 3102TIP3    H2 9271   3.523   6.052   3.906  0.6641  0.0558 -0.7685
 3103TIP3   OH2 9272   1.340   1.952   1.490 -0.2484 -0.7702 -0.2131
 3103TIP3    H1 9273   1.317   1.974   1.580 -0.2182  0.4102 -0.4728
 3103TIP3    H2 9274   1.409   1.886   1.498 -0.1823 -0.6032  0.6262
 3104TIP3   OH2 9275   3.970   6.238   4.759 -0.5263  0.0725  0.5267
 3104TIP3    H1 9276   3.916   6.306   4.799 -1.2088  0.4474 -0.9507
 3104TIP3    H2 9277   3.933   6.156   4.790 -0.7849  0.3524  0.9653
 3105TIP3   OH2 9278   4.781   1.148   4.198 -0.0153 -0.0013  0.0838
 3105TIP3    H1 9279   4.861   1.194   4.175  0.4436 -1.5060 -1.5757
 3105TIP3    H2 9280   4.713   1.189   4.143  0.3334 -1.0232 -1.1598
 3106TIP3   OH2 9281   3.245   4.319   2.830  0.1354 -0.0134 -0.5951
 3106TIP3    H1 9282   3.271   4.272   2.750  0.9010  0.6111 -0.7171
 3106TIP3    H2 9283   3.214   4.250   2.889  0.0929 -0.5414 -1.2216
 3107TIP3   OH2 9284   2.771   1.025   2.018  0.1454 -0.2070 -0.3677
 3107TIP3    H1 9285   2.731   1.078   2.088  0.5553  0.0821 -0.3472
 3107TIP3    H2 9286   2.696   0.988   1.970 -0.1906  1.2250 -1.0156
 3108TIP3   OH2 9287   1.080   2.153   2.119 -0.3088 -0.6086 -0.2333
 3108TIP3    H1 9288   1.138   2.097   2.067  1.7436  1.0475  0.0803
 3108TIP3    H2 9289   1.053   2.222   2.058  0.9544  0.5503  0.4439
 3109TIP3   OH2 9290   1.034   1.058   0.944 -0.2681  0.1691  0.4195
 3109TIP3    H1 9291   0.948   1.095   0.965 -0.1967 -0.1629  1.3806
 3109TIP3    H2 9292   1.078   1.051   1.029  1.3227  1.7965 -0.2242
 3110TIP3   OH2 9293   4.380   3.620   3.391  0.3767  0.4581  0.1807
 3110TIP3    H1 9294   4.357   3.580   3.475  1.3307 -0.8134 -0.1416
 3110TIP3    H2 9295   4.344   3.561   3.325  1.9973 -0.0319 -0.3045
 3111TIP3   OH2 9296   4.018   2.363   0.963 -0.6270  0.4192 -0.3645
 3111TIP3    H1 9297   4.065   2.417   1.026  0.6463  0.0371 -0.9374
 3111TIP3    H2 9298   3.952   2.317   1.014  0.4605  0.0099  0.7280
 3112TIP3   OH2 9299   1.822   0.497   2.410 -0.3384 -0.4126  0.0181
 3112TIP3    H1 9300   1.885   0.424   2.414  3.1324  2.3681  0.9519
 3112TIP3    H2 9301   1.807   0.520   2.502  0.2858  1.2445 -0.2535
 3113TIP3   OH2 9302   3.165   3.931   5.383  1.0223  1.0212  0.5773
 3113TIP3    H1 9303   3.102   3.965   5.320  1.5379  1.2791  0.1948
 3113TIP3    H2 9304   3.142   3.839   5.392  2.2108  0.4343 -1.5915
 3114TIP3   OH2 9305   5.642   1.338   1.528  0.9979  0.0935 -0.2236
 3114TIP3    H1 9306   5.661   1.416   1.580  0.7676  0.5415 -0.7945
 3114TIP3    H2 9307   5.650   1.265   1.590  0.8466  0.5990  0.4052
 3115TIP3   OH2 9308   6.308   3.878   4.436  0.5964  0.1628  0.2366
 3115TIP3    H1 9309   6.355   3.905   4.357  1.3009 -1.3598  0.1080
 3115TIP3    H2 9310   6.271   3.792   4.415 -1.0505  0.6788  0.8391
 3116TIP3   OH2 9311   0.331   4.921   4.404  0.3835 -0.3398 -0.0254
 3116TIP3    H1 9312   0.236   4.915   4.393  0.1809  0.6660  0.9363
 3116TIP3    H2 9313   0.354   4.843   4.455 -0.0551 -0.1923  0.4084
 3117TIP3   OH2 9314   0.949   2.643   2.787 -0.4296 -0.1008  0.1420
 3117TIP3    H1 9315   0.863   2.601   2.798  0.0184 -1.4076 -1.0035
 3117TIP3    H2 9316   1.010   2.582   2.829 -0.0146  0.7320  0.7817
 3118TIP3   OH2 9317   1.001   5.368   3.049  0.4507 -0.1598  0.0056
 3118TIP3    H1 9318   0.933   5.430   3.024  1.2294 -0.8488 -4.7277
 3118TIP3    H2 9319   0.952   5.292   3.081 -0.9689  0.0776 -1.4592
 3119TIP3   OH2 9320   4.291   5.081   3.122  0.1513 -0.4266 -0.0727
 3119TIP3    H1 9321   4.346   5.013   3.161  0.9167 -0.2592 -0.8285
 3119TIP3    H2 9322   4.226   5.032   3.072 -1.1631 -0.6583  1.7779
 3120TIP3   OH2 9323   7.174   0.741   0.150 -0.4567  0.1298 -0.2055
 3120TIP3    H1 9324   7.086   0.721   0.183 -0.4155 -0.1428 -0.2570
 3120TIP3    H2 9325   7.175   0.708   0.060 -0.3832  0.3581 -0.2893
 3121TIP3   OH2 9326   7.067   6.100   5.912  0.1533 -0.2463 -0.1694
 3121TIP3    H1 9327   7.029   6.072   5.829  2.8835  2.5903 -2.6666
 3121TIP3    H2 9328   7.162   6.095   5.898  0.7263  1.0614  2.4896
 3122TIP3   OH2 9329   3.266   0.211   5.046  0.5113 -0.6803  0.0358
 3122TIP3    H1 9330   3.257   0.303   5.072 -1.5008 -0.5414 -0.9477
 3122TIP3    H2 9331   3.349   0.207   5.000  1.2347  0.3623  1.1957
 3123TIP3   OH2 9332   6.363   3.500   0.836 -0.3314 -0.4166 -0.2076
 3123TIP3    H1 9333   6.274   3.490   0.869 -1.0857 -1.6108 -2.3891
 3123TIP3    H2 9334   6.364   3.585   0.791 -0.6658 -0.7716 -0.9114
 3124TIP3   OH2 9335   1.534   2.120   3.825 -0.4475 -0.6077 -0.0961
 3124TIP3    H1 9336   1.439   2.114   3.819 -0.4470 -1.6649  0.6114
 3124TIP3    H2 9337   1.565   2.032   3.803  0.4573  0.0752 -1.6764
 3125TIP3   OH2 9338   6.972   6.710   2.164 -0.2661 -0.9318 -0.2281
 3125TIP3    H1 9339   7.040   6.761   2.120 -1.1445 -0.3592 -0.9409
 3125TIP3    H2 9340   6.904   6.697   2.098 -1.5754 -0.1363  0.9084
 3126TIP3   OH2 9341   4.728   2.254   5.809 -0.1414  0.1013  0.5189
 3126TIP3    H1 9342   4.700   2.277   5.721 -1.3723  0.2265  0.9174
 3126TIP3    H2 9343   4.753   2.338   5.849 -1.5683  0.3589  0.9360
 3127TIP3   OH2 9344   2.535   6.121   0.058 -0.0749  0.5552  0.3684
 3127TIP3    H1 9345   2.466   6.187   0.054  0.9217  1.5926 -0.9971
 3127TIP3    H2 9346   2.616   6.171   0.049  0.6792 -0.8954 -1.9806
 3128TIP3   OH2 9347   4.658   0.053   4.050  0.1928  0.1123 -0.0163
 3128TIP3    H1 9348   4.611   0.016   3.975  0.3754  1.3473 -0.7714
 3128TIP3    H2 9349   4.747   0.065   4.019  0.3186  0.4396  0.4631
 3129TIP3   OH2 9350   2.793   0.854   5.244 -0.1699  0.2732 -0.3934
 3129TIP3    H1 9351   2.754   0.815   5.166 -2.0401  1.6359 -0.2004
 3129TIP3    H2 9352   2.782   0.948   5.232 -0.1718  0.5275  1.3432
 3130TIP3   OH2 9353   2.354   6.795   4.304 -0.0258  0.6539 -0.3472
 3130TIP3    H1 9354   2.372   6.704   4.280 -0.1531 -0.1046  2.1984
 3130TIP3    H2 9355   2.329   6.837   4.221 -0.0383 -1.6257 -1.5709
 3131TIP3   OH2 9356   3.820   0.352   1.505 -0.0199  0.2478 -0.7118
 3131TIP3    H1 9357   3.823   0.386   1.595 -1.0174 -0.3504 -0.4453
 3131TIP3    H2 9358   3.727   0.340   1.486  0.1609  0.6118 -1.9292
 3132TIP3   OH2 9359   0.146   4.664   4.126 -0.5910 -0.1674  0.3542
 3132TIP3    H1 9360   0.177   4.725   4.059 -1.2539  0.1251  0.2984
 3132TIP3    H2 9361   0.116   4.720   4.198 -0.6413 -0.4484  0.5564
 3133TIP3   OH2 9362   0.327   0.687   1.036  0.0363 -0.0458 -0.6435
 3133TIP3    H1 9363   0.351   0.594   1.039 -1.4868 -0.5061 -1.6105
 3133TIP3    H2 9364   0.266   0.693   0.963  1.0002  1.9567 -1.3335
 3134TIP3   OH2 9365   1.910   2.657   5.532  0.4906  0.0221  0.5301
 3134TIP3    H1 9366   1.966   2.584   5.505  0.9629  0.4184  0.4234
 3134TIP3    H2 9367   1.944   2.684   5.617  0.3759  0.1811  0.5264
 3135TIP3   OH2 9368   4.053   6.672   0.253 -0.7374 -0.0512  0.3181
 3135TIP3    H1 9369   4.107   6.750   0.267  0.4607 -0.5880 -1.0022
 3135TIP3    H2 9370   4.094   6.605   0.307 -0.3226 -0.3546 -0.3654
 3136TIP3   OH2 9371   2.156   6.185   1.820 -0.3627 -0.2342  0.2819
 3136TIP3    H1 9372   2.203   6.181   1.903  0.3915 -0.9446 -0.1618
 3136TIP3    H2 9373   2.215   6.143   1.757 -1.6911 -1.4153 -0.2414
 3137TIP3   OH2 9374   3.706   4.189   3.255  0.4186 -0.4895 -0.1704
 3137TIP3    H1 9375   3.701   4.276   3.294  0.0848  1.0399 -3.3488
 3137TIP3    H2 9376   3.633   4.141   3.293 -0.9252  1.4549 -0.1488
 3138TIP3   OH2 9377   6.556   2.243   0.103  0.4137  0.0604  0.1507
 3138TIP3    H1 9378   6.520   2.239   0.191  1.7756  0.4169  0.7535
 3138TIP3    H2 9379   6.488   2.207   0.047 -0.6445  0.2277  1.2961
 3139TIP3   OH2 9380   1.606   1.302   4.754 -0.1921  0.2780  0.0258
 3139TIP3    H1 9381   1.541   1.327   4.689  1.7833  2.2040 -1.3693
 3139TIP3    H2 9382   1.688   1.294   4.704  1.1576  0.5418  2.0583
 3140TIP3   OH2 9383   6.059   5.070   3.269 -0.7271 -0.3108  0.9344
 3140TIP3    H1 9384   6.102   4.985   3.275 -0.4096 -0.1868  0.4729
 3140TIP3    H2 9385   5.984   5.064   3.328  0.1463 -0.4001  2.0624
 3141TIP3   OH2 9386   1.193   2.702   1.242  0.8140  0.1126 -0.2772
 3141TIP3    H1 9387   1.230   2.723   1.157  1.3623 -0.6163 -0.2266
 3141TIP3    H2 9388   1.242   2.625   1.272  0.5110  0.2519  0.6149
 3142TIP3   OH2 9389   0.171   2.460   3.481  0.5808 -0.1279 -0.3623
 3142TIP3    H1 9390   0.154   2.506   3.399 -0.1958  2.4758  1.1148
 3142TIP3    H2 9391   0.253   2.498   3.513  1.0861 -1.4040 -0.1197
 3143TIP3   OH2 9392   0.218   3.295   2.549  0.1116  0.7390  0.0380
 3143TIP3    H1 9393   0.129   3.303   2.583  0.1122  0.7475  0.0374
 3143TIP3    H2 9394   0.228   3.202   2.528 -0.5338  1.0234 -1.7029
 3144TIP3   OH2 9395   2.969   3.348   5.187  0.0630  0.2849 -0.0383
 3144TIP3    H1 9396   3.019   3.268   5.200 -0.1775 -0.0036 -0.8591
 3144TIP3    H2 9397   2.942   3.374   5.275  0.1756 -0.5124  0.2391
 3145TIP3   OH2 9398   1.577   4.223   2.166  0.2050 -0.6099  0.2984
 3145TIP3    H1 9399   1.642   4.287   2.140 -0.2063 -0.0717  0.5779
 3145TIP3    H2 9400   1.498   4.248   2.119 -0.4418  0.1535  1.7282
 3146TIP3   OH2 9401   6.565   2.229   1.178  0.3322  0.2189  0.2565
 3146TIP3    H1 9402   6.580   2.204   1.087 -0.2766  0.6790  0.0252
 3146TIP3    H2 9403   6.590   2.152   1.229  0.0119 -0.2825 -0.3373
 3147TIP3   OH2 9404   6.718   2.277   3.023 -0.3243  0.6666 -0.1949
 3147TIP3    H1 9405   6.640   2.278   3.078 -0.3150 -0.8347 -0.1231
 3147TIP3    H2 9406   6.705   2.350   2.962 -2.2325 -0.1093 -0.7850
 3148TIP3   OH2 9407   7.164   0.530   2.592 -0.0703 -0.0867 -0.3334
 3148TIP3    H1 9408   7.201   0.551   2.506  1.7464 -0.9415  0.2068
 3148TIP3    H2 9409   7.181   0.437   2.604 -0.7735 -0.0946  0.7604
 3149TIP3   OH2 9410   0.274   2.465   1.221  0.3808 -0.2028 -0.7962
 3149TIP3    H1 9411   0.339   2.414   1.268  0.1875  0.4280  0.1968
 3149TIP3    H2 9412   0.324   2.520   1.162  0.7772  0.3259  0.0077
 3150TIP3   OH2 9413   2.773   5.747   1.768  0.3431  0.6095  0.4283
 3150TIP3    H1 9414   2.696   5.699   1.799  0.2557 -0.4398 -1.3082
 3150TIP3    H2 9415   2.845   5.683   1.772  0.7091  0.9981  0.2144
 3151TIP3   OH2 9416   0.391   0.503   2.130  0.1044 -0.0662  0.3255
 3151TIP3    H1 9417   0.368   0.592   2.156  1.0406  0.4079 -0.3980
 3151TIP3    H2 9418   0.484   0.508   2.108  0.0932 -1.1494 -0.0267
 3152TIP3   OH2 9419   3.315   6.738   3.830  0.3411  0.0263  0.2694
 3152TIP3    H1 9420   3.328   6.781   3.745  1.0540  1.0866  0.9026
 3152TIP3    H2 9421   3.231   6.693   3.821 -0.1263  1.0399 -0.6235
 3153TIP3   OH2 9422   6.443   4.243   1.730  0.0610 -0.1688  0.0569
 3153TIP3    H1 9423   6.454   4.204   1.817 -2.3932 -0.2444  0.3915
 3153TIP3    H2 9424   6.432   4.337   1.747  1.0389  0.0218 -0.3195
 3154TIP3   OH2 9425   6.064   6.389   4.371  0.8124 -0.7439 -0.1985
 3154TIP3    H1 9426   6.160   6.387   4.374  0.8558  0.9250  0.7621
 3154TIP3    H2 9427   6.040   6.461   4.429 -1.0178 -0.8536 -0.7657
 3155TIP3   OH2 9428   4.438   1.006   2.144 -0.8697 -0.3411  0.0638
 3155TIP3    H1 9429   4.502   0.942   2.174  0.3030  0.3667 -0.8466
 3155TIP3    H2 9430   4.358   0.955   2.130 -0.0892 -1.5246 -0.2210
 3156TIP3   OH2 9431   2.596   5.310   5.682 -0.2417 -0.1686 -0.1558
 3156TIP3    H1 9432   2.671   5.297   5.740  0.3907  2.4709 -0.2188
 3156TIP3    H2 9433   2.519   5.298   5.738  0.3312  0.6632  0.8362
 3157TIP3   OH2 9434   3.741   5.090   4.584 -0.0347 -0.5603 -0.2584
 3157TIP3    H1 9435   3.659   5.071   4.538 -0.0867 -1.1516  0.0621
 3157TIP3    H2 9436   3.804   5.105   4.514  0.1311 -2.5030 -0.5788
 3158TIP3   OH2 9437   2.597   5.197   0.654  0.3211 -0.7039 -0.1385
 3158TIP3    H1 9438   2.688   5.200   0.685  0.4927 -0.2151 -0.6663
 3158TIP3    H2 9439   2.555   5.132   0.710  0.6020  0.1814  1.1450
 3159TIP3   OH2 9440   4.614   4.274   2.240  0.3295 -0.1271 -0.1539
 3159TIP3    H1 9441   4.574   4.243   2.322  0.5058 -2.6643 -0.9283
 3159TIP3    H2 9442   4.685   4.332   2.268 -0.6233  0.3501  1.4090
 3160TIP3   OH2 9443   4.772   2.308   3.767 -0.1007 -0.2311 -0.3059
 3160TIP3    H1 9444   4.844   2.326   3.706  1.0231  2.1146  1.5415
 3160TIP3    H2 9445   4.809   2.325   3.853 -3.1307  2.5332  0.6872
 3161TIP3   OH2 9446   5.841   0.889   4.883  0.2147 -0.2379  0.5302
 3161TIP3    H1 9447   5.901   0.920   4.951 -0.4308 -0.6612  1.3137
 3161TIP3    H2 9448   5.783   0.829   4.929 -1.4105  0.8756  0.0031
 3162TIP3   OH2 9449   2.353   3.309   2.099 -0.0946 -0.1842  0.4254
 3162TIP3    H1 9450   2.388   3.249   2.166  1.2874  0.5605  0.4090
 3162TIP3    H2 9451   2.418   3.307   2.029  0.1102  1.4855  0.5254
 3163TIP3   OH2 9452   1.520   0.723   0.411 -0.5028  0.0145  0.2197
 3163TIP3    H1 9453   1.436   0.768   0.416 -0.4344  0.1030  0.6453
 3163TIP3    H2 9454   1.584   0.794   0.402 -0.5154 -0.0799 -0.7473
 3164TIP3   OH2 9455   3.773   0.570   5.387 -0.1971 -0.0007  0.4348
 3164TIP3    H1 9456   3.844   0.544   5.329  0.6644  2.0429  0.4939
 3164TIP3    H2 9457   3.790   0.523   5.469  0.5378 -0.2606  0.1391
 3165TIP3   OH2 9458   1.964   4.525   3.586  0.7483  0.3198 -0.2907
 3165TIP3    H1 9459   1.936   4.435   3.570  0.6562  0.1927  0.5488
 3165TIP3    H2 9460   1.910   4.554   3.660  1.4582  0.7290  0.0758
 3166TIP3   OH2 9461   5.772   2.023   2.172 -0.4234 -0.3554  0.1857
 3166TIP3    H1 9462   5.763   1.940   2.219  0.5103 -0.6040 -0.0676
 3166TIP3    H2 9463   5.863   2.025   2.142 -0.2815  1.0068  0.6342
 3167TIP3   OH2 9464   4.283   3.434   4.431  0.1872  0.2716  0.0543
 3167TIP3    H1 9465   4.208   3.482   4.467 -0.2161  0.7232 -1.3423
 3167TIP3    H2 9466   4.339   3.502   4.393  0.1555 -0.2578 -0.9651
 3168TIP3   OH2 9467   6.176   6.744   4.946  0.5746  0.3816  0.3971
 3168TIP3    H1 9468   6.102   6.799   4.920  0.2964  0.5377  1.4651
 3168TIP3    H2 9469   6.135   6.665   4.983  0.9499  0.2561  0.5503
 3169TIP3   OH2 9470   2.343   4.537   1.259 -0.1870  0.1278  0.7166
 3169TIP3    H1 9471   2.349   4.628   1.230  1.5305  0.0274  0.6566
 3169TIP3    H2 9472   2.331   4.543   1.354 -1.5679  0.4085  0.5439
 3170TIP3   OH2 9473   0.924   3.604   1.164  0.1397 -0.2605  0.3484
 3170TIP3    H1 9474   0.910   3.656   1.243 -0.9478 -0.4638  0.2963
 3170TIP3    H2 9475   0.881   3.520   1.182  0.2537 -0.4665 -0.2980
 3171TIP3   OH2 9476   4.813   1.226   1.589 -0.4423 -0.2969 -0.3730
 3171TIP3    H1 9477   4.837   1.157   1.527 -2.5913  0.2512 -1.9755
 3171TIP3    H2 9478   4.776   1.295   1.533 -1.2637  0.7921  1.4357
 3172TIP3   OH2 9479   1.883   0.778   4.152  0.4186 -0.2453 -0.1271
 3172TIP3    H1 9480   1.972   0.805   4.131  0.0039  1.3655  0.0508
 3172TIP3    H2 9481   1.894   0.707   4.215  1.5652  0.3950  0.4231
 3173TIP3   OH2 9482   4.283   0.113   2.537  0.2688  0.3763  0.0500
 3173TIP3    H1 9483   4.361   0.166   2.557  0.0659  1.0116 -0.8087
 3173TIP3    H2 9484   4.300   0.030   2.580  1.4225  0.5198 -0.0835
 3174TIP3   OH2 9485   1.428   4.082   5.728 -0.2029 -0.1064  0.1854
 3174TIP3    H1 9486   1.488   4.058   5.657  0.5722 -0.8556  1.0637
 3174TIP3    H2 9487   1.354   4.023   5.718 -1.0664  1.1242 -1.1831
 3175TIP3   OH2 9488   2.652   6.137   3.731 -0.4448  0.4868 -0.0195
 3175TIP3    H1 9489   2.676   6.194   3.657  1.4241  1.3447  1.1895
 3175TIP3    H2 9490   2.604   6.195   3.790  1.6811  0.9642  1.3350
 3176TIP3   OH2 9491   2.889   5.824   4.279  0.1591  0.3758  0.4496
 3176TIP3    H1 9492   2.974   5.795   4.312  0.3778 -0.5415 -0.8281
 3176TIP3    H2 9493   2.857   5.885   4.346  1.2815 -0.1604  1.5309
 3177TIP3   OH2 9494   7.081   4.644   4.741  0.4978 -0.0660  0.0161
 3177TIP3    H1 9495   7.032   4.561   4.745 -0.4253  0.0449 -4.4861
 3177TIP3    H2 9496   7.025   4.707   4.787 -1.8829 -0.7607 -1.7253
 3178TIP3   OH2 9497   3.293   6.541   4.486  0.1646 -0.1109  0.3174
 3178TIP3    H1 9498   3.284   6.542   4.391 -1.6563  1.9016  0.4275
 3178TIP3    H2 9499   3.376   6.587   4.503  0.3372 -0.1903 -0.2845
 3179TIP3   OH2 9500   6.707   5.375   0.178 -0.5991 -0.0198  0.1348
 3179TIP3    H1 9501   6.648   5.362   0.104 -0.5928 -0.1918  0.1585
 3179TIP3    H2 9502   6.790   5.400   0.140 -0.2247 -1.3983  0.0071
 3180TIP3   OH2 9503   1.834   5.427   1.524 -0.6072 -0.0961  0.8112
 3180TIP3    H1 9504   1.876   5.344   1.503 -0.6696 -0.7298  2.9551
 3180TIP3    H2 9505   1.891   5.493   1.484  1.1205 -1.0509  1.5509
 3181TIP3   OH2 9506   5.716   0.202   2.319 -0.3600 -0.5657 -0.2258
 3181TIP3    H1 9507   5.703   0.154   2.238 -0.5243 -1.0301  0.0714
 3181TIP3    H2 9508   5.763   0.142   2.376  0.0748 -0.1149 -0.0969
 3182TIP3   OH2 9509   5.271   4.580   4.679 -0.3853  0.1046 -0.4800
 3182TIP3    H1 9510   5.297   4.660   4.633 -0.3314  0.1077 -0.4444
 3182TIP3    H2 9511   5.325   4.511   4.640  1.4935  0.4961  1.2805
 3183TIP3   OH2 9512   6.293   1.351   4.993 -0.6173 -0.0844  0.3332
 3183TIP3    H1 9513   6.328   1.279   4.942  0.2400  0.9028 -0.5297
 3183TIP3    H2 9514   6.370   1.403   5.018 -1.0480 -0.2772  2.2638
 3184TIP3   OH2 9515   0.151   2.867   1.325  0.2341 -0.7080 -0.2255
 3184TIP3    H1 9516   0.125   2.811   1.398 -0.8604  0.8048  0.6077
 3184TIP3    H2 9517   0.069   2.905   1.292  0.8895  0.1090 -0.9970
 3185TIP3   OH2 9518   1.848   4.846   4.069 -0.2023 -0.7455 -0.1267
 3185TIP3    H1 9519   1.832   4.934   4.034 -1.2500 -0.2889  1.3995
 3185TIP3    H2 9520   1.797   4.788   4.012  0.7405 -0.4415 -1.3335
 3186TIP3   OH2 9521   4.859   4.130   0.866 -0.0194 -0.2658 -0.3994
 3186TIP3    H1 9522   4.834   4.054   0.920 -2.2112  1.5428  1.3461
 3186TIP3    H2 9523   4.812   4.203   0.905  1.0387  1.8187 -2.7683
 3187TIP3   OH2 9524   5.606   0.681   0.344  0.6113  0.9693 -0.2264
 3187TIP3    H1 9525   5.531   0.670   0.287 -1.0455  0.4076  1.9477
 3187TIP3    H2 9526   5.671   0.725   0.289 -1.5062  2.0865 -1.9916
 3188TIP3   OH2 9527   4.949   5.638   5.754  0.0869 -0.1945 -0.2556
 3188TIP3    H1 9528   4.990   5.664   5.671 -0.1003 -0.2922 -0.3785
 3188TIP3    H2 9529   4.860   5.673   5.750  0.0399 -0.2983 -0.1445
 3189TIP3   OH2 9530   4.105   3.895   5.634 -0.0629  0.1301 -0.0205
 3189TIP3    H1 9531   4.065   3.973   5.596 -1.2050 -0.6353 -0.4278
 3189TIP3    H2 9532   4.150   3.927   5.713  0.7244  1.4205 -0.9528
 3190TIP3   OH2 9533   6.405   1.739   2.613  0.2378 -0.0147 -0.1773
 3190TIP3    H1 9534   6.498   1.763   2.604  0.0849  0.3067 -1.0119
 3190TIP3    H2 9535   6.397   1.707   2.703  1.1046  0.1981 -0.0136
 3191TIP3   OH2 9536   6.751   2.060   2.457 -0.3140  0.1161 -0.2177
 3191TIP3    H1 9537   6.800   1.979   2.471 -3.0008 -1.2732  2.3771
 3191TIP3    H2 9538   6.799   2.126   2.506 -0.8439 -1.1800  2.2089
 3192TIP3   OH2 9539   3.007   6.646   5.763  0.1691  0.5041 -0.4510
 3192TIP3    H1 9540   3.010   6.681   5.852 -0.2406 -0.2568 -0.1272
 3192TIP3    H2 9541   2.914   6.642   5.742  0.2389  0.1852 -0.7096
 3193TIP3   OH2 9542   3.811   3.325   4.379 -0.1638 -0.2811  0.3674
 3193TIP3    H1 9543   3.747   3.349   4.312 -0.5257 -0.6527  0.5760
 3193TIP3    H2 9544   3.896   3.329   4.334 -0.2698  0.7402  0.2275
 3194TIP3   OH2 9545   2.511   3.625   0.360  0.5843 -0.3112 -0.1945
 3194TIP3    H1 9546   2.564   3.692   0.317  0.2299  0.9187  1.1916
 3194TIP3    H2 9547   2.530   3.545   0.312 -0.1420  1.0201 -2.8997
 3195TIP3   OH2 9548   4.261   3.885   3.998  0.0845  0.0632 -0.0837
 3195TIP3    H1 9549   4.268   3.980   3.996  0.9288  0.0414  0.7696
 3195TIP3    H2 9550   4.179   3.865   3.954 -0.9212  1.2902  1.1545
 3196TIP3   OH2 9551   0.671   6.493   3.696 -0.3913 -0.9554  0.1879
 3196TIP3    H1 9552   0.685   6.565   3.634  2.4693 -2.8502 -1.6881
 3196TIP3    H2 9553   0.577   6.488   3.706 -0.7565  3.5410  1.2094
 3197TIP3   OH2 9554   6.687   1.324   4.401 -0.1220  0.0074 -0.5269
 3197TIP3    H1 9555   6.597   1.356   4.409 -0.2830 -0.6993  0.7282
 3197TIP3    H2 9556   6.736   1.400   4.370 -1.2224  0.2642 -1.7186
 3198TIP3   OH2 9557   2.922   1.463   1.148 -0.2493 -0.0951  0.3415
 3198TIP3    H1 9558   2.956   1.528   1.086  1.1536 -0.7277  0.4177
 3198TIP3    H2 9559   2.854   1.509   1.196  0.4410  1.1993  0.1197
 3199TIP3   OH2 9560   2.430   6.482   5.437  0.3443  0.1338  0.2203
 3199TIP3    H1 9561   2.468   6.569   5.423  0.2824  0.1877  0.3788
 3199TIP3    H2 9562   2.497   6.434   5.486  0.3980  0.0761  0.0915
 3200TIP3   OH2 9563   4.247   2.082   2.335  0.1765  0.0021  0.8782
 3200TIP3    H1 9564   4.247   2.094   2.430 -0.6423 -0.1491  0.9033
 3200TIP3    H2 9565   4.338   2.063   2.313 -0.0696 -3.3888  2.1100
 3201TIP3   OH2 9566   1.472   2.898   4.314 -0.8968 -0.3008 -0.3397
 3201TIP3    H1 9567   1.452   2.844   4.238  2.9540 -1.1640 -0.9183
 3201TIP3    H2 9568   1.486   2.986   4.278 -0.5955 -0.3735 -0.4010
 3202TIP3   OH2 9569   6.833   0.164   3.818 -0.3828 -0.3673 -0.3946
 3202TIP3    H1 9570   6.783   0.094   3.860  1.2684 -0.7644  1.0373
 3202TIP3    H2 9571   6.921   0.156   3.855 -0.2774  2.8976  0.3438
 3203TIP3   OH2 9572   3.182   1.458   3.622  0.0015 -0.7315  0.4091
 3203TIP3    H1 9573   3.210   1.443   3.531 -0.7112 -0.5107  0.1492
 3203TIP3    H2 9574   3.159   1.551   3.625 -0.6407 -0.8918  0.6286
 3204TIP3   OH2 9575   0.572   0.434   4.734 -0.1540 -0.2512  0.3158
 3204TIP3    H1 9576   0.530   0.516   4.710  1.0759  0.8597  1.7485
 3204TIP3    H2 9577   0.615   0.452   4.818  2.0482 -1.6878 -0.3977
 3205TIP3   OH2 9578   2.227   4.342   2.083  0.1758  0.2947  0.2859
 3205TIP3    H1 9579   2.287   4.346   2.157  0.6840  1.5915 -0.1753
 3205TIP3    H2 9580   2.196   4.431   2.072  0.4224  0.2138 -1.3068
 3206TIP3   OH2 9581   4.184   6.614   1.073  0.5011 -0.1343  0.3112
 3206TIP3    H1 9582   4.237   6.567   1.008  0.5215 -1.9963  1.5732
 3206TIP3    H2 9583   4.099   6.570   1.071  0.1398  0.5278  0.7590
 3207TIP3   OH2 9584   3.718   6.472   4.038  0.3845  0.4833  0.2013
 3207TIP3    H1 9585   3.637   6.521   4.027 -0.4346 -0.3926  1.8719
 3207TIP3    H2 9586   3.739   6.440   3.951 -1.3963  0.2365 -0.1803
 3208TIP3   OH2 9587   5.367   0.247   5.503  0.2941  0.4801 -1.1307
 3208TIP3    H1 9588   5.448   0.292   5.529 -0.0770  1.3287 -1.4276
 3208TIP3    H2 9589   5.393   0.192   5.429  0.4264  1.3889 -1.7696
 3209TIP3   OH2 9590   3.697   5.886   4.795  0.2177 -0.3264 -0.1701
 3209TIP3    H1 9591   3.654   5.963   4.833 -1.5807 -1.2159 -0.2692
 3209TIP3    H2 9592   3.634   5.854   4.730  1.6987 -0.8672 -1.4080
 3210TIP3   OH2 9593   0.173   2.104   4.043 -0.2067 -0.1736  0.1848
 3210TIP3    H1 9594   0.140   2.193   4.055  0.0389  0.0889 -0.9669
 3210TIP3    H2 9595   0.194   2.098   3.950 -0.1580 -1.4232  0.2548
 3211TIP3   OH2 9596   3.341   0.213   4.689  0.1311 -0.2632 -0.4096
 3211TIP3    H1 9597   3.387   0.180   4.613  0.9090 -0.3421  0.0839
 3211TIP3    H2 9598   3.402   0.200   4.762 -0.2596  0.5858  0.0859
 3212TIP3   OH2 9599   3.261   6.077   4.359 -0.0087 -0.1493  0.0162
 3212TIP3    H1 9600   3.286   6.013   4.293 -1.2717  1.5371 -2.2435
 3212TIP3    H2 9601   3.172   6.103   4.336  0.9870  3.6374 -0.3188
 3213TIP3   OH2 9602   0.040   2.871   0.707  0.1145  0.6408 -0.4596
 3213TIP3    H1 9603   0.117   2.816   0.721  0.4728  1.3626  0.5389
 3213TIP3    H2 9604   0.045   2.897   0.615  1.2843  1.0027 -0.2987
 3214TIP3   OH2 9605   1.281   4.988   5.049 -0.3453  0.2983  0.0264
 3214TIP3    H1 9606   1.356   5.014   5.101 -0.4201 -0.8970  0.7884
 3214TIP3    H2 9607   1.318   4.960   4.965 -0.1217  1.2469 -0.2021
 3215TIP3   OH2 9608   6.362   1.376   1.438  0.7349 -0.1126 -0.5743
 3215TIP3    H1 9609   6.387   1.300   1.490  1.9173 -0.0727 -1.0398
 3215TIP3    H2 9610   6.270   1.362   1.417  0.8092 -1.1802 -0.2448
 3216TIP3   OH2 9611   5.787   3.329   0.534  0.5366 -0.1899 -0.0601
 3216TIP3    H1 9612   5.801   3.248   0.485 -1.5809  0.4634 -1.9016
 3216TIP3    H2 9613   5.724   3.305   0.602  0.9356 -0.3763  0.2444
 3217TIP3   OH2 9614   0.507   4.961   1.081  0.1090 -0.8275 -0.3624
 3217TIP3    H1 9615   0.490   5.014   1.159 -1.2865 -1.7904  0.0410
 3217TIP3    H2 9616   0.447   4.887   1.090 -0.8064 -0.4786 -2.8351
 3218TIP3   OH2 9617   0.286   1.313   4.021  0.1847  0.7405  0.2365
 3218TIP3    H1 9618   0.326   1.315   4.108  0.2139  1.4898  0.2139
 3218TIP3    H2 9619   0.206   1.366   4.031 -0.9552 -0.9204  0.3538
 3219TIP3   OH2 9620   4.475   2.028   2.623 -0.7372 -0.2273  0.2805
 3219TIP3    H1 9621   4.557   2.069   2.594 -1.0335 -0.0901 -0.3659
 3219TIP3    H2 9622   4.503   1.946   2.664 -0.2799 -0.2145  0.0044
 3220TIP3   OH2 9623   0.784   5.417   2.908 -0.0767 -0.3718 -0.0304
 3220TIP3    H1 9624   0.802   5.443   2.818  0.0244 -0.6611 -0.0961
 3220TIP3    H2 9625   0.694   5.385   2.906 -0.3248  0.3077  0.1263
 3221TIP3   OH2 9626   3.413   0.567   2.169 -0.5846 -0.5715 -0.2673
 3221TIP3    H1 9627   3.501   0.594   2.196 -0.1525 -2.4428  0.3820
 3221TIP3    H2 9628   3.390   0.497   2.230 -2.3250 -0.4520 -0.7493
 3222TIP3   OH2 9629   3.895   6.151   3.174 -0.5057 -0.2506  0.7414
 3222TIP3    H1 9630   3.956   6.085   3.208  0.3115  0.2813  0.3424
 3222TIP3    H2 9631   3.894   6.136   3.079 -2.7844 -1.7354  0.9287
 3223TIP3   OH2 9632   1.293   4.972   4.512 -0.1734  0.2697 -0.0915
 3223TIP3    H1 9633   1.214   5.018   4.482 -0.9033 -1.3717 -0.8381
 3223TIP3    H2 9634   1.272   4.880   4.499  2.2056 -0.1845 -1.1247
 3224TIP3   OH2 9635   4.698   1.882   1.871  0.0353  0.0260  0.3608
 3224TIP3    H1 9636   4.633   1.848   1.811 -0.0004  0.6373  0.0393
 3224TIP3    H2 9637   4.769   1.818   1.869  0.2374  0.2543 -0.6995
 3225TIP3   OH2 9638   1.993   6.369   2.058 -0.1489  0.3952 -0.5212
 3225TIP3    H1 9639   1.942   6.379   2.138 -0.1812 -1.0208 -0.3395
 3225TIP3    H2 9640   1.929   6.382   1.988 -0.3857  0.3791 -0.3112
 3226TIP3   OH2 9641   2.770   0.630   1.276  0.1778 -0.3310 -0.7021
 3226TIP3    H1 9642   2.721   0.549   1.265  0.6769 -0.8220  0.5843
 3226TIP3    H2 9643   2.773   0.668   1.188 -2.2550 -0.3951 -0.8831
 3227TIP3   OH2 9644   2.771   5.021   2.013 -0.2916  0.6669  0.0334
 3227TIP3    H1 9645   2.792   4.983   2.098  0.0450  0.4261 -0.1541
 3227TIP3    H2 9646   2.679   4.997   1.998 -0.0245 -0.2759 -0.1772
 3228TIP3   OH2 9647   2.558   6.013   2.910  0.1769  0.1714 -0.4701
 3228TIP3    H1 9648   2.545   6.044   3.000 -0.3768 -0.7508 -0.2138
 3228TIP3    H2 9649   2.516   5.927   2.909  2.2050 -0.8688 -0.9669
 3229TIP3   OH2 9650   4.556   6.581   3.930 -0.1969 -0.0833  0.6387
 3229TIP3    H1 9651   4.536   6.501   3.883  0.5564  0.9830 -1.6551
 3229TIP3    H2 9652   4.485   6.641   3.907 -0.2895  0.2073  1.6163
 3230TIP3   OH2 9653   0.230   6.293   3.353 -0.3013  0.1922 -0.3538
 3230TIP3    H1 9654   0.308   6.295   3.408 -1.4493  1.1444  1.3061
 3230TIP3    H2 9655   0.252   6.232   3.282  2.3974  1.4053 -0.6563
 3231TIP3   OH2 9656   2.004   5.638   1.433 -0.4329  0.0253 -0.0557
 3231TIP3    H1 9657   2.000   5.643   1.529 -0.7194  1.9135 -0.1304
 3231TIP3    H2 9658   1.966   5.721   1.403 -0.7302 -0.7092 -1.8229
 3232TIP3   OH2 9659   6.583   4.910   1.086 -0.1544  0.0708 -0.3453
 3232TIP3    H1 9660   6.488   4.915   1.102  0.0560 -0.3430  1.2223
 3232TIP3    H2 9661   6.596   4.960   1.005 -1.6236  0.7653 -0.1978
 3233TIP3   OH2 9662   2.481   4.485   0.209 -0.3142  0.1438 -0.5006
 3233TIP3    H1 9663   2.456   4.392   0.201  0.1010 -0.0266  0.0891
 3233TIP3    H2 9664   2.577   4.484   0.203 -0.1943  0.3488  1.0373
 3234TIP3   OH2 9665   4.594   5.672   4.743 -0.0834  0.3680 -0.1855
 3234TIP3    H1 9666   4.518   5.616   4.727  0.2165 -0.3257  0.7046
 3234TIP3    H2 9667   4.666   5.611   4.759  0.0710  0.9622  1.6316
 3235TIP3   OH2 9668   0.411   5.771   5.103  0.0191  0.3239  0.1969
 3235TIP3    H1 9669   0.315   5.772   5.096 -0.1448 -0.2084  1.9915
 3235TIP3    H2 9670   0.429   5.737   5.191  1.8498  1.0999  0.1731
 3236TIP3   OH2 9671   6.943   6.319   3.292  0.2807 -0.2791  0.7594
 3236TIP3    H1 9672   6.905   6.290   3.376  0.5328  1.0629  1.3715
 3236TIP3    H2 9673   6.871   6.310   3.229 -0.8031  1.2153  1.6908
 3237TIP3   OH2 9674   2.618   6.074   0.634 -0.5469  0.1355 -0.0566
 3237TIP3    H1 9675   2.674   6.147   0.607 -2.2838  1.0650 -1.3269
 3237TIP3    H2 9676   2.598   6.091   0.726  1.7926 -0.6251  0.6620
 3238TIP3   OH2 9677   4.773   5.056   5.488  0.0830 -0.2013 -0.0122
 3238TIP3    H1 9678   4.687   5.037   5.451  1.1465 -0.0003 -2.8533
 3238TIP3    H2 9679   4.824   4.977   5.471  0.4133 -0.4645  1.9810
 3239TIP3   OH2 9680   2.971   0.703   0.422 -0.6356  0.2948 -0.0159
 3239TIP3    H1 9681   2.922   0.641   0.368  1.1887 -0.4021 -0.9408
 3239TIP3    H2 9682   2.903   0.755   0.466 -2.1856 -0.3487 -1.5354
 3240TIP3   OH2 9683   1.147   4.745   0.616  0.2428  0.1372  0.0216
 3240TIP3    H1 9684   1.215   4.716   0.555  0.3820  1.4381 -0.4886
 3240TIP3    H2 9685   1.081   4.787   0.560 -0.5203 -0.2600  0.6039
 3241TIP3   OH2 9686   6.131   3.200   3.169  0.3255 -0.0019  0.2344
 3241TIP3    H1 9687   6.163   3.115   3.197 -0.0174  0.3102  1.7027
 3241TIP3    H2 9688   6.203   3.238   3.119 -0.0675 -1.7162 -1.7482
 3242TIP3   OH2 9689   7.008   4.997   0.325 -0.2382 -0.1831 -0.5516
 3242TIP3    H1 9690   6.940   4.947   0.369 -0.3509 -1.0025 -1.6189
 3242TIP3    H2 9691   7.089   4.952   0.349 -0.0528  0.7475  0.6586
 3243TIP3   OH2 9692   0.045   2.720   1.533 -0.5532 -0.3146  0.3699
 3243TIP3    H1 9693  -0.041   2.685   1.556 -0.5083  0.0875  1.2050
 3243TIP3    H2 9694   0.105   2.647   1.546 -0.9377 -1.0843 -1.7757
 3244TIP3   OH2 9695   4.164   3.213   2.662  0.0150 -0.2810 -0.2323
 3244TIP3    H1 9696   4.248   3.254   2.646 -0.0723 -0.7821 -2.2936
 3244TIP3    H2 9697   4.151   3.155   2.587 -1.4580 -1.4066  0.8181
 3245TIP3   OH2 9698   3.395   5.369   3.378  0.1207  0.1939  0.2953
 3245TIP3    H1 9699   3.465   5.328   3.427  0.2132  1.3915  1.2137
 3245TIP3    H2 9700   3.417   5.351   3.286  2.0515  1.1309  0.5083
 3246TIP3   OH2 9701   4.276   0.146  -0.020 -0.0156 -0.0817  0.3495
 3246TIP3    H1 9702   4.278   0.227   0.031 -0.4501 -0.5286  1.0888
 3246TIP3    H2 9703   4.190   0.108  -0.002 -0.1028 -0.3491 -0.5703
 3247TIP3   OH2 9704   4.659   2.312   5.542  0.1560  0.5331  0.0374
 3247TIP3    H1 9705   4.576   2.356   5.556 -0.2767 -0.5864  1.2119
 3247TIP3    H2 9706   4.704   2.365   5.476 -0.3545  2.6580  1.3081
 3248TIP3   OH2 9707   1.211   0.827   0.199  0.5254 -0.3087  0.6129
 3248TIP3    H1 9708   1.206   0.899   0.261 -0.1969 -0.9198  1.2786
 3248TIP3    H2 9709   1.184   0.750   0.248 -0.7705 -0.6990 -0.6276
 3249TIP3   OH2 9710   3.691   2.019   4.380  0.0270  0.2334  0.0479
 3249TIP3    H1 9711   3.765   1.979   4.425  0.8767  1.6309 -0.0417
 3249TIP3    H2 9712   3.614   1.989   4.428  0.7592 -0.1410  1.0059
 3250TIP3   OH2 9713   0.696   2.513   3.471  0.7778  0.0372  0.0556
 3250TIP3    H1 9714   0.742   2.484   3.549  0.2618 -1.0294 -0.0261
 3250TIP3    H2 9715   0.766   2.544   3.412  1.3974 -1.4061 -0.0047
 3251TIP3   OH2 9716   6.093   3.363   4.718 -0.2369  0.4906 -0.4575
 3251TIP3    H1 9717   5.998   3.377   4.721 -0.1153  1.6214  3.1544
 3251TIP3    H2 9718   6.120   3.365   4.809  3.2794 -0.0440 -1.3506
 3252TIP3   OH2 9719   4.354   0.243   4.046 -0.2483 -0.1306  0.0475
 3252TIP3    H1 9720   4.388   0.164   4.087 -0.1545 -0.8107 -1.3115
 3252TIP3    H2 9721   4.431   0.298   4.032  0.0188 -0.7900 -1.1271
 3253TIP3   OH2 9722   4.394   0.783   4.148 -0.3242  0.0293 -0.0537
 3253TIP3    H1 9723   4.394   0.841   4.225 -0.7125 -1.0403  0.7785
 3253TIP3    H2 9724   4.319   0.726   4.161  0.1826 -0.8222 -0.7321
 3254TIP3   OH2 9725   6.194   0.320   1.455 -0.3272  0.1169  0.0989
 3254TIP3    H1 9726   6.262   0.257   1.434 -1.1009 -0.5622 -0.4069
 3254TIP3    H2 9727   6.129   0.310   1.385 -1.0062  0.6645  0.6354
 3255TIP3   OH2 9728   2.697   6.248   1.819  0.2951  0.6197  0.0487
 3255TIP3    H1 9729   2.632   6.257   1.889 -0.2083  0.2629 -0.3648
 3255TIP3    H2 9730   2.645   6.238   1.739  0.8495  2.4785 -0.5987
 3256TIP3   OH2 9731   6.314   4.526   5.681 -0.4479 -0.1405  0.4808
 3256TIP3    H1 9732   6.337   4.603   5.733 -2.3799  0.5790  0.3577
 3256TIP3    H2 9733   6.221   4.513   5.699 -0.0266 -2.9320  1.0865
 3257TIP3   OH2 9734   2.667   2.121   0.471  0.4897  0.4767  0.0353
 3257TIP3    H1 9735   2.620   2.108   0.389  1.5155 -1.5810 -0.2755
 3257TIP3    H2 9736   2.607   2.088   0.538  1.1959 -1.5967 -0.3027
 3258TIP3   OH2 9737   0.980   2.575   1.827  0.0381  0.1133  0.4212
 3258TIP3    H1 9738   1.021   2.557   1.742  0.5632 -1.3932  0.9565
 3258TIP3    H2 9739   0.894   2.611   1.805  0.4489  0.4131 -0.7483
 3259TIP3   OH2 9740   2.942   3.066   4.705  0.0349 -0.8076 -0.1902
 3259TIP3    H1 9741   2.915   3.149   4.667  2.1259  0.2961  0.5701
 3259TIP3    H2 9742   2.965   3.011   4.630  0.8382  0.1340 -0.6532
 3260TIP3   OH2 9743   0.377   3.806   4.178  0.3260 -0.9236 -0.1475
 3260TIP3    H1 9744   0.419   3.836   4.258 -0.0587  0.4696 -0.4298
 3260TIP3    H2 9745   0.397   3.874   4.114  0.1723 -1.7457 -1.0871
 3261TIP3   OH2 9746   4.898   5.859   3.815  0.1679  0.2786 -0.4258
 3261TIP3    H1 9747   4.834   5.788   3.810  0.9188 -0.3724 -0.9156
 3261TIP3    H2 9748   4.983   5.815   3.821  0.6228  1.1328 -0.4326
 3262TIP3   OH2 9749   5.322   2.670   3.898 -0.2922 -0.1149  0.5246
 3262TIP3    H1 9750   5.360   2.646   3.983  2.5017 -0.3178 -0.6667
 3262TIP3    H2 9751   5.310   2.586   3.853  2.5565  0.0795 -0.8736
 3263TIP3   OH2 9752   2.788   5.745   5.014 -0.3820 -0.4062 -0.4705
 3263TIP3    H1 9753   2.705   5.744   5.061 -0.1998  0.7215 -0.0854
 3263TIP3    H2 9754   2.783   5.824   4.960  1.1608  0.7237  0.9411
 3264TIP3   OH2 9755   0.771   5.510   3.960 -0.4016 -0.2011  0.8086
 3264TIP3    H1 9756   0.711   5.581   3.937 -0.0520  0.0069  0.5201
 3264TIP3    H2 9757   0.854   5.536   3.920 -0.4146 -1.0610  0.1917
 3265TIP3   OH2 9758   6.956   5.395   5.357 -0.3353 -0.6022  0.0439
 3265TIP3    H1 9759   6.877   5.443   5.332  1.2900  1.6275 -1.2169
 3265TIP3    H2 9760   6.957   5.397   5.452 -0.9088  0.9337  0.0404
 3266TIP3   OH2 9761   2.547   0.241   4.367  0.1442  0.2543 -0.0883
 3266TIP3    H1 9762   2.458   0.204   4.363  1.2141 -2.6255  0.4506
 3266TIP3    H2 9763   2.546   0.295   4.446 -0.4776 -1.7704  1.3592
 3267TIP3   OH2 9764   5.052   2.595   1.945  0.3951  0.6279 -0.0946
 3267TIP3    H1 9765   5.051   2.675   1.998 -0.3892 -0.1432  1.1123
 3267TIP3    H2 9766   5.089   2.529   2.003  0.5414 -0.0044 -0.9000
 3268TIP3   OH2 9767   0.571   5.297   3.251 -0.5669  0.2777  0.1484
 3268TIP3    H1 9768   0.566   5.208   3.285  3.8259  0.2026  1.2993
 3268TIP3    H2 9769   0.569   5.287   3.155 -0.9400 -0.9740  0.2786
 3269TIP3   OH2 9770   1.875   2.084   5.404 -0.1821 -0.4541 -0.6069
 3269TIP3    H1 9771   1.874   2.106   5.311 -1.1412 -0.2292 -0.5530
 3269TIP3    H2 9772   1.783   2.071   5.427 -0.0081  0.0484  0.4424
 3270TIP3   OH2 9773   3.166   3.610   5.904  0.3783  0.3536 -0.3558
 3270TIP3    H1 9774   3.102   3.665   5.860 -0.3058  1.1485  1.5082
 3270TIP3    H2 9775   3.218   3.571   5.834 -0.4452  1.7726 -1.7992
 3271TIP3   OH2 9776   4.518   4.484   3.168 -0.3522 -0.7623 -0.2883
 3271TIP3    H1 9777   4.516   4.580   3.169  1.4452 -0.6796  0.8073
 3271TIP3    H2 9778   4.542   4.462   3.078 -1.1642 -0.2145 -0.6504
 3272TIP3   OH2 9779   4.565   4.332   5.220  0.2518 -0.0114 -0.1933
 3272TIP3    H1 9780   4.599   4.387   5.291  0.8932 -0.8157  0.1362
 3272TIP3    H2 9781   4.471   4.350   5.220  0.2222 -0.0500  0.9238
 3273TIP3   OH2 9782   4.882   5.496   1.919 -0.3444  0.3360 -0.1897
 3273TIP3    H1 9783   4.842   5.573   1.959  4.7537  1.8326  2.9454
 3273TIP3    H2 9784   4.957   5.531   1.871  0.6886 -2.5249 -0.8230
 3274TIP3   OH2 9785   5.354   4.346   5.664 -0.6263 -0.5615  0.4354
 3274TIP3    H1 9786   5.342   4.422   5.720  1.9777  0.6625 -0.4839
 3274TIP3    H2 9787   5.402   4.283   5.718  2.4809  0.8766 -0.4132
 3275TIP3   OH2 9788   4.853   5.743   2.054  0.0283  0.8438  0.1464
 3275TIP3    H1 9789   4.834   5.837   2.060  0.4598  0.8656  1.3360
 3275TIP3    H2 9790   4.876   5.717   2.143  0.9373 -0.1817 -0.3686
 3276TIP3   OH2 9791   5.641   5.328   3.493 -0.1933 -0.0253  0.4698
 3276TIP3    H1 9792   5.616   5.279   3.571 -0.9014  0.5656  0.6266
 3276TIP3    H2 9793   5.582   5.295   3.425 -0.7916  0.7198  0.6171
 3277TIP3   OH2 9794   2.419   1.367   1.666  0.8936 -0.0161  0.2745
 3277TIP3    H1 9795   2.369   1.294   1.628 -1.1907  1.4554  0.0429
 3277TIP3    H2 9796   2.426   1.345   1.759 -0.5329 -0.0975  0.3778
 3278TIP3   OH2 9797   3.327   1.805   4.849 -0.4288 -0.2008 -0.1119
 3278TIP3    H1 9798   3.310   1.862   4.924 -1.0009  0.6751 -0.8727
 3278TIP3    H2 9799   3.421   1.814   4.833 -0.5160  0.6186 -0.2597
 3279TIP3   OH2 9800   2.080   6.647   1.610 -0.4152  0.0015 -0.3344
 3279TIP3    H1 9801   2.048   6.599   1.686 -2.6486  1.4175 -0.3109
 3279TIP3    H2 9802   2.016   6.716   1.596  0.8931  0.8836 -2.4357
 3280TIP3   OH2 9803   2.042   1.626   1.669  0.1438 -0.3767 -1.1173
 3280TIP3    H1 9804   2.112   1.660   1.726 -0.0011  0.3104 -1.3378
 3280TIP3    H2 9805   1.968   1.612   1.728 -0.1120  0.6444 -1.1661
 3281TIP3   OH2 9806   6.254   6.018   2.291  0.0672 -0.1063 -0.7036
 3281TIP3    H1 9807   6.278   6.047   2.203  0.6767  0.7066 -0.2769
 3281TIP3    H2 9808   6.278   5.925   2.292 -1.1589 -0.4737 -1.8104
 3282TIP3   OH2 9809   3.635   4.883   3.414 -0.1839 -0.5266 -0.1126
 3282TIP3    H1 9810   3.588   4.833   3.348 -1.4818  0.8250 -0.2449
 3282TIP3    H2 9811   3.706   4.926   3.366 -1.4127  0.8414 -0.7493
 3283TIP3   OH2 9812   5.502   3.782   3.213  0.4827 -0.4825  0.5552
 3283TIP3    H1 9813   5.563   3.732   3.268  0.8465  1.3163  1.8543
 3283TIP3    H2 9814   5.555   3.848   3.170  0.0603 -1.3568 -1.4315
 3284TIP3   OH2 9815   5.441   4.091   3.327 -0.1337 -0.3341  0.2300
 3284TIP3    H1 9816   5.409   4.001   3.321  1.0717 -0.8143  0.7825
 3284TIP3    H2 9817   5.434   4.124   3.237  1.6981 -1.8157 -0.5336
 3285TIP3   OH2 9818   5.973   0.205   2.867 -0.3584 -0.0573  0.4559
 3285TIP3    H1 9819   5.894   0.258   2.859 -1.5473 -1.7825  0.1794
 3285TIP3    H2 9820   5.944   0.116   2.846  1.5570 -0.8220  0.8641
 3286TIP3   OH2 9821   1.983   6.436  -0.006 -0.9469  0.0707  0.1291
 3286TIP3    H1 9822   1.921   6.448   0.067 -0.6586  1.6530  0.1548
 3286TIP3    H2 9823   1.974   6.516  -0.058  1.9824  0.9837  0.8481
 3287TIP3   OH2 9824   3.947   1.870   4.427 -0.2223  0.2132  0.2013
 3287TIP3    H1 9825   4.015   1.890   4.491 -1.2613 -1.5367  1.9255
 3287TIP3    H2 9826   3.988   1.890   4.342  2.5264 -0.9645  1.1487
 3288TIP3   OH2 9827   5.192   3.544   0.021 -0.3623 -0.1324  0.5563
 3288TIP3    H1 9828   5.137   3.556  -0.056 -0.7509 -0.3425  0.7963
 3288TIP3    H2 9829   5.198   3.631   0.060  0.2146  0.0660  0.0408
 3289TIP3   OH2 9830   7.124   0.092   3.839  0.6708 -0.2373  0.1575
 3289TIP3    H1 9831   7.194   0.147   3.802 -0.7166  0.9225 -0.8340
 3289TIP3    H2 9832   7.102   0.032   3.768  1.4810 -1.4454  0.8976
 3290TIP3   OH2 9833   1.911   1.218   0.974  0.4726  0.1874 -0.4333
 3290TIP3    H1 9834   1.878   1.132   0.998  1.5974 -0.2667 -0.4626
 3290TIP3    H2 9835   1.842   1.256   0.919 -0.7764  0.0060  0.9449
 3291TIP3   OH2 9836   3.262   0.363   1.378  0.0163  0.7411  0.4802
 3291TIP3    H1 9837   3.237   0.433   1.318  0.8619 -0.0971 -0.9289
 3291TIP3    H2 9838   3.250   0.283   1.327  1.5143  0.0434  1.1554
 3292TIP3   OH2 9839   2.209   6.495   3.220 -0.4997  0.0840 -0.0881
 3292TIP3    H1 9840   2.240   6.435   3.152 -0.4395  0.8978 -0.7989
 3292TIP3    H2 9841   2.287   6.516   3.271 -0.7895 -1.6151  1.1362
 3293TIP3   OH2 9842   0.448   5.916   3.598 -0.6350  0.8014 -0.0623
 3293TIP3    H1 9843   0.535   5.953   3.583 -1.3839  2.3338 -0.9236
 3293TIP3    H2 9844   0.440   5.846   3.533  0.0553  0.4506  0.2194
 3294TIP3   OH2 9845   5.150   0.815   5.835 -0.2608 -0.1231  0.5712
 3294TIP3    H1 9846   5.166   0.909   5.826  2.4970 -0.5885 -0.3245
 3294TIP3    H2 9847   5.115   0.805   5.923  2.5627  1.5099  2.0363
 3295TIP3   OH2 9848   6.084   0.550   5.531 -0.0681  0.3420 -0.1784
 3295TIP3    H1 9849   6.074   0.645   5.518 -1.8090  0.0174 -1.6106
 3295TIP3    H2 9850   6.015   0.527   5.593 -1.8717 -0.4316 -2.3560
 3296TIP3   OH2 9851   6.300   5.905   1.605  0.2191 -0.2525 -0.5577
 3296TIP3    H1 9852   6.317   5.929   1.514 -0.4369  0.2005 -0.5740
 3296TIP3    H2 9853   6.332   5.815   1.613 -0.1042 -0.4492 -1.3575
 3297TIP3   OH2 9854   6.063   6.329   5.587  0.4906 -0.5043  0.3238
 3297TIP3    H1 9855   6.119   6.340   5.510  0.1274  1.1123  0.2606
 3297TIP3    H2 9856   6.095   6.394   5.650 -0.2176 -0.7364  0.9455
 3298TIP3   OH2 9857   3.538   2.450   1.289  0.1614 -0.6184  0.2622
 3298TIP3    H1 9858   3.555   2.356   1.291 -2.5068 -1.2100 -0.4735
 3298TIP3    H2 9859   3.525   2.471   1.196  0.2574  0.4039  0.4589
 3299TIP3   OH2 9860   6.001   0.890   0.214 -0.0558  0.3237  0.2410
 3299TIP3    H1 9861   6.014   0.877   0.120  0.3802 -0.1830  0.3630
 3299TIP3    H2 9862   5.906   0.890   0.226 -0.1069 -0.0317 -0.1484
 3300TIP3   OH2 9863   5.828   4.262   2.133  0.3227  0.3892  0.5898
 3300TIP3    H1 9864   5.861   4.172   2.129 -0.8664 -0.0805  1.0866
 3300TIP3    H2 9865   5.875   4.301   2.206  0.0230 -0.1758  1.0912
 3301TIP3   OH2 9866   3.923   2.727   3.617  0.2333 -0.0197 -0.4474
 3301TIP3    H1 9867   3.836   2.739   3.580  1.0365  1.9294 -1.8554
 3301TIP3    H2 9868   3.971   2.676   3.551  0.7743  0.7835 -0.6819
 3302TIP3   OH2 9869   6.866   6.204   0.382  0.5207  0.1129  0.3732
 3302TIP3    H1 9870   6.812   6.139   0.427 -1.6392  1.5070 -0.0208
 3302TIP3    H2 9871   6.904   6.157   0.308  2.0480 -1.5692  2.1197
 3303TIP3   OH2 9872   1.532   1.937   2.134  0.1334 -1.0486  0.4850
 3303TIP3    H1 9873   1.516   1.843   2.143  0.5224 -1.1411  0.2468
 3303TIP3    H2 9874   1.627   1.945   2.134  0.1436 -0.8317 -1.1621
 3304TIP3   OH2 9875   1.178   0.152   0.722  0.0674  0.1785 -0.7582
 3304TIP3    H1 9876   1.090   0.177   0.750 -0.4927 -0.5642 -1.7725
 3304TIP3    H2 9877   1.174   0.154   0.626  1.1365  0.0571 -0.8148
 3305TIP3   OH2 9878   0.919   1.930   4.561  0.3180  0.3835  0.1278
 3305TIP3    H1 9879   0.875   1.927   4.645  0.5303  0.6901  0.2511
 3305TIP3    H2 9880   0.857   1.974   4.502  0.1489  0.1212  0.1097
 3306TIP3   OH2 9881   5.824   6.470   3.141 -0.4054  0.1774  0.7943
 3306TIP3    H1 9882   5.898   6.518   3.178  1.0761 -1.6375  0.3750
 3306TIP3    H2 9883   5.805   6.402   3.206  0.1859 -1.1051 -0.3179
 3307TIP3   OH2 9884   0.066   5.672   4.631 -0.3983 -0.6287 -0.5853
 3307TIP3    H1 9885  -0.008   5.622   4.595 -1.7778  0.8337  0.1284
 3307TIP3    H2 9886   0.038   5.763   4.626  0.8503 -0.1297  0.8862
 3308TIP3   OH2 9887   6.385   2.072   3.482 -0.0523 -1.3892  0.4049
 3308TIP3    H1 9888   6.363   2.151   3.530  1.3926 -0.4751 -0.3869
 3308TIP3    H2 9889   6.370   2.095   3.390  0.6467 -1.9358  0.1476
 3309TIP3   OH2 9890   0.242   3.127   3.894 -0.6898 -0.7480 -0.7248
 3309TIP3    H1 9891   0.184   3.087   3.958 -2.2251 -0.9439 -2.1691
 3309TIP3    H2 9892   0.185   3.183   3.841  0.3897 -1.0146 -2.2490
 3310TIP3   OH2 9893   3.345   1.665   3.090 -0.2031 -0.4711  0.7049
 3310TIP3    H1 9894   3.303   1.579   3.089 -1.4908  0.1229  1.1580
 3310TIP3    H2 9895   3.427   1.651   3.139  0.1151 -1.6418 -0.1260
 3311TIP3   OH2 9896   0.056   1.259   2.211 -0.3467  0.5211  0.4462
 3311TIP3    H1 9897   0.021   1.247   2.122 -1.9124  0.1401  1.0728
 3311TIP3    H2 9898   0.115   1.184   2.223  1.2027  1.4689 -0.8393
 3312TIP3   OH2 9899   5.354   5.225   4.002  0.2209  0.0654 -0.3596
 3312TIP3    H1 9900   5.361   5.227   4.098  0.5037 -2.2076 -0.2883
 3312TIP3    H2 9901   5.302   5.303   3.981  0.1939  0.6538  1.6260
 3313TIP3   OH2 9902   1.081   1.468   2.209  0.4261 -0.1430 -0.0631
 3313TIP3    H1 9903   1.136   1.420   2.272  0.7448 -1.3879 -1.2455
 3313TIP3    H2 9904   1.084   1.558   2.239  4.5527  0.2232 -0.9516
 3314TIP3   OH2 9905   0.514   1.719   0.261 -0.1867  0.0559 -0.4531
 3314TIP3    H1 9906   0.555   1.677   0.185 -2.1035 -1.0112 -0.9586
 3314TIP3    H2 9907   0.536   1.662   0.334  1.2372  0.8162 -0.2430
 3315TIP3   OH2 9908   1.783   1.148   3.813  0.0378  0.2336 -0.0492
 3315TIP3    H1 9909   1.831   1.223   3.777  1.0406  0.5343  1.7944
 3315TIP3    H2 9910   1.699   1.186   3.841  0.1156  0.4430 -0.0954
 3316TIP3   OH2 9911   7.054   3.660   4.220 -0.6112  0.5064 -0.2669
 3316TIP3    H1 9912   7.148   3.641   4.219 -0.4919  0.8277  1.6162
 3316TIP3    H2 9913   7.043   3.723   4.291 -2.4870 -0.9556  0.8223
 3317TIP3   OH2 9914   1.986   2.967   3.890 -0.2730  0.1227  0.0537
 3317TIP3    H1 9915   1.954   3.049   3.853 -0.4596  0.3065  0.6149
 3317TIP3    H2 9916   1.927   2.948   3.963 -1.0787 -1.2414 -0.9132
 3318TIP3   OH2 9917   4.249   4.108   0.088 -0.0071 -0.1282 -0.1064
 3318TIP3    H1 9918   4.197   4.129   0.011 -2.9946  0.9964  2.0064
 3318TIP3    H2 9919   4.300   4.188   0.106  0.0548 -0.0928 -0.4429
 3319TIP3   OH2 9920   4.935   5.449   3.770  0.3489  0.3775 -0.2391
 3319TIP3    H1 9921   4.968   5.461   3.681 -1.4559 -4.0166 -1.7519
 3319TIP3    H2 9922   5.014   5.449   3.824  1.5638  2.4316 -1.8518
 3320TIP3   OH2 9923   5.557   3.604   2.352 -0.7491 -0.1946 -0.0633
 3320TIP3    H1 9924   5.515   3.656   2.284 -1.6881 -0.2679  0.4511
 3320TIP3    H2 9925   5.617   3.665   2.395 -1.3639  0.2880  0.1184
 3321TIP3   OH2 9926   4.809   0.620   5.497  0.4119  0.2860  0.2098
 3321TIP3    H1 9927   4.759   0.574   5.564 -1.9702  0.2766 -1.4351
 3321TIP3    H2 9928   4.888   0.651   5.542 -0.6869 -0.3734  2.7684
 3322TIP3   OH2 9929   3.720   3.052   3.750 -0.1151  0.0225  0.4093
 3322TIP3    H1 9930   3.784   3.096   3.694 -0.3885  1.0535  0.8833
 3322TIP3    H2 9931   3.635   3.083   3.719 -0.4029 -1.1568 -0.0622
 3323TIP3   OH2 9932   0.038   4.129   1.992 -0.1945 -0.1704 -0.0035
 3323TIP3    H1 9933   0.101   4.065   2.026  0.2941  0.3928  0.1694
 3323TIP3    H2 9934   0.014   4.181   2.069  0.6775  0.9149 -0.4308
 3324TIP3   OH2 9935   3.544   4.700   1.258  0.4546 -0.1875  0.3463
 3324TIP3    H1 9936   3.548   4.793   1.233  1.7542 -0.2125  0.4006
 3324TIP3    H2 9937   3.465   4.693   1.312 -0.2975  0.6439 -0.6043
 3325TIP3   OH2 9938   4.515   4.100   2.033 -0.2708 -0.0533 -0.0178
 3325TIP3    H1 9939   4.558   4.134   2.111  1.2855 -1.5861 -0.1696
 3325TIP3    H2 9940   4.427   4.138   2.037  0.5569  1.9549  1.0963
 3326TIP3   OH2 9941   6.505   3.357   1.071  0.5838  0.4600 -0.2770
 3326TIP3    H1 9942   6.473   3.316   1.151  2.1593  2.3783  1.4259
 3326TIP3    H2 9943   6.590   3.316   1.055  0.9734  1.1743 -0.0664
 3327TIP3   OH2 9944   6.375   2.494   3.258 -0.3461 -0.2367  0.6071
 3327TIP3    H1 9945   6.367   2.569   3.200  0.6613  0.0132  0.7725
 3327TIP3    H2 9946   6.391   2.420   3.200  2.3413  0.2676  0.5927
 3328TIP3   OH2 9947   1.709   4.826   1.402 -0.0727 -0.5012  0.2896
 3328TIP3    H1 9948   1.771   4.887   1.442  0.0356 -0.5357  0.1744
 3328TIP3    H2 9949   1.764   4.763   1.356 -0.1179 -1.4766  1.5123
 3329TIP3   OH2 9950   6.647   5.514   1.739  0.1482  0.0437 -0.3970
 3329TIP3    H1 9951   6.654   5.428   1.697 -1.8021 -0.7469  0.7401
 3329TIP3    H2 9952   6.582   5.561   1.688 -0.6778 -0.1441  0.4449
 3330TIP3   OH2 9953   3.996   4.168   4.812  0.7512 -0.1287 -0.5915
 3330TIP3    H1 9954   4.083   4.132   4.794  0.8344  0.0326 -0.5046
 3330TIP3    H2 9955   3.954   4.173   4.726  1.4487  1.4439 -0.8708
 3331TIP3   OH2 9956   7.191   0.773   5.729  0.0775 -0.1197 -0.5530
 3331TIP3    H1 9957   7.246   0.844   5.696 -0.6509  0.5502 -0.3592
 3331TIP3    H2 9958   7.110   0.781   5.678  0.4741 -1.6661 -1.4965
 3332TIP3   OH2 9959   4.572   1.737   2.119 -0.6196 -0.2085 -0.4734
 3332TIP3    H1 9960   4.539   1.807   2.064 -0.4026  1.5050  1.4659
 3332TIP3    H2 9961   4.619   1.679   2.058 -0.8408  1.2756 -2.1400
 3333TIP3   OH2 9962   0.898   4.483   3.219  0.2046 -0.0909  0.0019
 3333TIP3    H1 9963   0.870   4.494   3.310  0.3578 -0.5304  0.1066
 3333TIP3    H2 9964   0.873   4.393   3.197 -0.5049  0.2568 -0.6338
 3334TIP3   OH2 9965   2.827   5.775   4.024 -0.3791  0.0255  0.4973
 3334TIP3    H1 9966   2.858   5.798   4.111 -0.8190 -0.2657  0.7305
 3334TIP3    H2 9967   2.749   5.723   4.039  0.1784 -0.9983 -0.0357
 3335TIP3   OH2 9968   1.243   4.533   0.395 -0.0258  0.1223  0.5689
 3335TIP3    H1 9969   1.220   4.521   0.302  1.4333  0.1488  0.1720
 3335TIP3    H2 9970   1.276   4.622   0.400  0.6105 -0.1274  0.9495
 3336TIP3   OH2 9971   5.684   5.564   4.301  0.3019  0.4505  0.1346
 3336TIP3    H1 9972   5.704   5.653   4.273  0.1056  0.5021  0.1538
 3336TIP3    H2 9973   5.710   5.561   4.393  0.1862  0.5275  0.1696
 3337TIP3   OH2 9974   2.885   0.227   2.931 -0.3910  0.2153  0.3640
 3337TIP3    H1 9975   2.821   0.172   2.976 -1.5790  1.1938 -0.0474
 3337TIP3    H2 9976   2.953   0.244   2.996 -0.3191 -1.1800  0.6872
 3338TIP3   OH2 9977   4.483   4.956   3.269 -0.4277  0.2475  0.4139
 3338TIP3    H1 9978   4.527   5.007   3.200  0.4698 -1.8435 -0.6417
 3338TIP3    H2 9979   4.523   4.987   3.350  2.0880 -0.5706 -0.4090
 3339TIP3   OH2 9980   2.890   6.269   2.796 -0.1840 -0.6579 -0.6593
 3339TIP3    H1 9981   2.841   6.197   2.755  0.2119 -1.3129 -0.0074
 3339TIP3    H2 9982   2.822   6.332   2.822 -0.5704 -0.9895 -0.8468
 3340TIP3   OH2 9983   2.917   2.136   3.837 -0.4832 -0.5872 -0.2327
 3340TIP3    H1 9984   2.980   2.146   3.766  0.3224 -0.4496  0.4907
 3340TIP3    H2 9985   2.964   2.163   3.916 -1.9784  1.2687  0.0985
 3341TIP3   OH2 9986   1.128   1.358   0.379 -0.1187  0.3871  0.5849
 3341TIP3    H1 9987   1.038   1.388   0.385 -0.8204 -1.8517  2.4698
 3341TIP3    H2 9988   1.171   1.394   0.456  0.0176 -0.2898  0.8328
 3342TIP3   OH2 9989   4.766   4.376   3.987 -0.6883  0.0961  1.0124
 3342TIP3    H1 9990   4.769   4.332   4.071 -0.4805 -0.0208  0.9439
 3342TIP3    H2 9991   4.725   4.460   4.006  1.9183  1.3168  1.8089
 3343TIP3   OH2 9992   2.521   3.816   3.469  0.0474 -0.2032 -0.0734
 3343TIP3    H1 9993   2.535   3.907   3.445  0.6528 -0.2411  0.1076
 3343TIP3    H2 9994   2.596   3.769   3.431 -0.1049 -0.5762  0.0772
 3344TIP3   OH2 9995   1.826   6.781   1.605 -0.9078  0.6214  0.6392
 3344TIP3    H1 9996   1.763   6.841   1.566  0.0363  0.8186 -0.6543
 3344TIP3    H2 9997   1.806   6.696   1.567 -0.7297  0.5799  0.6378
 3345TIP3   OH2 9998   1.371   3.605   3.137  0.4451 -0.0730 -0.4044
 3345TIP3    H1 9999   1.313   3.675   3.107  0.7071 -0.2233 -1.2745
 3345TIP3    H210000   1.405   3.637   3.221  2.4268  1.9557 -1.8613
 3346TIP3   OH210001   3.715   2.347   3.470 -0.9303  0.5248 -0.4702
 3346TIP3    H110002   3.784   2.382   3.527 -1.0795  0.1443 -0.0498
 3346TIP3    H210003   3.651   2.309   3.531 -0.9670 -0.1176 -0.9034
 3347TIP3   OH210004   5.647   6.412   2.392 -0.0302  0.2718 -0.7048
 3347TIP3    H110005   5.729   6.427   2.345  1.8201 -0.8729  1.9718
 3347TIP3    H210006   5.587   6.379   2.325  1.5865  1.2541 -2.7644
 3348TIP3   OH210007   2.790   6.394   1.313 -0.2042 -0.5097 -0.4834
 3348TIP3    H110008   2.829   6.459   1.254  1.3120 -0.3718  0.6114
 3348TIP3    H210009   2.863   6.363   1.367 -1.5628 -0.2948  1.6374
 3349TIP3   OH210010   4.082   3.683   4.544 -0.4918 -0.2954  0.1054
 3349TIP3    H110011   4.064   3.686   4.450 -1.0268  1.6982  0.2160
 3349TIP3    H210012   4.017   3.742   4.582  0.4935 -0.1151  1.5782
 3350TIP3   OH210013   3.930   5.804   3.449 -0.0644 -0.0393  0.1090
 3350TIP3    H110014   3.911   5.781   3.358  0.3560  1.2618 -0.3324
 3350TIP3    H210015   4.013   5.853   3.445  0.7627 -1.2399  1.3825
 3351TIP3   OH210016   2.229   1.048   4.114 -0.5235 -0.5528  0.2643
 3351TIP3    H110017   2.173   1.126   4.115  0.7692  0.4397 -0.5898
 3351TIP3    H210018   2.318   1.083   4.111  0.1388 -2.0835  1.0511
 3352TIP3   OH210019   3.958   5.599   0.128 -0.5990  0.1540  0.7388
 3352TIP3    H110020   3.999   5.574   0.045  0.8123 -1.3605  1.8290
 3352TIP3    H210021   3.982   5.691   0.140  2.3315 -0.5718  1.1535
 3353TIP3   OH210022   6.991   5.424   0.027 -1.1060 -0.3856  0.1721
 3353TIP3    H110023   7.054   5.359   0.057 -0.8415  1.0651  3.1221
 3353TIP3    H210024   7.039   5.507   0.034 -2.3855  0.4322 -0.5118
 3354TIP3   OH210025   3.590   4.350   1.062  0.2187 -0.3602 -0.2105
 3354TIP3    H110026   3.597   4.371   1.155 -2.5598 -0.6883  0.1566
 3354TIP3    H210027   3.563   4.258   1.061  3.1008 -1.3087 -1.5029
 3355TIP3   OH210028   4.861   0.350   3.426 -0.0680  0.1160  0.2460
 3355TIP3    H110029   4.825   0.331   3.512 -1.1398  1.8246  0.2295
 3355TIP3    H210030   4.889   0.442   3.432  2.4210 -0.5229 -0.4016
 3356TIP3   OH210031   1.828   6.776   3.649 -0.4245  0.1337 -0.2577
 3356TIP3    H110032   1.798   6.693   3.612  0.2805 -0.8980  1.3442
 3356TIP3    H210033   1.917   6.787   3.615 -0.2761 -0.1273  0.0328
 3357TIP3   OH210034   0.974   5.854   3.381  0.2967 -0.1335 -0.0859
 3357TIP3    H110035   0.976   5.934   3.328 -0.2145  0.0558  0.1703
 3357TIP3    H210036   1.028   5.791   3.333  1.2879  0.5758  0.0593
 3358TIP3   OH210037   1.518   6.680   2.750  0.3246 -0.1453  0.4328
 3358TIP3    H110038   1.526   6.743   2.679  0.8543  0.3686  0.9389
 3358TIP3    H210039   1.424   6.666   2.760  0.2757 -1.4990 -1.4635
 3359TIP3   OH210040   6.245   1.337   5.263  0.4665 -0.2974 -0.0494
 3359TIP3    H110041   6.335   1.355   5.290  0.1545  1.8621 -0.2576
 3359TIP3    H210042   6.246   1.349   5.168  0.0140 -0.5024 -0.0787
 3360TIP3   OH210043   6.547   4.571   3.822 -0.5957 -0.0989 -0.0465
 3360TIP3    H110044   6.587   4.487   3.845 -2.8074 -1.4330 -0.6911
 3360TIP3    H210045   6.496   4.595   3.899  0.7886  1.2150  0.5033
 3361TIP3   OH210046   3.611   1.635   2.040  0.2684  0.1373  0.0225
 3361TIP3    H110047   3.611   1.689   2.120 -2.0786  0.8688 -0.3998
 3361TIP3    H210048   3.691   1.583   2.047  0.8511  1.1775  2.1605
 3362TIP3   OH210049   1.554   0.060   2.985  0.0550  0.6957 -0.1820
 3362TIP3    H110050   1.594   0.147   2.989 -0.4866  1.0254 -1.4306
 3362TIP3    H210051   1.470   0.075   2.941 -0.5797 -0.2787  0.6555
 3363TIP3   OH210052   0.040   2.081   3.330  0.0987 -0.2840 -0.2537
 3363TIP3    H110053   0.115   2.109   3.383  0.4372 -0.2145 -0.7651
 3363TIP3    H210054   0.069   2.092   3.240 -0.7254  0.2538 -0.4614
 3364TIP3   OH210055   6.055   0.786   0.840  0.5359  0.4261  0.3332
 3364TIP3    H110056   6.025   0.873   0.866  1.6000  0.3371  2.0223
 3364TIP3    H210057   6.023   0.729   0.910  3.8309  0.2171  1.8218
 3365TIP3   OH210058   4.130   3.093   5.382  0.4585 -0.7397  0.4611
 3365TIP3    H110059   4.103   3.119   5.294 -1.1581  1.3450  1.4890
 3365TIP3    H210060   4.179   3.168   5.415  0.7462 -1.3564  1.4819
 3366TIP3   OH210061   6.608   4.781   5.844  0.0691  0.3030 -0.9727
 3366TIP3    H110062   6.536   4.840   5.822 -1.5870 -1.1399  0.2609
 3366TIP3    H210063   6.655   4.825   5.915 -2.2529 -0.5367  1.2312
 3367TIP3   OH210064   1.442   0.825   2.081 -0.3828  0.2093  0.2395
 3367TIP3    H110065   1.458   0.731   2.073  2.4420  0.5044  1.1422
 3367TIP3    H210066   1.511   0.865   2.027  0.6665  1.7262  2.5587
 3368TIP3   OH210067   4.758   0.795   0.552 -0.0740 -0.6343 -0.3131
 3368TIP3    H110068   4.716   0.851   0.487  0.8815  1.3756  0.7055
 3368TIP3    H210069   4.732   0.832   0.637  0.9835 -1.4187  0.3867
 3369TIP3   OH210070   0.470   2.162   1.017 -0.5400 -0.2098  0.0999
 3369TIP3    H110071   0.541   2.144   1.078 -0.5118  1.2270  0.5444
 3369TIP3    H210072   0.394   2.176   1.072 -1.1295 -1.4585 -0.3594
 3370TIP3   OH210073   2.851   5.306   2.966 -0.1654 -0.0538 -0.6100
 3370TIP3    H110074   2.885   5.342   3.048 -0.4693  1.1244 -0.9775
 3370TIP3    H210075   2.881   5.215   2.965 -0.8849 -0.3429  1.2049
 3371TIP3   OH210076   6.466   0.843   2.297  0.0603  0.5382  0.2740
 3371TIP3    H110077   6.487   0.756   2.261  1.6525  0.4408  1.3478
 3371TIP3    H210078   6.548   0.872   2.338 -0.7561  2.0972  0.8578
 3372TIP3   OH210079   3.916   4.303   1.891 -0.1732  0.3987 -0.2889
 3372TIP3    H110080   3.918   4.264   1.804  0.2271 -1.4693  0.5084
 3372TIP3    H210081   3.824   4.325   1.906 -0.4553 -0.4862 -0.6804
 3373TIP3   OH210082   0.886   6.072   0.703 -0.2428 -0.5484  0.3024
 3373TIP3    H110083   0.899   6.027   0.786  1.0243 -0.1899  0.3250
 3373TIP3    H210084   0.863   6.003   0.642 -0.5479 -0.9054  0.8179
 3374TIP3   OH210085   6.323   1.950   0.781 -0.8096  0.4000  0.2184
 3374TIP3    H110086   6.285   1.989   0.860 -0.7805 -0.6810  0.7860
 3374TIP3    H210087   6.282   1.865   0.774 -1.3232  0.7445 -1.3534
 3375TIP3   OH210088   5.851   0.207   3.612  0.3938 -0.7147  0.5924
 3375TIP3    H110089   5.843   0.279   3.549  3.8801  0.9880  1.8209
 3375TIP3    H210090   5.809   0.240   3.691  0.4949 -0.7535  0.6611
 3376TIP3   OH210091   4.998   1.710   0.697 -0.1897 -0.1791  0.1765
 3376TIP3    H110092   5.056   1.635   0.705  1.4289  1.0903  1.1440
 3376TIP3    H210093   4.909   1.674   0.706  0.5138 -1.9966  0.1494
 3377TIP3   OH210094   6.409   0.940   1.215 -0.1962 -0.4960  0.4745
 3377TIP3    H110095   6.361   0.936   1.132  0.7436 -2.9890 -0.0310
 3377TIP3    H210096   6.500   0.952   1.188 -0.0259 -0.1473  1.2091
 3378TIP3   OH210097   6.132   6.094   3.239  0.1382 -0.0516  0.1031
 3378TIP3    H110098   6.047   6.090   3.283 -0.6363 -0.4013 -1.3605
 3378TIP3    H210099   6.113   6.137   3.155  1.7072  1.3346  0.3972
 3379TIP3   OH210100   4.802   3.252   2.763 -0.0772  0.1108  0.8968
 3379TIP3    H110101   4.790   3.286   2.674 -1.9340  0.4163  1.2320
 3379TIP3    H210102   4.715   3.222   2.789  0.5344 -0.3986  2.4550
 3380TIP3   OH210103   4.589   0.572   5.203  0.0785 -0.1072 -0.5211
 3380TIP3    H110104   4.647   0.573   5.127  0.3038 -1.2967 -0.3748
 3380TIP3    H210105   4.596   0.660   5.240 -2.2262  1.5228 -3.5074
 3381TIP3   OH210106   7.118   3.062   4.142 -0.0344 -0.2149 -0.2387
 3381TIP3    H110107   7.071   3.091   4.064 -0.4519 -0.1746  0.0262
 3381TIP3    H210108   7.062   2.993   4.180 -0.6689  0.9089  0.9406
 3382TIP3   OH210109   2.445   1.663   2.121  0.3674 -0.0868 -0.1218
 3382TIP3    H110110   2.481   1.752   2.112 -1.2596  0.3479 -4.5853
 3382TIP3    H210111   2.510   1.606   2.080 -0.4964 -0.3139 -1.2230
 3383TIP3   OH210112   4.023   2.875   2.631 -0.5158  0.2251  0.1643
 3383TIP3    H110113   4.075   2.891   2.553 -0.4305 -1.2651 -0.0999
 3383TIP3    H210114   3.932   2.879   2.601 -0.5404 -3.9384 -0.9039
 3384TIP3   OH210115   2.404   0.042   0.020 -0.1991  0.2990  0.2896
 3384TIP3    H110116   2.470   0.085   0.074 -1.2879  2.1776  0.2201
 3384TIP3    H210117   2.406   0.090  -0.063 -0.5682 -0.6465 -0.2756
 3385TIP3   OH210118   7.059   0.435   5.121 -0.0383 -0.1213 -0.0136
 3385TIP3    H110119   7.030   0.490   5.048  0.3526 -0.6324 -0.5614
 3385TIP3    H210120   6.979   0.416   5.170 -0.3164  0.1620 -0.3529
 3386TIP3   OH210121   6.297   0.758   5.393 -0.0987 -0.0267 -0.1694
 3386TIP3    H110122   6.369   0.774   5.454  1.1442  1.2231 -1.8788
 3386TIP3    H210123   6.324   0.681   5.343  1.1649  1.6838 -2.2759
 3387TIP3   OH210124   1.017   4.697   4.220  0.3470 -0.0200 -0.6447
 3387TIP3    H110125   1.105   4.706   4.257 -1.0155  0.3321  2.9125
 3387TIP3    H210126   1.005   4.602   4.211 -0.1679 -0.4035  2.6846
 3388TIP3   OH210127   6.120   0.190   2.231  0.2534  0.0060  0.3841
 3388TIP3    H110128   6.157   0.245   2.162 -0.3041  0.3340  0.3413
 3388TIP3    H210129   6.114   0.247   2.307  0.3204 -0.1911  0.5385
 3389TIP3   OH210130   3.521   4.718   3.868 -0.3274  0.3752  0.3640
 3389TIP3    H110131   3.553   4.759   3.787 -0.8836 -0.4703 -0.2966
 3389TIP3    H210132   3.563   4.768   3.938  1.4197  0.1500 -0.4485
 3390TIP3   OH210133   2.487   6.668   3.978  0.1757  0.1285 -0.3530
 3390TIP3    H110134   2.580   6.672   3.956  0.1460 -0.8291 -0.6884
 3390TIP3    H210135   2.443   6.688   3.895  0.0724  0.9293 -0.1155
 3391TIP3   OH210136   4.912   3.327   1.686 -0.5317 -0.2905  0.4994
 3391TIP3    H110137   4.849   3.267   1.646 -0.7300 -0.1090  0.5349
 3391TIP3    H210138   4.860   3.377   1.749 -0.5245  0.4608 -0.0861
 3392TIP3   OH210139   2.275   2.008   5.583 -0.6222 -0.2028  0.3237
 3392TIP3    H110140   2.218   1.964   5.519 -1.0613 -0.6068  0.9848
 3392TIP3    H210141   2.215   2.058   5.638 -0.3565 -0.7978  1.1589
 3393TIP3   OH210142   1.586   1.297   2.403  0.5935 -0.1923 -0.3340
 3393TIP3    H110143   1.525   1.371   2.414  0.4108 -0.4343  0.3008
 3393TIP3    H210144   1.668   1.328   2.442 -0.2927 -1.3644  2.7134
 3394TIP3   OH210145   6.275   0.880   4.551 -0.1494 -0.1026 -0.1736
 3394TIP3    H110146   6.238   0.875   4.639  2.1553  0.5743  0.8960
 3394TIP3    H210147   6.242   0.963   4.516 -0.2507  0.1231  0.4488
 3395TIP3   OH210148   6.494   2.255   2.824 -0.2272 -0.0037 -0.8248
 3395TIP3    H110149   6.588   2.239   2.820  0.2753  2.0242  0.9527
 3395TIP3    H210150   6.479   2.325   2.761 -0.3643  0.3156 -0.4438
 3396TIP3   OH210151   1.135   4.505   2.722  0.0627  0.5157  0.5360
 3396TIP3    H110152   1.131   4.412   2.745 -1.6836  0.5381  0.3971
 3396TIP3    H210153   1.078   4.513   2.646 -1.4095  2.0417  1.7432
 3397TIP3   OH210154   5.373   0.706   0.767  0.4340  0.0228 -0.4022
 3397TIP3    H110155   5.301   0.677   0.711 -1.0259  0.2858  1.2492
 3397TIP3    H210156   5.411   0.781   0.721 -1.2937  0.7917 -0.6343
 3398TIP3   OH210157   5.565   2.039   2.608  0.4424 -0.1656  0.2908
 3398TIP3    H110158   5.626   2.062   2.538  1.0548  0.6656  1.0846
 3398TIP3    H210159   5.588   1.949   2.631 -0.4643 -0.8422 -1.2706
 3399TIP3   OH210160   5.414   4.378   4.528 -0.4943  0.1060  0.4325
 3399TIP3    H110161   5.452   4.292   4.510 -0.1243  0.0463  1.4521
 3399TIP3    H210162   5.342   4.385   4.466 -0.6615 -1.0258  0.4684
 3400TIP3   OH210163   6.567   4.216   3.478 -0.4683  0.3268 -0.2380
 3400TIP3    H110164   6.497   4.275   3.450 -1.5211 -0.1264  1.3120
 3400TIP3    H210165   6.546   4.195   3.569 -0.5225 -2.9318 -0.8706
 3401TIP3   OH210166   2.690   2.319   1.119 -0.6112  0.3559  0.1924
 3401TIP3    H110167   2.616   2.366   1.159  0.2803  0.3565  1.9199
 3401TIP3    H210168   2.745   2.388   1.081  0.2495  0.6924  1.9614
 3402TIP3   OH210169   4.416   2.454   5.517 -0.2300 -0.0032  0.3930
 3402TIP3    H110170   4.446   2.473   5.428  0.7564  1.9585  1.0980
 3402TIP3    H210171   4.321   2.452   5.510 -0.1493 -2.2023 -1.1081
 3403TIP3   OH210172   0.987   0.413   2.005 -0.5477  0.2547  0.3261
 3403TIP3    H110173   0.914   0.401   1.944 -1.1930 -0.0606  1.1384
 3403TIP3    H210174   1.065   0.395   1.953 -1.1033 -0.2759 -0.3427
 3404TIP3   OH210175   1.094   3.105   0.775 -0.1968  0.2979 -0.4285
 3404TIP3    H110176   1.059   3.090   0.687  1.1218  2.0979 -1.3087
 3404TIP3    H210177   1.108   3.199   0.780  1.1379  0.0647  1.2019
 3405TIP3   OH210178   1.916   6.787   3.291 -0.0555 -0.4344  0.1099
 3405TIP3    H110179   1.939   6.699   3.262  0.6188  0.3343 -1.8829
 3405TIP3    H210180   1.978   6.807   3.360  1.9676 -0.3571 -1.6449
 3406TIP3   OH210181   7.113   5.600   1.045  0.4882 -0.0679  0.3380
 3406TIP3    H110182   7.089   5.678   0.995  1.7977  0.2874  0.2154
 3406TIP3    H210183   7.176   5.554   0.989 -0.0559 -1.0723  0.5303
 3407TIP3   OH210184   0.950   1.407   2.479  0.2978  0.0098  0.2416
 3407TIP3    H110185   0.856   1.398   2.463  0.2809 -1.3183  0.9467
 3407TIP3    H210186   0.991   1.392   2.394 -0.0192 -2.1539  0.4101
 3408TIP3   OH210187   6.139   0.021   1.963 -0.0680  0.1571  0.2959
 3408TIP3    H110188   6.136   0.014   2.058 -0.8398 -0.8113  0.2029
 3408TIP3    H210189   6.217  -0.029   1.938  0.0968  0.3563  0.3988
 3409TIP3   OH210190   0.942   2.535   4.939 -0.0715 -0.6619  0.1635
 3409TIP3    H110191   1.016   2.483   4.909  0.0273 -0.0031 -0.7736
 3409TIP3    H210192   0.925   2.504   5.028  2.7401  0.7092  1.2815
 3410TIP3   OH210193   2.210   4.095   4.181  0.3630  0.1354 -0.1013
 3410TIP3    H110194   2.192   4.051   4.097 -0.4023 -0.6062  0.4349
 3410TIP3    H210195   2.216   4.023   4.244 -1.9564  0.8099  0.9840
 3411TIP3   OH210196   1.109   3.809   1.605 -0.7195 -0.0160 -0.0315
 3411TIP3    H110197   1.055   3.791   1.681 -1.4520 -0.4708 -0.6447
 3411TIP3    H210198   1.058   3.778   1.531  0.3880 -0.4869 -0.6318
 3412TIP3   OH210199   2.830   3.002   5.822  0.0282 -0.0357  0.3923
 3412TIP3    H110200   2.817   2.920   5.775  1.3168  0.8161 -1.5831
 3412TIP3    H210201   2.900   2.983   5.884  1.2036 -0.1765 -0.9116
 3413TIP3   OH210202   6.618   3.884   3.464  0.1177 -0.1087 -0.6232
 3413TIP3    H110203   6.533   3.843   3.445 -1.0409  0.9670  1.7737
 3413TIP3    H210204   6.609   3.973   3.430  0.1912  0.0810 -0.1449
 3414TIP3   OH210205   3.374   6.050   1.971 -0.0560 -0.3735 -0.3611
 3414TIP3    H110206   3.383   6.142   1.997  1.0881 -0.5133 -0.2041
 3414TIP3    H210207   3.318   6.053   1.894  1.2361  0.6388 -1.3148
 3415TIP3   OH210208   1.222   1.959   2.945  0.0652  0.3861  0.2336
 3415TIP3    H110209   1.292   1.949   2.880  0.4675 -1.7642  0.9259
 3415TIP3    H210210   1.262   1.933   3.028 -1.0358  1.0227  0.9874
 3416TIP3   OH210211   4.177   5.087   2.859 -0.0739  0.6705  0.1347
 3416TIP3    H110212   4.229   5.125   2.788  2.0013 -1.0512  0.6470
 3416TIP3    H210213   4.176   4.993   2.841 -1.0743  0.4067  1.4188
 3417TIP3   OH210214   5.791   1.538   5.497 -0.2298 -0.9024  0.4931
 3417TIP3    H110215   5.779   1.443   5.504  0.4794 -1.0687 -0.3611
 3417TIP3    H210216   5.828   1.564   5.581  0.8070 -1.6015  0.2708
 3418TIP3   OH210217   6.337   5.828   5.091  0.0647 -0.1157  0.2536
 3418TIP3    H110218   6.381   5.841   5.175  0.3742  0.3068  0.0316
 3418TIP3    H210219   6.282   5.751   5.104  0.4606 -0.3291  0.7036
 3419TIP3   OH210220   4.490   1.441   1.523  0.1875  0.2632 -0.0513
 3419TIP3    H110221   4.515   1.453   1.431  0.6636  2.0598  0.2839
 3419TIP3    H210222   4.397   1.420   1.520  0.3158 -0.2468 -0.9566
 3420TIP3   OH210223   3.245   3.139   4.392 -0.3315  0.1301  0.2060
 3420TIP3    H110224   3.313   3.078   4.362 -0.0724  0.1064  0.8290
 3420TIP3    H210225   3.263   3.220   4.344  2.0152  1.1277  2.4840
 3421TIP3   OH210226   2.891   4.220   3.382  0.3204 -0.2543 -0.2272
 3421TIP3    H110227   2.906   4.276   3.458  1.6655 -1.2391  0.2671
 3421TIP3    H210228   2.912   4.275   3.307  0.5055  0.2547  0.1901
 3422TIP3   OH210229   2.499   6.549   3.245  0.8185 -0.4111  0.2822
 3422TIP3    H110230   2.503   6.630   3.193  0.7083  0.0761  1.0096
 3422TIP3    H210231   2.557   6.566   3.319  2.0974 -1.6326 -0.3911
 3423TIP3   OH210232   6.169   6.424   5.349  0.7583  0.2821  0.0370
 3423TIP3    H110233   6.118   6.485   5.296  1.6548  0.6898 -0.3754
 3423TIP3    H210234   6.237   6.478   5.389  0.5222 -0.1516  1.0442
 3424TIP3   OH210235   3.621   4.264   4.110  0.1985  0.0190 -0.4655
 3424TIP3    H110236   3.591   4.301   4.027  2.4343 -0.4719 -1.5527
 3424TIP3    H210237   3.716   4.275   4.109  0.4933 -1.7846  1.1483
 3425TIP3   OH210238   5.096   1.307   0.984  0.3279  0.2902 -0.0493
 3425TIP3    H110239   5.174   1.252   0.989  0.7868  0.8142 -1.0582
 3425TIP3    H210240   5.025   1.246   0.964  0.4079 -0.2363  1.2353
 3426TIP3   OH210241   5.189   5.254   4.981 -0.1760  0.1624  0.2230
 3426TIP3    H110242   5.236   5.338   4.978 -0.2377  0.2438  1.2193
 3426TIP3    H210243   5.154   5.249   5.069 -1.1629 -0.3918 -0.1839
 3427TIP3   OH210244   2.887   4.786   0.602  0.1619 -0.1644 -0.0857
 3427TIP3    H110245   2.907   4.832   0.684  0.9436  0.9289 -0.8454
 3427TIP3    H210246   2.808   4.828   0.570  0.2485 -0.1099 -0.2297
 3428TIP3   OH210247   2.758   4.028   4.120  0.4319  0.2790 -0.4625
 3428TIP3    H110248   2.795   4.028   4.208  0.4312  0.2740 -0.4621
 3428TIP3    H210249   2.668   3.997   4.132  0.0215  1.4732 -0.2891
 3429TIP3   OH210250   6.091   3.743   0.943 -0.2139 -0.0721 -0.0591
 3429TIP3    H110251   6.037   3.726   0.866 -0.5050 -0.9434  0.3267
 3429TIP3    H210252   6.171   3.781   0.908 -0.0939 -1.0118 -0.8536
 3430TIP3   OH210253   6.295   1.694   2.877  0.3829 -0.1372  0.6382
 3430TIP3    H110254   6.283   1.712   2.971 -2.5048 -0.9813  0.5409
 3430TIP3    H210255   6.318   1.779   2.839 -1.5117  0.9557  1.7468
 3431TIP3   OH210256   5.760   1.266   5.531  0.3745 -0.8631 -0.4928
 3431TIP3    H110257   5.842   1.216   5.533  1.5335  0.8767 -1.7469
 3431TIP3    H210258   5.696   1.203   5.497  1.5614 -1.8157 -1.0799
 3432TIP3   OH210259   1.854   1.779   3.174  0.3201  0.0420  0.1456
 3432TIP3    H110260   1.881   1.824   3.254  0.2139 -0.4267  0.4523
 3432TIP3    H210261   1.841   1.848   3.109 -0.3283  0.4939  0.7479
 3433TIP3   OH210262   1.993   3.414   3.301  0.0619  0.6996  0.6965
 3433TIP3    H110263   1.950   3.498   3.318  0.3002  1.4786 -2.1102
 3433TIP3    H210264   1.925   3.349   3.315 -0.8234  1.5648  0.5259
 3434TIP3   OH210265   0.809   0.293   4.816  0.4152 -0.4053 -0.5906
 3434TIP3    H110266   0.840   0.208   4.785  1.3789  0.4491 -2.0948
 3434TIP3    H210267   0.726   0.307   4.769  0.2106 -0.5329 -0.2753
 3435TIP3   OH210268   1.004   3.397   3.659 -0.0357  0.4091 -0.1208
 3435TIP3    H110269   1.048   3.471   3.702  0.6033  0.2224 -0.4360
 3435TIP3    H210270   0.927   3.436   3.617  0.5192  0.9849 -0.6360
 3436TIP3   OH210271   5.733   4.480   2.406 -0.6194 -0.1748  0.5132
 3436TIP3    H110272   5.662   4.418   2.390  0.4579 -1.0169 -1.4902
 3436TIP3    H210273   5.727   4.543   2.334  1.3823 -1.0334 -0.4778
 3437TIP3   OH210274   5.717   0.140   5.784 -0.0058 -0.2336 -0.1363
 3437TIP3    H110275   5.692   0.075   5.718 -0.2580  0.4542 -0.7307
 3437TIP3    H210276   5.811   0.152   5.772 -0.0997  0.0956 -0.5663
 3438TIP3   OH210277   2.611   3.279   3.630  0.2803  0.3239  0.1946
 3438TIP3    H110278   2.625   3.191   3.664 -0.8682 -0.1316 -0.4624
 3438TIP3    H210279   2.536   3.270   3.571  0.9858  1.4772 -0.9212
 3439TIP3   OH210280   2.968   5.158   5.309 -0.3450 -0.2549 -0.5097
 3439TIP3    H110281   3.014   5.164   5.225 -1.3267  0.2234 -1.0272
 3439TIP3    H210282   3.033   5.186   5.373 -0.0676  0.9571 -1.2849
 3440TIP3   OH210283   4.079   0.995   4.249  0.1537 -0.4574 -0.2828
 3440TIP3    H110284   4.087   0.916   4.303 -0.8507  0.4160  1.2154
 3440TIP3    H210285   4.064   1.065   4.312  0.8333  0.9201 -1.6037
 3441TIP3   OH210286   0.439   5.973   1.168  0.6284  0.0314  0.8127
 3441TIP3    H110287   0.369   5.909   1.157 -0.3033  1.3007 -1.0902
 3441TIP3    H210288   0.396   6.050   1.206  0.5331  1.4246 -1.8816
 3442TIP3   OH210289   5.814   3.428   4.684  0.2348 -0.0848  0.1449
 3442TIP3    H110290   5.807   3.497   4.618  1.0282 -0.4624 -0.3418
 3442TIP3    H210291   5.773   3.465   4.762  0.8793  1.0300 -0.0309
 3443TIP3   OH210292   4.547   1.226   4.010  0.1069 -0.3632  0.5434
 3443TIP3    H110293   4.613   1.280   3.967 -0.1125 -1.2058 -0.9005
 3443TIP3    H210294   4.537   1.150   3.953 -0.1573 -1.5633  2.1282
 3444TIP3   OH210295   6.401   1.220   4.175  0.2456  0.1054 -0.2702
 3444TIP3    H110296   6.426   1.149   4.234  1.1148 -0.9526 -1.8547
 3444TIP3    H210297   6.472   1.225   4.111 -0.6701  1.2147 -1.2559
 3445TIP3   OH210298   0.133   4.571   4.819 -0.4743 -0.5167  0.0907
 3445TIP3    H110299   0.049   4.579   4.773 -1.1977 -0.0466  1.4564
 3445TIP3    H210300   0.133   4.481   4.853 -1.2215  0.0080  1.5489
 3446TIP3   OH210301   3.189   5.032   3.122  0.2736 -0.3969 -0.2692
 3446TIP3    H110302   3.227   5.069   3.042 -0.6139 -0.1332 -0.5761
 3446TIP3    H210303   3.130   4.964   3.091 -0.7249  0.2842  0.1136
 3447TIP3   OH210304   0.500   0.124   5.278 -0.3786  0.3370  0.1135
 3447TIP3    H110305   0.498   0.212   5.314 -0.9455  0.2654  0.2717
 3447TIP3    H210306   0.440   0.126   5.204  1.4363  0.7173 -1.4367
 3448TIP3   OH210307   1.710   3.542   3.480 -0.1725  0.7074 -0.9636
 3448TIP3    H110308   1.670   3.476   3.424 -1.3860 -0.1300  0.8284
 3448TIP3    H210309   1.775   3.495   3.532 -2.0060  0.5147  1.3338
 3449TIP3   OH210310   4.394   2.007   5.293 -0.2729  0.9316  0.1756
 3449TIP3    H110311   4.420   2.028   5.382  1.4835 -1.5015  0.3395
 3449TIP3    H210312   4.356   1.919   5.298  1.2288  0.0972 -1.5960
 3450TIP3   OH210313   5.685   1.581   1.271  0.1253 -0.1396  0.0518
 3450TIP3    H110314   5.613   1.519   1.276  0.5567 -0.7894 -1.4118
 3450TIP3    H210315   5.661   1.650   1.333 -0.8262 -1.2691  0.9934
 3451TIP3   OH210316   0.851   4.657   4.536  0.3088  0.0431  0.1470
 3451TIP3    H110317   0.827   4.659   4.443  1.0015 -1.0794 -0.0817
 3451TIP3    H210318   0.946   4.662   4.535  0.3178 -0.0297  0.7966
 3452TIP3   OH210319   6.635   5.123   5.013  0.0701  0.3756 -0.6508
 3452TIP3    H110320   6.730   5.121   5.024  0.0504  2.5758  0.3374
 3452TIP3    H210321   6.601   5.152   5.097 -1.5261 -0.5100 -0.9457
 3453TIP3   OH210322   1.141   6.107   1.666 -0.1638 -0.4338 -0.3704
 3453TIP3    H110323   1.064   6.056   1.693 -1.2739  1.4999  0.3309
 3453TIP3    H210324   1.166   6.155   1.745 -0.2309  1.3750 -1.3987
 3454TIP3   OH210325   4.466   2.343   1.672  0.0298 -0.0742 -0.1741
 3454TIP3    H110326   4.445   2.270   1.614 -0.0525  0.2417 -0.5459
 3454TIP3    H210327   4.554   2.324   1.704 -0.1926 -0.5932  0.1298
 3455TIP3   OH210328   4.640   1.653   3.129 -0.0706  0.5653 -0.6314
 3455TIP3    H110329   4.705   1.687   3.068  1.4792 -0.5277  0.3260
 3455TIP3    H210330   4.645   1.712   3.205  1.8125 -0.9987  0.5604
 3456TIP3   OH210331   5.821   6.410   5.140 -0.2817  0.2484 -0.4601
 3456TIP3    H110332   5.742   6.458   5.115 -1.1548 -0.7188  0.3306
 3456TIP3    H210333   5.834   6.432   5.233  1.2577  1.5594 -0.9459
 3457TIP3   OH210334   6.425   2.717   3.067 -0.3899  0.5596 -0.2607
 3457TIP3    H110335   6.469   2.742   3.148 -2.3177 -0.9182  1.3263
 3457TIP3    H210336   6.483   2.749   2.997  2.5714 -0.3012  1.6619
 3458TIP3   OH210337   1.402   1.528   2.412  0.7762 -0.7219  0.0743
 3458TIP3    H110338   1.355   1.604   2.446  3.3977  0.2281  1.8810
 3458TIP3    H210339   1.436   1.557   2.328  2.4752  0.5340  1.1180
 3459TIP3   OH210340   2.186   0.503   4.702 -0.2930  0.6046 -0.5108
 3459TIP3    H110341   2.155   0.498   4.612  0.4231  0.9709 -0.7856
 3459TIP3    H210342   2.119   0.554   4.748 -0.5275  0.6401 -0.8938
 3460TIP3   OH210343   6.972   1.497   0.440  0.4573 -0.3744 -0.3267
 3460TIP3    H110344   6.976   1.556   0.365 -1.7271  1.6588  1.0298
 3460TIP3    H210345   6.999   1.550   0.515 -1.4668 -1.0638  0.9302
 3461TIP3   OH210346   7.056   0.404   4.668 -0.4247 -0.1441  0.2655
 3461TIP3    H110347   7.095   0.432   4.585  0.5515 -1.5665  0.2174
 3461TIP3    H210348   6.962   0.403   4.650 -0.1394 -2.3732 -1.5072
 3462TIP3   OH210349   5.604   4.725   0.618  0.6816 -0.3656  0.4429
 3462TIP3    H110350   5.586   4.711   0.711 -0.7898 -0.4530  0.1709
 3462TIP3    H210351   5.554   4.803   0.596 -0.4545 -1.3722 -0.6666
 3463TIP3   OH210352   6.773   4.748   4.564  0.0949  0.5756 -0.5496
 3463TIP3    H110353   6.689   4.773   4.600  0.5659 -0.6637  1.6199
 3463TIP3    H210354   6.765   4.654   4.548  1.4290  0.1517  0.9755
 3464TIP3   OH210355   5.233   1.575   3.626  0.2376  0.4047 -0.4777
 3464TIP3    H110356   5.198   1.486   3.621  1.0714  0.0726 -0.5433
 3464TIP3    H210357   5.173   1.621   3.684  0.9358 -0.7630  1.2532
 3465TIP3   OH210358   4.104   5.100   5.734  0.4075 -0.4100  1.1224
 3465TIP3    H110359   4.106   5.152   5.654  0.7021 -1.2383  0.5855
 3465TIP3    H210360   4.174   5.136   5.788  1.7857 -1.3557  0.0346
 3466TIP3   OH210361   1.529   2.393   2.144 -0.5699 -0.2114 -0.0969
 3466TIP3    H110362   1.490   2.480   2.128  1.3960  0.5892 -0.7689
 3466TIP3    H210363   1.462   2.347   2.195 -1.9849  1.4269 -0.3570
 3467TIP3   OH210364   6.916   6.444   0.575 -0.1717  0.4956  0.5370
 3467TIP3    H110365   6.915   6.355   0.540 -2.5717  1.0943 -1.1636
 3467TIP3    H210366   6.967   6.494   0.512  2.7427  0.1353  2.4008
 3468TIP3   OH210367   3.899   5.534   2.237 -0.3474  0.8677 -0.0514
 3468TIP3    H110368   3.979   5.586   2.240  0.2100  0.5818 -3.9705
 3468TIP3    H210369   3.928   5.447   2.210 -1.9073  0.7361 -1.4771
 3469TIP3   OH210370   0.330   6.771   0.984 -0.6673 -0.0937 -0.4064
 3469TIP3    H110371   0.412   6.723   1.001  0.5497  1.3194 -1.9370
 3469TIP3    H210372   0.296   6.733   0.904 -0.0553  1.0450 -1.2476
 3470TIP3   OH210373   1.658   6.569   3.566 -0.1486 -0.3408  0.8043
 3470TIP3    H110374   1.695   6.531   3.486 -0.5241  2.5221 -0.8653
 3470TIP3    H210375   1.568   6.538   3.568 -0.3957  0.1997 -0.4297
 3471TIP3   OH210376   4.233   2.578   5.839  0.1551 -0.2430 -0.6432
 3471TIP3    H110377   4.170   2.650   5.841 -0.0441 -0.3761 -1.7251
 3471TIP3    H210378   4.180   2.499   5.835  0.3792 -0.4346  0.1072
 3472TIP3   OH210379   4.523   0.606   4.670 -0.0147 -0.0264 -0.1853
 3472TIP3    H110380   4.489   0.635   4.586  0.6749 -1.0235 -0.8404
 3472TIP3    H210381   4.568   0.524   4.650  1.2410  0.3530  0.9362
 3473TIP3   OH210382   2.554   4.603   4.172 -0.5177 -0.0788 -0.2949
 3473TIP3    H110383   2.485   4.584   4.108 -0.1791  2.3762 -1.5019
 3473TIP3    H210384   2.559   4.698   4.175  2.2957 -0.1617  0.3127
 3474TIP3   OH210385   4.726   2.516   5.364  0.0263 -0.1549 -0.6014
 3474TIP3    H110386   4.635   2.532   5.340  0.2591  1.5697 -0.4224
 3474TIP3    H210387   4.761   2.465   5.291 -0.4904  1.0858 -1.7399
 3475TIP3   OH210388   1.615   6.403   4.623 -0.0368 -0.2105 -0.0414
 3475TIP3    H110389   1.615   6.440   4.711 -0.0943 -0.0834 -0.0947
 3475TIP3    H210390   1.706   6.374   4.610 -0.1962 -0.9185  0.3439
 3476TIP3   OH210391   2.197   6.338   4.578 -0.0533  0.3271  0.5378
 3476TIP3    H110392   2.254   6.415   4.579 -1.0072  1.1083 -0.8016
 3476TIP3    H210393   2.160   6.335   4.666  1.3999  0.2953  1.1653
 3477TIP3   OH210394   7.052   3.275   4.323 -0.6647 -0.0014 -0.8973
 3477TIP3    H110395   7.024   3.227   4.401 -2.4094 -1.2804 -2.2094
 3477TIP3    H210396   7.084   3.207   4.264  0.0999  0.8721 -1.5157
 3478TIP3   OH210397   3.931   4.044   3.389 -0.1230  0.0864 -0.4104
 3478TIP3    H110398   3.944   4.138   3.374 -1.1629  0.1875 -0.7495
 3478TIP3    H210399   3.846   4.025   3.349  0.0365 -0.9843 -0.2606
 3479TIP3   OH210400   4.744   1.272   0.870  0.0021 -0.1890 -0.7541
 3479TIP3    H110401   4.658   1.241   0.839  0.2373 -0.5333 -1.0737
 3479TIP3    H210402   4.787   1.304   0.791 -0.7097  2.1571 -0.2530
 3480TIP3   OH210403   4.220   3.232   1.675 -0.6722 -0.5512 -0.2961
 3480TIP3    H110404   4.293   3.292   1.688 -0.2745 -1.0798 -0.0944
 3480TIP3    H210405   4.145   3.276   1.715 -0.5501  0.1605 -0.8332
 3481TIP3   OH210406   6.142   2.410   4.758  0.0831 -0.3155  0.4983
 3481TIP3    H110407   6.218   2.412   4.817 -0.0561  0.7057  0.6627
 3481TIP3    H210408   6.121   2.318   4.750  2.5478 -0.8330 -1.0976
 3482TIP3   OH210409   6.721   0.770   4.082  0.0917  0.1820  0.3185
 3482TIP3    H110410   6.694   0.723   4.160 -1.4926  0.4049 -0.0606
 3482TIP3    H210411   6.769   0.846   4.116 -2.8381  1.7530  1.2916
 3483TIP3   OH210412   4.039   3.998   2.672 -0.5010 -0.1863 -0.1190
 3483TIP3    H110413   4.004   3.969   2.588  0.5417  0.6724 -0.8831
 3483TIP3    H210414   4.092   3.925   2.703 -1.3457 -0.7289  0.0929
 3484TIP3   OH210415   0.114   6.655   5.540  0.0779  0.1539 -0.5259
 3484TIP3    H110416   0.066   6.573   5.548 -0.3423  0.4001 -0.5140
 3484TIP3    H210417   0.051   6.717   5.505 -0.1450  0.9608  1.2234
 3485TIP3   OH210418   4.826   3.124   1.432  0.4859 -0.2507 -0.1458
 3485TIP3    H110419   4.779   3.068   1.370  0.9802 -1.5053  0.5745
 3485TIP3    H210420   4.808   3.085   1.517  1.6988  0.0468  0.2704
 3486TIP3   OH210421   0.989   4.822   1.175 -0.1393  0.0083 -0.2688
 3486TIP3    H110422   1.036   4.780   1.104 -0.6398 -0.1844 -0.4887
 3486TIP3    H210423   1.016   4.775   1.254  0.1859  0.0299 -0.3672
 3487TIP3   OH210424   4.373   2.334   4.083 -0.3761  0.3590  0.4952
 3487TIP3    H110425   4.303   2.329   4.149 -0.1527  1.7546  0.8719
 3487TIP3    H210426   4.345   2.403   4.024 -0.8286 -1.2300 -1.2437
 3488TIP3   OH210427   0.692   3.914   0.052 -0.2343  0.1946  0.0072
 3488TIP3    H110428   0.693   3.923  -0.043  0.0773  0.1747  0.0064
 3488TIP3    H210429   0.692   3.819   0.067  1.4000  0.1660  0.0244
 3489TIP3   OH210430   3.562   5.952   3.598 -0.9475 -0.0320 -0.1845
 3489TIP3    H110431   3.605   5.902   3.528  0.3750 -0.5330  0.9327
 3489TIP3    H210432   3.634   5.975   3.657 -2.1048 -0.0727  1.2791
 3490TIP3   OH210433   2.502   3.114   1.105  0.3293  0.4170 -0.4262
 3490TIP3    H110434   2.496   3.189   1.164 -0.0202  0.0254  0.0384
 3490TIP3    H210435   2.585   3.072   1.129 -1.1449 -1.4425  1.8631
 3491TIP3   OH210436   1.667   1.287   1.534  0.6445 -0.1330 -0.0250
 3491TIP3    H110437   1.612   1.365   1.523 -0.0279 -0.6334 -0.2635
 3491TIP3    H210438   1.739   1.316   1.590  0.5382  0.7258 -0.3163
 3492TIP3   OH210439   3.298   4.948   5.807  0.1392  0.1266  0.3857
 3492TIP3    H110440   3.359   5.012   5.770  1.3096 -2.5251 -2.7195
 3492TIP3    H210441   3.350   4.901   5.872  0.3069  0.0867  0.2214
 3493TIP3   OH210442   5.080   2.933   1.315  0.1260 -0.2943 -0.2989
 3493TIP3    H110443   5.038   3.012   1.349  1.2561  0.8640 -1.4648
 3493TIP3    H210444   5.173   2.947   1.332  0.7284  0.2467 -3.4838
 3494TIP3   OH210445   0.062   6.543   4.303 -0.0336  0.1596  0.1505
 3494TIP3    H110446   0.066   6.561   4.209  2.2235  0.8561  0.3179
 3494TIP3    H210447   0.124   6.605   4.342 -1.1270  0.0952  2.1601
 3495TIP3   OH210448   1.825   3.523   2.838  0.0522  0.1324  0.5638
 3495TIP3    H110449   1.900   3.536   2.896  0.0980  0.3858  0.4485
 3495TIP3    H210450   1.749   3.533   2.894  0.0999 -2.2782  1.1562
 3496TIP3   OH210451   6.079   6.544   1.106  0.2852 -0.1552  0.4717
 3496TIP3    H110452   6.009   6.591   1.060  0.7703 -1.2182 -1.4645
 3496TIP3    H210453   6.034   6.499   1.178 -0.6554  0.9161  0.5795
 3497TIP3   OH210454   5.687   6.261   5.678  0.0991 -0.1431  0.1457
 3497TIP3    H110455   5.625   6.307   5.735 -0.5763  1.3810 -1.7067
 3497TIP3    H210456   5.766   6.252   5.732 -0.9569 -0.0983  1.7936
 3498TIP3   OH210457   5.939   5.266   5.352 -0.0305 -0.1665  0.3413
 3498TIP3    H110458   5.881   5.247   5.278 -0.3010 -1.0740  0.7763
 3498TIP3    H210459   6.012   5.205   5.342 -0.3091 -0.6397  1.0772
 3499TIP3   OH210460   6.702   4.354   1.770 -0.1007 -0.4078  0.4362
 3499TIP3    H110461   6.616   4.317   1.750 -0.3877  0.6092 -0.2528
 3499TIP3    H210462   6.764   4.294   1.729 -0.4850 -1.0034  0.7118
 3500TIP3   OH210463   1.610   3.349   4.511 -0.0242  0.0577  0.1630
 3500TIP3    H110464   1.639   3.259   4.497  1.2070  0.3229  0.7991
 3500TIP3    H210465   1.578   3.379   4.426 -0.7837 -1.0834  0.0344
 3501TIP3   OH210466   5.653  -0.004   0.303 -0.0828 -0.0555  0.2009
 3501TIP3    H110467   5.676   0.026   0.215 -0.2667  0.5425  0.3525
 3501TIP3    H210468   5.559   0.014   0.310 -0.8626 -3.0485 -0.6552
 3502TIP3   OH210469   3.391   0.937   4.010 -0.0629  0.7175 -0.2682
 3502TIP3    H110470   3.420   0.848   3.989  0.5168  0.7054  0.5456
 3502TIP3    H210471   3.379   0.937   4.105 -1.0563  1.2254 -0.3772
 3503TIP3   OH210472   3.366   2.689   2.530 -0.4383 -0.0010 -0.2098
 3503TIP3    H110473   3.357   2.594   2.528  0.2478 -0.0795 -2.6360
 3503TIP3    H210474   3.282   2.720   2.564 -0.4529 -1.4524  1.2060
 3504TIP3   OH210475   1.428   1.471   1.624 -0.2905  0.1667 -0.3361
 3504TIP3    H110476   1.335   1.448   1.628  0.0036 -1.1508 -0.5979
 3504TIP3    H210477   1.465   1.438   1.706  0.2770 -1.0012 -1.0322
 3505TIP3   OH210478   4.862   0.779   2.506  0.1272 -0.4543  0.3082
 3505TIP3    H110479   4.914   0.706   2.473 -0.4314  0.1558 -2.1349
 3505TIP3    H210480   4.920   0.855   2.499 -0.0626 -0.2817  0.5767
 3506TIP3   OH210481   1.156   6.599   4.516 -0.1061 -0.3365 -0.3414
 3506TIP3    H110482   1.251   6.600   4.513 -0.0656  1.7543  0.0204
 3506TIP3    H210483   1.129   6.643   4.435 -0.8857 -2.6665 -1.4592
 3507TIP3   OH210484   2.757   6.749   5.592 -0.5409  0.7284 -0.1644
 3507TIP3    H110485   2.845   6.733   5.557 -0.5361  0.9264 -0.2429
 3507TIP3    H210486   2.722   6.821   5.539  0.3334  2.6143  1.6430
 3508TIP3   OH210487   2.599   2.471   1.936 -0.1394  0.0715  0.3034
 3508TIP3    H110488   2.574   2.385   1.901 -0.7033  0.5462 -0.4946
 3508TIP3    H210489   2.582   2.465   2.029 -1.9313 -0.0972 -0.0083
 3509TIP3   OH210490   1.661   3.886   3.392  0.1412  0.5318  0.2286
 3509TIP3    H110491   1.661   3.950   3.464 -0.4588 -1.0163  1.6646
 3509TIP3    H210492   1.598   3.921   3.329  0.5884  1.8649  0.4786
 3510TIP3   OH210493   2.794   3.209   2.074 -0.4022 -0.8017 -0.1569
 3510TIP3    H110494   2.828   3.286   2.028  1.7019 -2.7646 -2.1736
 3510TIP3    H210495   2.700   3.210   2.056 -0.4361  1.1965 -0.1867
 3511TIP3   OH210496   1.217   3.834   5.356  0.4359  0.1988  0.3248
 3511TIP3    H110497   1.296   3.850   5.305  0.6873  0.8585  0.9038
 3511TIP3    H210498   1.249   3.813   5.444  0.0419 -1.6569  0.0746
 3512TIP3   OH210499   6.593   5.157   0.292 -0.1132  0.7666 -0.0225
 3512TIP3    H110500   6.648   5.215   0.239  0.7712 -0.3828 -0.4087
 3512TIP3    H210501   6.554   5.096   0.229  0.0721  0.0831  0.5107
 3513TIP3   OH210502   1.440   2.738   0.491 -0.7249  0.2841 -0.1708
 3513TIP3    H110503   1.420   2.704   0.579  0.4940 -0.3584 -0.1302
 3513TIP3    H210504   1.487   2.820   0.507  0.8575 -0.5904 -0.1705
 3514TIP3   OH210505   4.007   0.364   3.943 -0.0025 -0.2545 -0.2984
 3514TIP3    H110506   4.052   0.341   3.862  2.0310  0.3666  0.5912
 3514TIP3    H210507   3.995   0.280   3.987  0.0475 -0.4620 -0.6692
 3515TIP3   OH210508   4.490   4.794   3.788 -0.0884 -0.1069 -0.4840
 3515TIP3    H110509   4.405   4.821   3.753 -0.4519 -1.1172 -0.4009
 3515TIP3    H210510   4.535   4.756   3.713  0.5671  1.0239 -0.6865
 3516TIP3   OH210511   5.606   3.059   3.212  0.0098  0.8499  0.1253
 3516TIP3    H110512   5.546   3.001   3.165 -0.0301  1.6500 -0.8560
 3516TIP3    H210513   5.693   3.031   3.184  0.0577  0.3851  0.7184
 3517TIP3   OH210514   6.664   5.791   3.518  0.4624  0.8365  0.6638
 3517TIP3    H110515   6.602   5.768   3.449 -0.6460  2.0454  1.2072
 3517TIP3    H210516   6.696   5.707   3.550 -0.2936  0.2066 -0.1705
 3518TIP3   OH210517   1.859   2.773   0.368 -0.1547  0.2868 -0.4743
 3518TIP3    H110518   1.818   2.695   0.405 -0.5594 -0.4703 -2.4076
 3518TIP3    H210519   1.908   2.811   0.441  1.3158 -2.5851  0.1882
 3519TIP3   OH210520   5.913   6.556   3.935 -0.0347 -0.4272 -0.1628
 3519TIP3    H110521   6.006   6.556   3.959  0.0885 -2.8012 -0.3430
 3519TIP3    H210522   5.883   6.469   3.962 -2.0471  0.0639 -0.7155
 3520TIP3   OH210523   1.524   5.598   4.437  0.6598 -0.3977  0.0628
 3520TIP3    H110524   1.486   5.677   4.477 -0.9741 -1.5382  0.9289
 3520TIP3    H210525   1.565   5.553   4.511  1.3015 -0.5199 -0.3688
 3521TIP3   OH210526   0.584   2.857   2.964 -0.0820 -0.2760 -0.1757
 3521TIP3    H110527   0.502   2.906   2.971 -0.1348 -0.5413  1.5907
 3521TIP3    H210528   0.558   2.765   2.969  0.3166 -0.3674  0.2916
 3522TIP3   OH210529   2.895   5.210   3.548 -0.1829  0.0319  0.1050
 3522TIP3    H110530   2.877   5.276   3.481 -1.7789  1.3270  1.7366
 3522TIP3    H210531   2.980   5.236   3.584 -1.6208  2.4420  2.0221
 3523TIP3   OH210532   0.504   5.297   3.650 -0.1178 -0.1596  0.1771
 3523TIP3    H110533   0.444   5.367   3.677 -0.2030 -0.4009  0.6171
 3523TIP3    H210534   0.461   5.256   3.575 -0.2420  0.0248  0.1484
 3524TIP3   OH210535   1.681   0.287   0.240  0.7004  0.1855  0.0575
 3524TIP3    H110536   1.636   0.369   0.221  0.4108 -0.2505 -1.1933
 3524TIP3    H210537   1.737   0.308   0.315  0.8402  1.6013 -0.4094
 3525TIP3   OH210538   2.071   2.583   3.481  0.1626  0.7268  0.3265
 3525TIP3    H110539   2.059   2.675   3.457  1.5240  0.2724 -2.5568
 3525TIP3    H210540   2.163   2.576   3.507 -0.7370  0.7342  4.0517
 3526TIP3   OH210541   4.631   1.591   1.713  0.2789  0.5914  0.2630
 3526TIP3    H110542   4.580   1.531   1.658 -0.7920  1.2589  0.4939
 3526TIP3    H210543   4.577   1.670   1.719  0.5763  0.7056  1.9058
 3527TIP3   OH210544   1.402   2.178   2.620  0.0832  0.1558  0.3862
 3527TIP3    H110545   1.419   2.151   2.710  2.4704 -3.5065 -0.9753
 3527TIP3    H210546   1.309   2.158   2.606  0.4646 -2.4826  1.1442
 3528TIP3   OH210547   1.610   2.818   3.448 -0.3393  0.9976  0.2063
 3528TIP3    H110548   1.671   2.868   3.503 -0.1895  1.0808 -0.0344
 3528TIP3    H210549   1.617   2.728   3.481  1.8208  0.4834 -1.4322
 3529TIP3   OH210550   5.020   2.369   2.306  0.1986  0.0864 -0.2563
 3529TIP3    H110551   5.087   2.421   2.351 -1.4887  1.2176  1.0798
 3529TIP3    H210552   5.063   2.340   2.225  1.8593  1.9033 -0.1187
 3530TIP3   OH210553   5.326   1.804   5.033 -0.3135 -0.4019  0.2676
 3530TIP3    H110554   5.237   1.832   5.053 -0.1230  0.1370  0.3869
 3530TIP3    H210555   5.363   1.876   4.982  0.3362 -0.2324  0.9599
 3531TIP3   OH210556   4.875   1.716   2.926 -0.2576 -0.3460 -0.1207
 3531TIP3    H110557   4.930   1.638   2.923  0.5389  0.2245 -0.6244
 3531TIP3    H210558   4.813   1.704   2.854 -1.0213 -1.1431  0.6514
 3532TIP3   OH210559   1.862   1.738   0.277  0.3685  0.1202  0.0945
 3532TIP3    H110560   1.939   1.793   0.266  0.1927  0.2296 -0.7061
 3532TIP3    H210561   1.863   1.681   0.199  0.8430 -1.3771  1.1509
 3533TIP3   OH210562   3.338   5.521   5.825  0.1100  0.5735 -0.4356
 3533TIP3    H110563   3.373   5.584   5.762 -2.8310  1.5666 -1.2213
 3533TIP3    H210564   3.275   5.572   5.877  1.6295 -0.4700  2.6860
 3534TIP3   OH210565   5.080   5.391   5.738  0.1615 -0.1053 -0.0350
 3534TIP3    H110566   5.030   5.472   5.747 -0.1879 -0.1726 -1.1611
 3534TIP3    H210567   5.033   5.342   5.670 -0.2981 -1.7707  1.4193
 3535TIP3   OH210568   5.769   2.644   4.335 -0.5794 -0.0464  0.0331
 3535TIP3    H110569   5.811   2.713   4.384 -0.6613 -0.1551  0.2572
 3535TIP3    H210570   5.764   2.677   4.245  1.5580 -0.7187 -0.3864
 3536TIP3   OH210571   1.259   2.986   0.121 -0.0954 -0.3825  0.1363
 3536TIP3    H110572   1.241   2.956   0.032 -2.9529 -1.7130  1.0223
 3536TIP3    H210573   1.238   3.080   0.120 -1.0360 -0.5832 -0.4317
 3537TIP3   OH210574   2.284   5.447   0.823 -0.1543  0.1933  0.0563
 3537TIP3    H110575   2.224   5.372   0.816 -1.0934  0.8314  0.9018
 3537TIP3    H210576   2.361   5.412   0.868 -0.0858 -0.5294 -0.6074
 3538TIP3   OH210577   4.735   5.199   4.519  0.2221 -0.4161 -0.2996
 3538TIP3    H110578   4.807   5.173   4.576  0.0468 -1.1947 -0.4213
 3538TIP3    H210579   4.751   5.292   4.501  1.5355 -0.7287 -0.8253
 3539TIP3   OH210580   5.397   5.480   4.301 -0.1144  0.6035  0.3547
 3539TIP3    H110581   5.340   5.508   4.230 -0.9510 -0.4778  0.5619
 3539TIP3    H210582   5.474   5.537   4.295  0.6642 -0.5415 -2.4942
 3540TIP3   OH210583   3.540   6.138   5.178 -0.4375 -0.3890 -0.0292
 3540TIP3    H110584   3.630   6.170   5.183 -0.3507 -0.6973  0.5916
 3540TIP3    H210585   3.486   6.212   5.205 -0.4725  0.2032 -1.6665
 3541TIP3   OH210586   4.708   2.957   1.229 -0.5834 -0.0213  0.4360
 3541TIP3    H110587   4.662   2.879   1.260 -1.5607  0.4165  0.0938
 3541TIP3    H210588   4.777   2.922   1.171 -0.5692 -0.6630  0.8277
 3542TIP3   OH210589   2.576   4.393   1.312  0.1125 -0.2014 -0.2340
 3542TIP3    H110590   2.526   4.376   1.392  1.5776 -1.2073  0.5077
 3542TIP3    H210591   2.519   4.450   1.261 -1.9317 -1.5174  0.4253
 3543TIP3   OH210592   3.802   1.586   5.604 -0.1313 -0.0952  0.3931
 3543TIP3    H110593   3.848   1.669   5.613 -0.2931 -0.0778  1.1235
 3543TIP3    H210594   3.837   1.547   5.524 -0.4388  0.9124 -0.2538
 3544TIP3   OH210595   2.686   0.302   0.501 -0.1564 -0.9040 -0.2171
 3544TIP3    H110596   2.717   0.323   0.589  0.6074 -2.8819  0.0452
 3544TIP3    H210597   2.677   0.206   0.501  1.0314 -1.0968 -2.6537
 3545TIP3   OH210598   2.707   3.194   4.086  0.4145  0.2381  0.5779
 3545TIP3    H110599   2.684   3.119   4.032 -3.4550  0.7562  1.1772
 3545TIP3    H210600   2.678   3.170   4.174  0.7225  1.7418  1.1315
 3546TIP3   OH210601   3.912   0.317   1.941 -0.2497 -0.0728 -0.2123
 3546TIP3    H110602   3.977   0.290   2.005 -0.1031 -0.3612 -0.4807
 3546TIP3    H210603   3.863   0.386   1.984 -0.3660 -0.4931  0.3357
 3547TIP3   OH210604   3.741   0.165   3.162 -0.8567  0.1688 -0.2894
 3547TIP3    H110605   3.676   0.138   3.097 -0.9285 -0.4219  0.0216
 3547TIP3    H210606   3.815   0.196   3.110  0.2900 -3.0053 -0.7673
 3548TIP3   OH210607   2.220   6.579   3.560  0.4037  0.6101 -0.2823
 3548TIP3    H110608   2.214   6.646   3.491 -1.9254  1.4718  0.6749
 3548TIP3    H210609   2.149   6.518   3.542 -0.9031  1.3915  1.8262
 3549TIP3   OH210610   5.919   3.986   2.445 -0.7681 -0.4859 -0.0831
 3549TIP3    H110611   5.916   4.005   2.539  0.9835 -0.8107  0.0839
 3549TIP3    H210612   5.951   4.066   2.405  2.1801 -1.4514  0.0967
 3550TIP3   OH210613   0.345   6.704   4.028  0.6528 -0.4001 -0.3442
 3550TIP3    H110614   0.256   6.678   4.053  0.1542  0.8818 -0.7100
 3550TIP3    H210615   0.339   6.723   3.935  1.6574 -1.6269 -0.6852
 3551TIP3   OH210616   5.204   3.093   3.779 -0.3825  0.4422 -0.2221
 3551TIP3    H110617   5.272   3.122   3.719 -0.4431  0.1476 -0.4311
 3551TIP3    H210618   5.183   3.004   3.752 -1.1212  0.6636 -0.3982
 3552TIP3   OH210619   5.952   3.530   1.505 -0.6664  0.3412 -0.1328
 3552TIP3    H110620   5.863   3.556   1.481 -0.6616 -1.0158 -1.7808
 3552TIP3    H210621   5.983   3.479   1.431  0.8748 -0.6567  1.1378
 3553TIP3   OH210622   4.851   0.939   3.870  0.0890 -0.3863 -0.6513
 3553TIP3    H110623   4.884   1.025   3.897 -1.5746  0.2617 -0.5390
 3553TIP3    H210624   4.835   0.892   3.952  0.0382 -0.4305 -0.6866
 3554TIP3   OH210625   4.547   5.155   2.635 -0.2990  0.0031  0.0701
 3554TIP3    H110626   4.483   5.213   2.677 -1.1542  0.1279 -1.3571
 3554TIP3    H210627   4.529   5.163   2.542  2.4951  0.8287 -0.4902
 3555TIP3   OH210628   6.707   5.956   5.346 -0.0212 -0.2086  0.1858
 3555TIP3    H110629   6.746   5.925   5.264  1.2429  1.4790  0.1001
 3555TIP3    H210630   6.629   6.004   5.318 -0.2817 -0.6909  0.0761
 3556TIP3   OH210631   5.728   1.581   4.604 -0.4901 -0.0042 -0.4721
 3556TIP3    H110632   5.780   1.660   4.619 -1.3212  0.2463  1.3899
 3556TIP3    H210633   5.741   1.528   4.683 -2.0955 -0.4640 -0.4719
 3557TIP3   OH210634   3.647   1.369   5.247 -0.0686 -0.1851 -0.1539
 3557TIP3    H110635   3.612   1.441   5.299  0.7794 -0.7789  1.2986
 3557TIP3    H210636   3.717   1.408   5.196 -1.3546  0.5486 -1.4325
 3558TIP3   OH210637   1.904   4.308   2.625 -0.5696 -0.2787 -0.1182
 3558TIP3    H110638   1.964   4.343   2.559 -0.5890  0.8446  0.4397
 3558TIP3    H210639   1.927   4.216   2.632 -0.0459 -0.2373 -1.1289
 3559TIP3   OH210640   0.188   5.874   5.303 -0.3007 -0.4843 -0.5955
 3559TIP3    H110641   0.202   5.781   5.288  1.5922  0.0194 -2.4082
 3559TIP3    H210642   0.160   5.909   5.219 -0.2655  0.6948 -0.1471
 3560TIP3   OH210643   6.777   1.497   2.441 -0.6273  0.2566  0.0959
 3560TIP3    H110644   6.861   1.464   2.473 -0.4378 -0.9336 -1.4974
 3560TIP3    H210645   6.722   1.503   2.519  0.4952 -0.3303  0.9609
 3561TIP3   OH210646   5.163   2.783   4.641 -0.2712 -0.0911 -0.0657
 3561TIP3    H110647   5.162   2.850   4.573  1.0912  1.6104  1.4605
 3561TIP3    H210648   5.138   2.829   4.721 -0.2794 -1.6499  0.8883
 3562TIP3   OH210649   5.022   1.590   3.263  0.7350  0.5565 -0.3295
 3562TIP3    H110650   4.979   1.506   3.275 -0.5621  0.6841 -3.3056
 3562TIP3    H210651   4.955   1.655   3.282  0.4663  0.8080 -2.0169
 3563TIP3   OH210652   5.427   2.262   5.735  0.6661  0.2043 -0.5928
 3563TIP3    H110653   5.390   2.176   5.752  1.2238  0.2863  1.1950
 3563TIP3    H210654   5.373   2.298   5.665 -1.7262 -0.2361  0.9238
 3564TIP3   OH210655   4.285   5.084   0.039  0.1454  0.2517  0.3772
 3564TIP3    H110656   4.227   5.017   0.005  0.6420 -1.8222  3.2428
 3564TIP3    H210657   4.227   5.145   0.085 -0.0522 -0.0932  0.5923
 3565TIP3   OH210658   2.425   1.991   2.323  0.4638  0.1297 -0.9553
 3565TIP3    H110659   2.392   1.916   2.373 -1.5044  1.3681 -0.2957
 3565TIP3    H210660   2.458   2.052   2.390  1.1234  0.2982 -1.4218
 3566TIP3   OH210661   5.461   0.671   1.559  0.1391 -0.3744 -0.2680
 3566TIP3    H110662   5.531   0.710   1.506  0.2346  0.7491  0.6522
 3566TIP3    H210663   5.496   0.587   1.586  0.6313 -0.3706 -0.8621
 3567TIP3   OH210664   2.357   6.307   0.205  0.3633 -0.3446 -0.1409
 3567TIP3    H110665   2.362   6.238   0.271  1.8517 -0.7605 -0.6377
 3567TIP3    H210666   2.284   6.282   0.148  0.8056 -1.4699 -0.2422
 3568TIP3   OH210667   2.593   6.073   0.923  0.1078  0.2381  0.3752
 3568TIP3    H110668   2.661   6.132   0.954 -0.1400  0.8620 -0.2486
 3568TIP3    H210669   2.512   6.123   0.931 -0.0883  0.0323 -0.2951
 3569TIP3   OH210670   6.319   5.225   3.220 -0.0471 -0.0717 -0.0030
 3569TIP3    H110671   6.225   5.209   3.214  0.2572 -2.0158 -0.2448
 3569TIP3    H210672   6.333   5.257   3.310 -0.6843 -1.8450  0.7578
 3570TIP3   OH210673   2.595   6.166   2.216 -0.0614  0.1947  0.6936
 3570TIP3    H110674   2.605   6.252   2.255  0.4696  0.7390 -0.5879
 3570TIP3    H210675   2.679   6.122   2.231 -0.4137 -0.1940  1.5532
 3571TIP3   OH210676   4.269   4.196   5.318  0.1434 -0.2692 -0.5810
 3571TIP3    H110677   4.225   4.114   5.297  0.3897 -0.5336 -0.0865
 3571TIP3    H210678   4.312   4.179   5.402  1.3835 -0.1070 -1.1562
 3572TIP3   OH210679   4.929   4.561   3.029 -0.0748  0.5933 -0.4829
 3572TIP3    H110680   4.962   4.594   3.113 -0.0350  0.0354 -0.2792
 3572TIP3    H210681   4.911   4.640   2.978  0.9198  0.9204 -0.3473
 3573TIP3   OH210682   2.870   2.816   1.212  0.3887  0.2852 -0.3718
 3573TIP3    H110683   2.931   2.853   1.148  1.3043  2.3893  1.6111
 3573TIP3    H210684   2.793   2.794   1.160  1.7470  0.1918 -2.4868
 3574TIP3   OH210685   3.042   6.148   2.092  0.1400  0.4021  0.2602
 3574TIP3    H110686   2.997   6.116   2.013  1.0352 -1.0428  0.2733
 3574TIP3    H210687   3.042   6.072   2.151  1.6071  0.6919  0.6665
 3575TIP3   OH210688   2.512   1.353   4.215  0.0253  0.4428  0.7691
 3575TIP3    H110689   2.585   1.395   4.171 -2.2028  0.2112 -3.6964
 3575TIP3    H210690   2.508   1.265   4.177 -1.3038 -0.3061  2.4818
 3576TIP3   OH210691   3.549   0.816   3.297  0.2620 -0.4102 -0.4912
 3576TIP3    H110692   3.502   0.879   3.352  2.2078  1.3412 -0.7152
 3576TIP3    H210693   3.490   0.801   3.223  0.2381  2.1812 -1.0769
 3577TIP3   OH210694   7.118   4.818   3.330 -0.1641 -0.0750  0.1610
 3577TIP3    H110695   7.147   4.812   3.239  3.0146  1.2757  0.9766
 3577TIP3    H210696   7.071   4.735   3.345  1.0323 -1.2655 -2.1222
 3578TIP3   OH210697   0.651   3.343   1.593 -0.2421  0.7276  0.1026
 3578TIP3    H110698   0.631   3.308   1.679 -1.1439  0.6148 -0.1451
 3578TIP3    H210699   0.599   3.291   1.532  2.1476 -0.8162 -0.8035
 3579TIP3   OH210700   4.766   1.419   4.101  0.5755  0.1980  0.7375
 3579TIP3    H110701   4.740   1.442   4.012  0.7189 -3.0666 -0.2552
 3579TIP3    H210702   4.862   1.422   4.099  0.5731  0.5162  0.9316
 3580TIP3   OH210703   5.348   5.819   4.214 -0.2295 -0.0736 -0.1679
 3580TIP3    H110704   5.268   5.781   4.178 -0.8362 -0.0872  1.1532
 3580TIP3    H210705   5.409   5.821   4.140 -0.8488 -1.7035 -0.7567
 3581TIP3   OH210706   3.162   3.263   4.135 -0.1514 -0.5521 -0.5002
 3581TIP3    H110707   3.113   3.340   4.165  0.4028 -0.1985 -0.4870
 3581TIP3    H210708   3.100   3.190   4.145 -0.3141 -0.2888  0.5547
 3582TIP3   OH210709   7.144   5.727   2.819 -0.0584 -0.0737 -0.2735
 3582TIP3    H110710   7.053   5.725   2.787 -0.1502 -0.2967  0.0008
 3582TIP3    H210711   7.181   5.806   2.780 -0.2797 -0.1479 -0.6377
 3583TIP3   OH210712   5.066   3.917   1.877  0.3228  1.1121 -0.1816
 3583TIP3    H110713   5.137   3.914   1.941 -0.2132  2.3207  0.5016
 3583TIP3    H210714   5.049   3.825   1.857  1.4976  0.7680  0.2759
 3584TIP3   OH210715   0.596   4.754   3.551 -0.0609 -0.2290 -0.2412
 3584TIP3    H110716   0.503   4.767   3.567 -0.0283 -0.4967  0.1687
 3584TIP3    H210717   0.639   4.772   3.634  0.4874  2.0421 -0.9517
 3585TIP3   OH210718   7.071   6.459   4.763  0.3467  0.1886  0.7812
 3585TIP3    H110719   7.124   6.528   4.722 -0.7128  0.9957  0.7216
 3585TIP3    H210720   7.091   6.466   4.857 -2.0940  2.7755  1.2309
 3586TIP3   OH210721   6.685   3.468   1.368 -0.1359  0.4670  0.3404
 3586TIP3    H110722   6.623   3.474   1.296  1.2494 -2.1002 -1.2227
 3586TIP3    H210723   6.641   3.416   1.435 -1.0602  2.0372  1.0135
 3587TIP3   OH210724   5.601   1.802   1.426 -0.0594  0.0670  0.0335
 3587TIP3    H110725   5.658   1.876   1.406 -0.8319  0.4619 -0.7764
 3587TIP3    H210726   5.534   1.839   1.484 -0.0963 -0.1440  0.1259
 3588TIP3   OH210727   6.375   5.498   0.173 -0.3029  0.4736 -0.3356
 3588TIP3    H110728   6.460   5.542   0.179 -0.7484  1.1407  2.4566
 3588TIP3    H210729   6.319   5.547   0.233 -2.4970 -0.3899 -1.5787
 3589TIP3   OH210730   1.730   0.641   1.426  0.3784  0.1055  0.0130
 3589TIP3    H110731   1.674   0.576   1.385  0.6879  0.0780 -0.3684
 3589TIP3    H210732   1.693   0.653   1.513 -0.6047  0.5672 -0.4599
 3590TIP3   OH210733   0.795   6.143   2.723  0.3812 -0.0942 -0.3778
 3590TIP3    H110734   0.876   6.162   2.676 -0.2706  1.9547 -0.7703
 3590TIP3    H210735   0.820   6.148   2.816  0.1416  4.0331 -0.3760
 3591TIP3   OH210736   3.323   2.274   2.877 -0.2177 -0.1593 -0.1100
 3591TIP3    H110737   3.303   2.236   2.791 -0.8472  0.5384 -0.2814
 3591TIP3    H210738   3.259   2.233   2.936  0.0151 -0.4065 -0.0249
 3592TIP3   OH210739   6.804   1.271   1.202 -0.1803  0.2349  0.0776
 3592TIP3    H110740   6.769   1.356   1.178 -0.1601  0.0173 -0.7386
 3592TIP3    H210741   6.898   1.278   1.184 -0.0658  0.2478  0.6341
 3593TIP3   OH210742   0.734   1.918   3.766  0.1272  0.4920  0.0436
 3593TIP3    H110743   0.677   1.849   3.800 -1.5574  0.6277 -2.2643
 3593TIP3    H210744   0.738   1.982   3.837  0.3420 -1.1413  1.5838
 3594TIP3   OH210745   2.855   5.955   5.211  0.6730 -0.5467 -0.0942
 3594TIP3    H110746   2.808   5.886   5.165  1.6480 -1.4449  0.2263
 3594TIP3    H210747   2.945   5.950   5.178  0.3358  2.0390 -1.7227
 3595TIP3   OH210748   4.643   1.306   2.742  0.2557  0.2217 -0.2251
 3595TIP3    H110749   4.663   1.213   2.728 -1.8863 -0.3740  0.3457
 3595TIP3    H210750   4.684   1.327   2.826  0.9561 -0.1308 -0.4711
 3596TIP3   OH210751   1.467   5.504   2.152  0.2730  0.3523 -0.0794
 3596TIP3    H110752   1.511   5.535   2.231 -0.0958  0.9749 -0.1082
 3596TIP3    H210753   1.532   5.451   2.107  0.3681 -0.3262  0.8289
 3597TIP3   OH210754   2.184   6.042   1.573  0.3063 -0.6622 -0.4179
 3597TIP3    H110755   2.103   6.056   1.623  1.6135  1.4515  1.3304
 3597TIP3    H210756   2.241   5.996   1.635  0.9375 -0.7748 -1.0838
 3598TIP3   OH210757   6.561   3.198   2.452 -0.0956  0.2114  0.0409
 3598TIP3    H110758   6.617   3.221   2.526  0.1725 -2.4678  0.7777
 3598TIP3    H210759   6.486   3.153   2.491 -0.6944  0.0676 -1.2143
 3599TIP3   OH210760   3.137   4.652   1.082  0.4177 -0.3467  0.1299
 3599TIP3    H110761   3.151   4.650   0.987 -0.6131 -0.6384 -0.0255
 3599TIP3    H210762   3.159   4.564   1.112 -0.4554 -0.6206 -0.0227
 3600TIP3   OH210763   3.944   5.824   0.889 -0.1341 -0.2014 -0.2610
 3600TIP3    H110764   3.933   5.919   0.882 -0.6326 -0.3315 -1.5149
 3600TIP3    H210765   3.858   5.788   0.871  0.1657 -0.9182 -0.3111
 3601TIP3   OH210766   3.126   4.024   4.450 -0.2517 -0.1331 -0.8776
 3601TIP3    H110767   3.205   3.990   4.408  0.0122 -1.0906  0.3425
 3601TIP3    H210768   3.156   4.062   4.532 -1.0221 -0.3109 -0.5048
 3602TIP3   OH210769   3.161   5.348   3.492 -0.5852 -0.4438  0.0116
 3602TIP3    H110770   3.148   5.428   3.543 -1.6213 -0.3564 -0.3615
 3602TIP3    H210771   3.254   5.346   3.473  0.0245 -0.9572  2.6703
 3603TIP3   OH210772   6.081   5.449   5.485  0.0873  0.0549  0.2082
 3603TIP3    H110773   6.049   5.539   5.474 -0.7916  0.0839  2.4460
 3603TIP3    H210774   6.011   5.394   5.450  0.0680  0.2227 -0.0201
 3604TIP3   OH210775   1.103   1.333   5.678  0.0996 -0.5856 -0.1053
 3604TIP3    H110776   1.155   1.265   5.721 -0.3285 -0.5898  0.4135
 3604TIP3    H210777   1.153   1.413   5.692  0.9123 -0.8835 -1.2473
 3605TIP3   OH210778   6.236   5.178   0.693  0.0614  0.3023  0.1677
 3605TIP3    H110779   6.282   5.161   0.775 -0.5454 -0.3293  0.3826
 3605TIP3    H210780   6.306   5.196   0.630  0.5851 -0.2287  0.5860
 3606TIP3   OH210781   5.495   3.871   1.305  0.0649 -0.1186  0.0075
 3606TIP3    H110782   5.432   3.923   1.354  0.3812  0.3503 -0.0788
 3606TIP3    H210783   5.503   3.915   1.221 -1.9443 -1.9898 -1.2812
 3607TIP3   OH210784   5.820   5.537   4.621 -0.7289  0.5738 -0.3905
 3607TIP3    H110785   5.746   5.500   4.669 -1.5363  2.3859 -0.1797
 3607TIP3    H210786   5.878   5.571   4.689 -0.4515  0.5670 -0.6189
 3608TIP3   OH210787   5.875   3.839   1.409 -0.0580 -0.3769  0.0982
 3608TIP3    H110788   5.823   3.759   1.416 -1.1940  0.4205  1.0696
 3608TIP3    H210789   5.819   3.908   1.446  1.1507  0.7546 -0.1110
 3609TIP3   OH210790   1.169   3.305   1.076 -0.7735  0.0209  0.2718
 3609TIP3    H110791   1.222   3.226   1.069  0.5340  0.7761  1.1511
 3609TIP3    H210792   1.081   3.273   1.094 -0.4080 -1.2526 -0.1104
 3610TIP3   OH210793   0.240   5.607   5.293  0.0117 -0.4223  0.0761
 3610TIP3    H110794   0.264   5.544   5.225  0.2767  1.7381 -1.9805
 3610TIP3    H210795   0.149   5.585   5.314  0.4825 -2.2382  0.3489
 3611TIP3   OH210796   3.107   6.233   0.540 -0.1408  0.1084  0.2659
 3611TIP3    H110797   3.198   6.203   0.534 -0.2338 -0.6247  2.0491
 3611TIP3    H210798   3.108   6.320   0.499  1.4712  0.3125  0.6790
 3612TIP3   OH210799   5.794   5.699   0.738  0.0851  0.5043  0.3149
 3612TIP3    H110800   5.743   5.666   0.812 -0.3999 -1.2266 -0.7395
 3612TIP3    H210801   5.885   5.680   0.760 -0.0415  0.1688  0.5488
 3613TIP3   OH210802   2.940   6.301   2.475  0.1750  0.2688 -0.6841
 3613TIP3    H110803   2.947   6.209   2.501 -0.8253 -0.7159 -3.5031
 3613TIP3    H210804   3.026   6.321   2.437  0.1153  0.1972 -0.8606
 3614TIP3   OH210805   0.128   3.309   4.994  0.7899  0.0524 -0.0031
 3614TIP3    H110806   0.157   3.327   4.904 -1.6127 -0.2426 -0.9055
 3614TIP3    H210807   0.145   3.391   5.041 -0.7293  1.3474 -1.5404
 3615TIP3   OH210808   4.989   6.119   5.035 -0.1360 -1.1915  0.1476
 3615TIP3    H110809   5.071   6.142   5.077  0.2487 -1.6130 -0.3524
 3615TIP3    H210810   4.976   6.026   5.056  0.1135 -1.4340 -0.7172
 3616TIP3   OH210811   2.825   4.308   0.377 -0.5462  0.1855 -0.4208
 3616TIP3    H110812   2.733   4.288   0.362 -0.2788 -2.1220  0.4960
 3616TIP3    H210813   2.825   4.370   0.450 -1.3763 -0.3842  0.0807
 3617TIP3   OH210814   5.733   2.481   4.566  0.6532  0.0761  0.3897
 3617TIP3    H110815   5.718   2.529   4.484  0.6245 -1.3770 -0.4931
 3617TIP3    H210816   5.824   2.500   4.588  1.1678 -0.7827 -0.8832
 3618TIP3   OH210817   6.471   4.087   2.312  0.1401  0.4254  0.5820
 3618TIP3    H110818   6.529   4.163   2.307  2.6613 -1.4071 -0.4703
 3618TIP3    H210819   6.512   4.030   2.378 -0.6204 -0.7902  0.0508
 3619TIP3   OH210820   6.253   5.086   3.808  0.6976  0.3419  0.0239
 3619TIP3    H110821   6.206   5.144   3.868 -0.8265 -1.5322  0.7721
 3619TIP3    H210822   6.191   5.070   3.737  1.2855  0.0130 -0.4211
 3620TIP3   OH210823   0.230   6.196   4.919 -0.2357  0.1970 -0.4493
 3620TIP3    H110824   0.153   6.206   4.863 -0.4040  1.1640 -0.0603
 3620TIP3    H210825   0.204   6.235   5.002 -0.0287 -1.3398  0.3579
 3621TIP3   OH210826   6.373   6.438   4.390 -0.0072  0.5915 -0.3241
 3621TIP3    H110827   6.416   6.451   4.305  0.4864 -0.4417 -0.2533
 3621TIP3    H210828   6.420   6.364   4.429 -0.7501  0.5435  0.5039
 3622TIP3   OH210829   4.206   2.744   5.031  0.1978  0.2785 -0.3072
 3622TIP3    H110830   4.225   2.768   5.122  0.0847 -0.1615 -0.1677
 3622TIP3    H210831   4.132   2.800   5.007 -0.5593 -0.4573  0.2651
 3623TIP3   OH210832   4.814   3.567   2.422 -0.7089  0.4025  0.4687
 3623TIP3    H110833   4.838   3.565   2.329 -2.5203 -1.1652 -0.0290
 3623TIP3    H210834   4.897   3.553   2.468 -0.1917 -2.0471 -1.0415
 3624TIP3   OH210835   4.862   3.182   5.854 -0.0160  0.1697  0.2256
 3624TIP3    H110836   4.849   3.277   5.860 -0.0584  0.1513  0.4553
 3624TIP3    H210837   4.925   3.162   5.924  0.8373  0.1826 -0.5316
 3625TIP3   OH210838   6.338   4.433   2.193  0.1375 -0.4587 -0.6806
 3625TIP3    H110839   6.386   4.507   2.229 -1.5636  0.6606 -0.5612
 3625TIP3    H210840   6.281   4.404   2.264 -0.3844 -0.8250 -1.2325
 3626TIP3   OH210841   3.167   3.831   1.680 -0.0908 -0.3695 -0.2682
 3626TIP3    H110842   3.096   3.894   1.690 -0.9899 -1.4227  0.2228
 3626TIP3    H210843   3.218   3.840   1.761  0.1777  0.1807 -0.4924
 3627TIP3   OH210844   4.550   3.107   4.603 -0.2187 -0.2641  0.5602
 3627TIP3    H110845   4.466   3.062   4.612 -0.5527  0.1918 -0.1932
 3627TIP3    H210846   4.606   3.047   4.554 -0.2240 -0.4172  0.7425
 3628TIP3   OH210847   5.449   0.456   3.716  0.1484 -0.1421  0.3413
 3628TIP3    H110848   5.538   0.470   3.686 -0.3407  0.5273 -0.8599
 3628TIP3    H210849   5.433   0.362   3.704 -0.0758  0.1290 -1.6780
 3629TIP3   OH210850   4.241   1.241   1.292 -0.1291 -0.2344 -0.2292
 3629TIP3    H110851   4.213   1.309   1.353  1.5291  1.3701 -1.1445
 3629TIP3    H210852   4.178   1.170   1.304 -0.4508  0.4015  2.6094
 3630TIP3   OH210853   0.847   0.095   2.885  0.4640  0.4264 -0.8519
 3630TIP3    H110854   0.904   0.128   2.815 -0.7522 -0.2427 -2.2075
 3630TIP3    H210855   0.855  -0.000   2.880  0.4882  0.3689  0.0473
 3631TIP3   OH210856   3.901   4.920   2.844 -0.2389  0.2099  0.2243
 3631TIP3    H110857   3.970   4.880   2.791 -0.1217  0.7160 -0.0112
 3631TIP3    H210858   3.945   4.989   2.893 -0.5509  0.4555  0.1630
 3632TIP3   OH210859   1.947   4.134   1.534  0.0835 -0.3287 -0.2933
 3632TIP3    H110860   1.888   4.209   1.528  0.0322 -0.2775  0.6434
 3632TIP3    H210861   2.014   4.162   1.597  0.3910 -0.8541 -0.3814
 3633TIP3   OH210862   5.603   5.760   1.098  0.7579  0.4297  0.6902
 3633TIP3    H110863   5.629   5.844   1.060 -2.4874  1.3981  0.2887
 3633TIP3    H210864   5.615   5.772   1.192  1.1558  1.0141  0.5711
 3634TIP3   OH210865   0.807   5.531   2.201 -0.1655 -0.7393 -0.2526
 3634TIP3    H110866   0.883   5.578   2.235 -0.3964  0.8725 -1.8216
 3634TIP3    H210867   0.741   5.541   2.269  0.1193  0.3999 -0.1186
 3635TIP3   OH210868   5.113   0.984   0.924 -0.4077  0.1111 -0.5419
 3635TIP3    H110869   5.059   1.031   0.861 -1.8937  0.6577  1.0505
 3635TIP3    H210870   5.062   0.906   0.946  0.4539 -0.4804 -0.5991
 3636TIP3   OH210871   0.138   0.993   1.064  0.4269 -0.8853 -0.6268
 3636TIP3    H110872   0.075   0.989   1.136  0.5627  1.8800 -0.2400
 3636TIP3    H210873   0.208   0.933   1.089  0.9169  0.6774  2.0683
 3637TIP3   OH210874   2.164   0.209   1.506 -0.0433 -0.2108  0.5850
 3637TIP3    H110875   2.084   0.242   1.465  0.2842  2.6583  2.0675
 3637TIP3    H210876   2.229   0.277   1.489  1.1884 -0.9232  2.2713
 3638TIP3   OH210877   3.922   5.940   4.449 -0.4444 -0.5659  0.4576
 3638TIP3    H110878   3.933   6.031   4.421  0.4401 -1.4021 -2.2417
 3638TIP3    H210879   3.838   5.913   4.411  0.3604 -1.4871 -0.7265
 3639TIP3   OH210880   5.102   0.803   4.314 -0.0355  0.7952 -0.0407
 3639TIP3    H110881   5.036   0.815   4.245  0.1316 -0.9226 -0.5306
 3639TIP3    H210882   5.184   0.829   4.273 -0.3512  3.1438  0.6337
 3640TIP3   OH210883   5.244   1.104   4.014  0.3619 -0.1321  0.3343
 3640TIP3    H110884   5.253   1.009   4.003  1.6671 -0.1282  1.2161
 3640TIP3    H210885   5.256   1.119   4.108 -0.1275  0.8844  0.2478
 3641TIP3   OH210886   2.000   1.853   2.331  0.2110  0.5179 -0.7046
 3641TIP3    H110887   2.078   1.801   2.350  0.1507  0.7427  0.2056
 3641TIP3    H210888   2.031   1.922   2.272  0.1854 -0.8256 -2.3589
 3642TIP3   OH210889   2.668   6.025   1.219  0.0553  0.4291  0.2379
 3642TIP3    H110890   2.708   6.011   1.134  0.7392  0.8430  0.4794
 3642TIP3    H210891   2.725   5.978   1.281 -0.0610  0.6703  0.5338
 3643TIP3   OH210892   5.860   5.893   4.513  0.1223 -0.2669 -0.1878
 3643TIP3    H110893   5.901   5.977   4.495 -1.3630  0.6387  0.4681
 3643TIP3    H210894   5.896   5.865   4.597 -0.6552  0.5867  0.4518
 3644TIP3   OH210895   1.748   3.283   2.473  0.4521 -0.7171 -0.0120
 3644TIP3    H110896   1.718   3.227   2.401  1.8838  0.1451 -1.3546
 3644TIP3    H210897   1.749   3.371   2.435  1.7396 -0.3183  0.8900
 3645TIP3   OH210898   1.905   2.061   3.672  0.9108 -0.0748 -0.4395
 3645TIP3    H110899   1.963   2.101   3.736  0.3371 -0.2383  0.1976
 3645TIP3    H210900   1.903   2.123   3.599 -0.2753  1.2788  0.6914
 3646TIP3   OH210901   2.905   0.654   4.797  0.3703 -0.0393 -0.8251
 3646TIP3    H110902   2.949   0.725   4.749  1.3510  0.3358  0.5805
 3646TIP3    H210903   2.925   0.576   4.746 -0.1430  0.5701 -2.0162
 3647TIP3   OH210904   3.910   4.579   0.250  0.3458  0.5046  1.0549
 3647TIP3    H110905   3.916   4.486   0.273  0.5828  0.4938  0.9497
 3647TIP3    H210906   3.997   4.614   0.268  0.7497  0.3430 -0.5126
 3648TIP3   OH210907   1.920   0.044   1.739  0.4771  0.7058 -0.0282
 3648TIP3    H110908   1.910   0.036   1.644 -0.7559 -1.8226  0.2183
 3648TIP3    H210909   1.902  -0.044   1.772  0.9263  1.5019  2.5628
 3649TIP3   OH210910   4.682   0.370   1.382  0.1138  0.4185 -0.0952
 3649TIP3    H110911   4.669   0.456   1.421 -0.2421 -0.1411  1.0636
 3649TIP3    H210912   4.771   0.345   1.406  0.5447  0.8297 -1.2011
 3650TIP3   OH210913   5.064   4.375   1.917  0.5339  0.4665  0.4067
 3650TIP3    H110914   5.043   4.464   1.888  1.4491  1.2658  2.0667
 3650TIP3    H210915   5.010   4.361   1.995  0.4557 -0.4159  0.2081
 3651TIP3   OH210916   0.912   0.345   5.572 -0.4649 -1.2183 -0.0570
 3651TIP3    H110917   0.921   0.400   5.650  0.0524  0.3150 -1.1496
 3651TIP3    H210918   0.829   0.374   5.533  0.4137 -0.2919 -1.3045
 3652TIP3   OH210919   1.416   0.772   5.621  0.0356 -0.1454 -0.0027
 3652TIP3    H110920   1.323   0.792   5.629 -0.0201 -0.7654  1.1857
 3652TIP3    H210921   1.447   0.829   5.550 -1.4347 -0.6724 -1.1043
 3653TIP3   OH210922   6.338   0.825   3.131  0.0337  0.2348  0.5919
 3653TIP3    H110923   6.291   0.754   3.088  1.4667  0.9956 -2.4898
 3653TIP3    H210924   6.430   0.800   3.124  0.4292  1.3576  1.4877
 3654TIP3   OH210925   7.118   0.726   0.636 -0.1202 -0.3448 -1.0234
 3654TIP3    H110926   7.132   0.766   0.550  2.0050  1.1930 -0.0514
 3654TIP3    H210927   7.195   0.670   0.648  1.6210  2.2561  1.2876
 3655TIP3   OH210928   5.157   0.524   1.102  0.0559 -0.7061 -0.1454
 3655TIP3    H110929   5.210   0.594   1.064 -1.5762  0.9878  0.5624
 3655TIP3    H210930   5.113   0.484   1.026 -2.3039  1.9072 -0.3155
 3656TIP3   OH210931   6.077   2.662   1.454  0.7090  0.8097 -0.2616
 3656TIP3    H110932   5.989   2.699   1.453 -0.2590 -1.3384 -0.9573
 3656TIP3    H210933   6.087   2.621   1.368  1.9931  0.1541  0.1711
 3657TIP3   OH210934   6.400   4.008   0.367 -0.5842  0.2088 -0.3842
 3657TIP3    H110935   6.411   3.950   0.291  0.7536  0.0290 -0.0674
 3657TIP3    H210936   6.355   4.085   0.332 -4.7385 -1.9430 -0.3760
 3658TIP3   OH210937   0.368   4.357   4.125  0.2327 -0.6525 -0.1011
 3658TIP3    H110938   0.325   4.272   4.115 -0.1040 -0.5612  0.5206
 3658TIP3    H210939   0.413   4.371   4.042 -1.4209 -0.4709 -1.0092
 3659TIP3   OH210940   1.102   2.881   2.647 -0.0736 -0.2458 -0.3261
 3659TIP3    H110941   1.170   2.869   2.581 -0.0193  1.2351 -0.5709
 3659TIP3    H210942   1.064   2.794   2.659  1.5452 -1.0067 -0.5111
 3660TIP3   OH210943   4.215   4.767   5.444 -0.1550 -0.1059 -0.1501
 3660TIP3    H110944   4.246   4.740   5.357 -0.7160 -0.7221 -0.1643
 3660TIP3    H210945   4.276   4.836   5.470 -0.5768  0.8221 -1.4792
 3661TIP3   OH210946   0.494   5.191   2.387  0.1559 -0.2825 -0.4857
 3661TIP3    H110947   0.559   5.256   2.412 -0.5231  0.6464 -1.0857
 3661TIP3    H210948   0.442   5.177   2.467  0.8725 -0.7892 -0.0983
 3662TIP3   OH210949   3.147   3.137   1.573 -0.2233 -0.3260  0.2895
 3662TIP3    H110950   3.133   3.043   1.577  1.4149 -0.6632 -0.8590
 3662TIP3    H210951   3.241   3.147   1.556 -0.0957  1.5488  1.7368
 3663TIP3   OH210952   6.246   5.073   2.804 -0.4894 -0.4076  0.2540
 3663TIP3    H110953   6.178   5.080   2.737 -0.6647  0.1487  0.4818
 3663TIP3    H210954   6.322   5.040   2.757 -1.1999 -2.0310  0.1952
 3664TIP3   OH210955   6.357   2.737   3.462  0.3575  0.1422  0.7758
 3664TIP3    H110956   6.376   2.647   3.487  0.0795 -0.5739 -1.3989
 3664TIP3    H210957   6.315   2.775   3.539 -0.3350 -1.8628  1.4383
 3665TIP3   OH210958   3.798   6.183   5.166 -0.1536  0.4121 -0.0354
 3665TIP3    H110959   3.888   6.208   5.189  0.2745 -0.0523 -1.0865
 3665TIP3    H210960   3.804   6.089   5.149 -0.4418  0.6533 -1.7264
 3666TIP3   OH210961   3.154   5.621   3.983  0.5411  0.0958  0.5105
 3666TIP3    H110962   3.071   5.657   3.953 -0.0709 -1.5693  0.0467
 3666TIP3    H210963   3.130   5.543   4.033  1.8243 -1.7475 -1.5334
 3667TIP3   OH210964   3.374   6.363   4.732  0.2293  0.3195  0.4906
 3667TIP3    H110965   3.354   6.280   4.689  0.0952  0.4946  0.2097
 3667TIP3    H210966   3.306   6.423   4.701 -2.5278 -0.5468  4.2296
 3668TIP3   OH210967   2.179   1.006   2.705  0.0157 -0.0031 -0.7045
 3668TIP3    H110968   2.138   0.996   2.791 -2.1439  0.3910 -1.6244
 3668TIP3    H210969   2.200   0.917   2.679 -0.1487 -0.2140 -0.1492
 3669TIP3   OH210970   0.317   1.565   3.587 -0.3136 -0.1849 -0.3453
 3669TIP3    H110971   0.408   1.585   3.567 -1.0345  1.8258 -2.0132
 3669TIP3    H210972   0.292   1.629   3.653 -0.4483 -0.9773  0.3959
 3670TIP3   OH210973   6.087   3.833   0.071 -0.2101 -0.1218 -0.0929
 3670TIP3    H110974   6.168   3.883   0.062 -0.4914  0.3155 -0.2415
 3670TIP3    H210975   6.035   3.883   0.134  0.3355 -1.3202  1.3940
 3671TIP3   OH210976   6.304   2.582   5.148  0.1967 -0.4148  0.1360
 3671TIP3    H110977   6.285   2.513   5.212  2.2106  1.0228  2.4838
 3671TIP3    H210978   6.252   2.657   5.178  0.9437  0.1950 -0.0497
 3672TIP3   OH210979   0.177   2.709   5.464 -0.2357 -0.6675 -0.2445
 3672TIP3    H110980   0.269   2.732   5.476 -0.2890  0.2699 -1.5189
 3672TIP3    H210981   0.151   2.672   5.549  0.6841  1.1685  0.8962
 3673TIP3   OH210982   3.441   2.275   3.362 -0.3529 -0.1197 -0.1560
 3673TIP3    H110983   3.512   2.217   3.391  0.2307  0.4393 -0.4303
 3673TIP3    H210984   3.482   2.361   3.355 -0.8665  0.0709 -1.0679
 3674TIP3   OH210985   2.953   0.528   5.763  0.4803 -0.2042  0.3258
 3674TIP3    H110986   2.985   0.483   5.841  0.8935 -0.6264 -0.0843
 3674TIP3    H210987   2.897   0.598   5.797  0.0924 -0.8166  0.9792
 3675TIP3   OH210988   5.753   1.196   3.060 -0.1758 -0.8727  0.6206
 3675TIP3    H110989   5.796   1.149   2.989  1.9302  1.5289  0.1283
 3675TIP3    H210990   5.809   1.180   3.136  0.7978  0.9240  0.3629
 3676TIP3   OH210991   0.145   1.833   4.013 -0.0923 -0.3764 -0.1405
 3676TIP3    H110992   0.120   1.924   4.028  0.0856 -0.1402 -1.1843
 3676TIP3    H210993   0.092   1.783   4.075  0.1901  0.4721  0.8075
 3677TIP3   OH210994   7.041   2.045   2.863  0.3803 -0.3706  0.0917
 3677TIP3    H110995   7.015   2.134   2.839  0.6099 -0.3527 -0.0871
 3677TIP3    H210996   7.013   2.036   2.954 -0.5332 -0.4512 -0.1797
 3678TIP3   OH210997   4.492   5.217   2.981 -0.0089 -0.0737 -0.5210
 3678TIP3    H110998   4.483   5.309   3.008 -2.5887 -0.3516 -0.2589
 3678TIP3    H210999   4.407   5.178   2.999  1.5111 -2.9924  0.9869
 3679TIP3   OH211000   3.773   0.208   1.263 -0.5086  0.1224  0.3445
 3679TIP3    H111001   3.837   0.271   1.296 -0.7571  0.3793  0.3417
 3679TIP3    H211002   3.755   0.151   1.338  1.3834 -1.3700 -0.2361
 3680TIP3   OH211003   5.824   1.643   0.880 -0.3074  0.0932 -0.0184
 3680TIP3    H111004   5.857   1.609   0.964 -1.4175 -2.1786 -0.4029
 3680TIP3    H211005   5.729   1.631   0.886 -0.5383  1.3052 -1.0297
 3681TIP3   OH211006   1.127   6.684   4.916 -0.3405 -0.0470  0.1483
 3681TIP3    H111007   1.034   6.661   4.920 -0.3437 -0.1645 -0.5395
 3681TIP3    H211008   1.165   6.620   4.856  0.6102 -1.3700  2.0491
 3682TIP3   OH211009   6.031   4.076   1.609  0.2276  0.7237  0.8113
 3682TIP3    H111010   6.069   3.989   1.600 -0.9469  0.3070 -0.4415
 3682TIP3    H211011   5.937   4.061   1.618  0.1854  1.7832  2.5396
 3683TIP3   OH211012   0.603   1.344   2.792  0.1406  0.4176  0.0826
 3683TIP3    H111013   0.647   1.376   2.871  1.4962  0.6094 -0.7210
 3683TIP3    H211014   0.632   1.253   2.784 -1.8014 -0.3460  1.0287
 3684TIP3   OH211015   5.664   1.129   0.314 -0.8127 -0.4586 -0.2154
 3684TIP3    H111016   5.677   1.120   0.408 -0.4090  0.4254 -0.1764
 3684TIP3    H211017   5.720   1.203   0.289 -3.0828  1.2132 -0.6422
 3685TIP3   OH211018   6.865   0.251   1.157 -0.9258  0.9734 -0.1427
 3685TIP3    H111019   6.952   0.245   1.117 -0.0514  1.2638  1.6413
 3685TIP3    H211020   6.836   0.160   1.167 -0.9634  0.8841 -0.9728
 3686TIP3   OH211021   6.894   3.181   4.516  0.1722  0.3929  0.0779
 3686TIP3    H111022   6.939   3.142   4.591 -0.0650 -0.9690 -0.4628
 3686TIP3    H211023   6.801   3.167   4.533 -0.0150  1.8117  0.4312
 3687TIP3   OH211024   5.644   0.739   1.379 -0.0867 -0.1485 -0.1729
 3687TIP3    H111025   5.673   0.830   1.386 -1.4629  0.2958 -0.0163
 3687TIP3    H211026   5.694   0.704   1.305  0.6894  0.6328 -0.0412
 3688TIP3   OH211027   6.585   1.711   1.992  0.1368 -0.3089 -0.2066
 3688TIP3    H111028   6.565   1.637   2.049 -0.2644  0.3230  0.4952
 3688TIP3    H211029   6.571   1.788   2.047  1.0774  0.2792 -0.7561
 3689TIP3   OH211030   1.905   5.076   0.652 -0.0623  0.3772  0.6818
 3689TIP3    H111031   1.853   5.155   0.660 -2.1077 -0.2433 -3.6110
 3689TIP3    H211032   1.857   5.010   0.703  0.3418  1.2607  2.2726
 3690TIP3   OH211033   1.890   3.733   0.928 -0.2975  0.5058  0.4866
 3690TIP3    H111034   1.877   3.756   1.020 -1.2576 -2.0831  1.0951
 3690TIP3    H211035   1.847   3.648   0.918 -1.9914  1.5253 -2.8481
 3691TIP3   OH211036   2.748   3.997   3.662 -0.5088  0.0035 -0.0971
 3691TIP3    H111037   2.653   4.008   3.659 -0.8671 -1.4281  2.9355
 3691TIP3    H211038   2.770   3.963   3.575 -2.6382  1.0166 -1.1098
 3692TIP3   OH211039   5.835   4.846   3.244  0.1764 -0.3027  0.0806
 3692TIP3    H111040   5.801   4.758   3.257  1.0010 -0.3765  2.1613
 3692TIP3    H211041   5.766   4.893   3.198 -0.6693 -1.7599 -0.1734
 3693TIP3   OH211042   1.821   0.469   5.248  0.0187 -0.3730  0.1332
 3693TIP3    H111043   1.741   0.477   5.299  0.2670 -0.6430  0.5647
 3693TIP3    H211044   1.890   0.452   5.312  0.6023  0.9089 -0.1199
 3694TIP3   OH211045   1.516   2.784   3.149  0.0109  0.2118  0.0486
 3694TIP3    H111046   1.523   2.802   3.243 -0.9673  0.7436  0.0335
 3694TIP3    H211047   1.557   2.698   3.138  2.1721  1.1094  0.5764
 3695TIP3   OH211048   0.212   4.076   5.061 -0.4350  0.0094 -0.7716
 3695TIP3    H111049   0.121   4.106   5.065 -1.8304 -3.5117 -1.8321
 3695TIP3    H211050   0.213   4.013   4.989  2.6591 -0.7112 -0.2353
 3696TIP3   OH211051   5.314   6.466   1.229  0.7552  0.1887  0.2858
 3696TIP3    H111052   5.296   6.404   1.158  1.6707 -0.2333  0.4087
 3696TIP3    H211053   5.344   6.545   1.184  1.3053 -0.0678  0.1888
 3697TIP3   OH211054   5.071   2.519   3.787  0.0611 -0.1146  0.3422
 3697TIP3    H111055   4.999   2.576   3.815  0.8408  1.3109 -0.4444
 3697TIP3    H211056   5.075   2.530   3.692  0.5403 -1.1305  0.2336
 3698TIP3   OH211057   5.019   6.579   3.392  0.2707  0.1044  0.4348
 3698TIP3    H111058   4.994   6.553   3.303  1.8390  0.8318 -0.2445
 3698TIP3    H211059   5.036   6.496   3.437  1.3488 -0.2154 -0.5286
 3699TIP3   OH211060   3.398   3.216   4.786  0.4653  0.4339  0.4040
 3699TIP3    H111061   3.316   3.237   4.741 -0.1435 -1.2377  0.6892
 3699TIP3    H211062   3.408   3.287   4.850 -0.0611  1.3580 -0.4995
 3700TIP3   OH211063   0.113   2.826   4.312 -0.0461 -0.2050 -0.7993
 3700TIP3    H111064   0.059   2.824   4.391 -1.6519 -0.1350 -1.8417
 3700TIP3    H211065   0.185   2.885   4.333 -0.3270 -0.3597  0.6736
 3701TIP3   OH211066   6.859   0.030   2.860  0.0888 -1.0268  0.2522
 3701TIP3    H111067   6.807  -0.019   2.796  0.2902 -0.3133 -0.4740
 3701TIP3    H211068   6.946   0.035   2.820 -0.3190  1.2880 -0.4627
 3702TIP3   OH211069   6.205   5.880   5.428  0.0576 -0.2087 -0.0414
 3702TIP3    H111070   6.276   5.837   5.476  0.0518  0.2811  0.4123
 3702TIP3    H211071   6.239   5.967   5.408 -1.1644  0.8099  2.0289
 3703TIP3   OH211072   5.433   5.312   5.345 -0.4449  0.2302  0.0978
 3703TIP3    H111073   5.514   5.284   5.389 -0.9029 -0.6048  0.4333
 3703TIP3    H211074   5.416   5.242   5.282 -0.9968  0.3164  0.1523
 3704TIP3   OH211075   1.099   2.072   2.376  0.4888 -0.2183 -0.5520
 3704TIP3    H111076   1.077   2.067   2.283 -1.3190 -2.0880 -0.0961
 3704TIP3    H211077   1.187   2.034   2.382  0.4455 -0.4857 -1.4439
 3705TIP3   OH211078   1.743   2.598   3.536  0.3009 -0.0958  0.3555
 3705TIP3    H111079   1.784   2.555   3.460 -0.4177  2.8123 -1.8593
 3705TIP3    H211080   1.813   2.652   3.573  0.0678  0.1530  0.4277
 3706TIP3   OH211081   2.949   6.292   0.294  0.3005  0.3670  0.8337
 3706TIP3    H111082   2.881   6.227   0.312  1.4275 -1.6799 -1.5658
 3706TIP3    H211083   2.902   6.373   0.278 -1.4332 -0.5610  1.0432
 3707TIP3   OH211084   0.320   2.443   2.378 -0.1857 -0.2841 -0.1021
 3707TIP3    H111085   0.326   2.515   2.315 -1.8964  0.8935  1.0118
 3707TIP3    H211086   0.297   2.366   2.325  0.4323  0.2357 -1.1508
 3708TIP3   OH211087   1.047   0.662   5.285  0.2570 -0.0173 -0.7817
 3708TIP3    H111088   0.966   0.639   5.239  0.2755  2.0726 -1.9876
 3708TIP3    H211089   1.070   0.749   5.251  2.4090 -0.0751  0.3537
 3709TIP3   OH211090   1.085   1.012   5.291 -0.2572  0.3384 -0.2315
 3709TIP3    H111091   1.014   1.064   5.254  0.5929  0.0588 -2.4066
 3709TIP3    H211092   1.120   0.962   5.217  1.5042 -0.3369  0.9790
 3710TIP3   OH211093   5.268   4.821   5.352 -0.2108 -0.0260 -0.0970
 3710TIP3    H111094   5.338   4.780   5.403  0.7274  0.1468 -1.2342
 3710TIP3    H211095   5.190   4.770   5.376  0.3159 -0.3709  1.0070
 3711TIP3   OH211096   2.156   0.430   4.434 -0.1926 -0.1520 -0.4843
 3711TIP3    H111097   2.110   0.400   4.356 -3.1152  3.1414 -0.3252
 3711TIP3    H211098   2.247   0.441   4.407 -1.3775  2.5862 -4.1339
 3712TIP3   OH211099   3.594   4.122   1.578 -0.2127  0.1752  0.4747
 3712TIP3    H111100   3.507   4.131   1.540  0.2391 -1.3695 -1.0791
 3712TIP3    H211101   3.654   4.128   1.504  0.9478  0.3748  1.3976
 3713TIP3   OH211102   6.750   3.845   4.238 -0.6534  0.6233 -0.4079
 3713TIP3    H111103   6.823   3.885   4.190  0.5300  0.5888  1.2493
 3713TIP3    H211104   6.673   3.891   4.206  0.0836  0.7348 -2.1510
 3714TIP3   OH211105   6.643   4.875   5.390  0.2975  0.5042  0.2215
 3714TIP3    H111106   6.662   4.926   5.469  1.1183  1.0106 -0.2970
 3714TIP3    H211107   6.715   4.895   5.330 -0.8229  0.8583 -1.0263
 3715TIP3   OH211108   3.170   3.520   2.578 -0.2039 -0.4741  0.0616
 3715TIP3    H111109   3.163   3.597   2.634 -1.2220 -1.7840  1.8297
 3715TIP3    H211110   3.133   3.548   2.494  1.1732  1.4652  0.0278
 3716TIP3   OH211111   2.668   4.311   3.170 -0.4998 -0.1753  0.5210
 3716TIP3    H111112   2.736   4.375   3.191 -0.3420  0.0342 -0.5556
 3716TIP3    H211113   2.713   4.244   3.119 -0.9695 -0.3456  0.3220
 3717TIP3   OH211114   5.884   6.391   1.243  0.7973  0.2823  0.4828
 3717TIP3    H111115   5.803   6.361   1.283  0.8864  1.0928  1.3187
 3717TIP3    H211116   5.877   6.365   1.151 -1.3101  2.0828  0.0534
 3718TIP3   OH211117   4.167   1.787   2.623  0.3956 -0.0612 -0.0667
 3718TIP3    H111118   4.212   1.729   2.562 -0.9711 -0.4476 -0.7373
 3718TIP3    H211119   4.076   1.757   2.622 -0.2953  1.9247 -0.2251
 3719TIP3   OH211120   4.949   5.615   4.365 -0.1574  0.2526 -0.4822
 3719TIP3    H111121   4.951   5.669   4.286 -0.6654  2.7946  1.1444
 3719TIP3    H211122   5.034   5.629   4.407 -1.6365  3.1036  1.9268
 3720TIP3   OH211123   0.678   1.901   1.039 -0.3972  0.3042 -0.4163
 3720TIP3    H111124   0.603   1.900   0.980  0.3861  0.8540 -1.4655
 3720TIP3    H211125   0.754   1.888   0.982  0.4304  1.3373  0.3941
 3721TIP3   OH211126   1.890   2.256   0.153  0.0358 -0.0050 -0.5545
 3721TIP3    H111127   1.816   2.316   0.151 -1.1381 -1.3468  0.3300
 3721TIP3    H211128   1.943   2.279   0.077 -1.2149  1.0814 -1.1222
 3722TIP3   OH211129   1.367   3.527   4.040 -0.6625  0.0123 -0.0654
 3722TIP3    H111130   1.436   3.582   4.002 -1.3176  1.3338  0.6055
 3722TIP3    H211131   1.358   3.454   3.978 -0.3045  1.0459 -1.3827
 3723TIP3   OH211132   1.555   5.556   3.914 -0.2344  0.3736  0.3159
 3723TIP3    H111133   1.507   5.477   3.939 -1.6319  0.8364 -0.7914
 3723TIP3    H211134   1.587   5.592   3.996  0.8057 -1.5428  0.8283
 3724TIP3   OH211135   4.355   6.784   1.200  0.1414 -0.0914  0.0080
 3724TIP3    H111136   4.313   6.813   1.282  1.3673  1.0986  0.2478
 3724TIP3    H211137   4.292   6.722   1.162 -2.3164  2.3249 -0.1567
 3725TIP3   OH211138   4.797   5.092   2.342  0.1764  0.0064  0.3536
 3725TIP3    H111139   4.831   5.118   2.256 -1.3500 -1.1735 -0.6684
 3725TIP3    H211140   4.702   5.107   2.336  0.2571  1.9975  2.6530
 3726TIP3   OH211141   5.486   6.576   3.654  0.3022 -0.0241  0.5823
 3726TIP3    H111142   5.555   6.642   3.645  1.0068 -0.8298 -0.0665
 3726TIP3    H211143   5.526   6.506   3.705  0.2792 -0.8913 -0.5404
 3727TIP3   OH211144   1.461   5.087   5.406  0.4442  0.0419  0.4000
 3727TIP3    H111145   1.474   5.123   5.318 -0.4699 -1.9499 -0.6329
 3727TIP3    H211146   1.519   5.010   5.409 -0.2678 -0.4811  1.1544
 3728TIP3   OH211147   3.713   2.854   2.168 -0.6082  0.1527  0.0282
 3728TIP3    H111148   3.637   2.851   2.226 -0.6775 -0.4757 -0.0904
 3728TIP3    H211149   3.709   2.773   2.118  0.9527 -0.5921  1.0483
 3729TIP3   OH211150   1.109   5.698   3.645 -0.0526  0.4965 -0.1248
 3729TIP3    H111151   1.066   5.769   3.597 -0.9016 -0.5375 -0.9211
 3729TIP3    H211152   1.186   5.677   3.592 -1.4147 -1.1872 -1.5356
 3730TIP3   OH211153   1.893   5.203   5.764 -0.2892 -0.0036  0.1059
 3730TIP3    H111154   1.922   5.269   5.826  1.1119 -0.3571 -0.1493
 3730TIP3    H211155   1.865   5.130   5.819  1.4095 -0.5088  0.3590
 3731TIP3   OH211156   0.492   3.800   3.078  0.4315  0.4024  0.3393
 3731TIP3    H111157   0.543   3.734   3.031 -1.6388 -0.8011 -0.3357
 3731TIP3    H211158   0.471   3.758   3.162  0.9376  1.0898  0.8264
 3732TIP3   OH211159   2.601   0.488   1.094 -0.0707  0.3290  0.1456
 3732TIP3    H111160   2.655   0.540   1.034  0.0298  0.2572  0.1744
 3732TIP3    H211161   2.596   0.401   1.055  0.0383  0.2676  0.2681
 3733TIP3   OH211162   5.073   5.642   1.766 -0.1708  0.1444  0.0154
 3733TIP3    H111163   5.159   5.607   1.745 -0.2235  0.1470 -0.2132
 3733TIP3    H211164   5.026   5.640   1.683 -0.8545 -1.1479  0.4061
 3734TIP3   OH211165   3.176   0.794   0.232  0.0227  0.3186  0.1119
 3734TIP3    H111166   3.255   0.741   0.246  1.6057  2.7000  0.7871
 3734TIP3    H211167   3.116   0.765   0.301  0.9427 -0.3962  0.6406
 3735TIP3   OH211168   0.578   1.139   4.048 -0.1032  0.2364 -0.4565
 3735TIP3    H111169   0.615   1.087   4.119 -0.0088 -0.7994 -1.2420
 3735TIP3    H211170   0.652   1.189   4.014 -0.2475  1.1179  0.4716
 3736TIP3   OH211171   3.846   6.431   3.233 -0.7571  0.0073  0.0845
 3736TIP3    H111172   3.814   6.341   3.224  0.5213 -0.3844 -0.9022
 3736TIP3    H211173   3.865   6.458   3.143  0.4844  0.6378  0.5161
 3737TIP3   OH211174   1.028   3.201   5.333  0.1534 -0.2240  0.2933
 3737TIP3    H111175   1.077   3.119   5.338  2.2688  0.8934 -0.7411
 3737TIP3    H211176   0.990   3.201   5.245  1.0917  0.3733 -0.1241
 3738TIP3   OH211177   4.127   5.269   0.200 -0.7199 -0.6526  0.8081
 3738TIP3    H111178   4.157   5.360   0.209 -0.1623 -0.3160 -2.9609
 3738TIP3    H211179   4.037   5.271   0.231 -0.8789  1.3244  0.3625
 3739TIP3   OH211180   6.480   2.062   4.100  0.1838  0.7949  1.2190
 3739TIP3    H111181   6.395   2.106   4.106  0.0575  0.6633  0.5116
 3739TIP3    H211182   6.459   1.975   4.066  0.6267  0.8449  0.8099
 3740TIP3   OH211183   3.342   1.399   4.252 -0.2363  1.0714 -0.4258
 3740TIP3    H111184   3.252   1.408   4.219 -0.5929  2.8085  0.8640
 3740TIP3    H211185   3.384   1.338   4.191 -2.3165  0.1051 -0.9778
 3741TIP3   OH211186   3.392   5.303   1.911 -0.0307  0.1452 -0.1669
 3741TIP3    H111187   3.445   5.251   1.972 -0.5028  0.9646  0.9961
 3741TIP3    H211188   3.394   5.391   1.948  1.6423  1.2711 -2.6582
 3742TIP3   OH211189   2.106   6.782   3.824  0.8616 -0.5401 -0.3616
 3742TIP3    H111190   2.045   6.718   3.861 -0.4928  0.9474  0.1111
 3742TIP3    H211191   2.074   6.796   3.735 -0.5848  1.4662  0.4121
 3743TIP3   OH211192   5.701   2.011   1.280 -0.3099  0.0923 -0.3051
 3743TIP3    H111193   5.665   1.979   1.197  0.1640  0.5874 -0.7061
 3743TIP3    H211194   5.754   2.087   1.256 -0.2755  0.3253  0.4685
 3744TIP3   OH211195   6.145   3.440   0.039  0.6288  0.0462  0.4785
 3744TIP3    H111196   6.057   3.476   0.036  0.2020 -1.0150 -0.5288
 3744TIP3    H211197   6.191   3.495   0.103 -0.1997  1.8242 -0.3792
 3745TIP3   OH211198   4.967   0.614   2.883  0.2283 -0.6855 -0.2480
 3745TIP3    H111199   5.034   0.589   2.820 -0.9500  0.7924 -2.1902
 3745TIP3    H211200   4.918   0.533   2.899  0.7604 -1.1639 -0.9798
 3746TIP3   OH211201   1.987   3.065   1.721 -0.1295 -0.2287  0.3431
 3746TIP3    H111202   1.943   3.057   1.636 -1.2132 -0.2697  0.9003
 3746TIP3    H211203   1.966   3.154   1.750  0.1168 -0.2675  0.6360
 3747TIP3   OH211204   0.230   1.570   4.270 -0.3863 -0.3440 -0.2321
 3747TIP3    H111205   0.272   1.485   4.259  0.0761  0.0706 -2.0279
 3747TIP3    H211206   0.137   1.549   4.283 -0.0431 -1.1610  1.0912
 3748TIP3   OH211207   4.183   6.769   4.740  0.1541 -0.0211 -0.1010
 3748TIP3    H111208   4.188   6.756   4.645 -2.1226  1.6263 -0.5259
 3748TIP3    H211209   4.231   6.850   4.756 -0.0610  0.0804  0.0364
 3749TIP3   OH211210   0.428   4.279   1.863 -0.4927  0.3367 -0.6356
 3749TIP3    H111211   0.508   4.227   1.869 -0.3073  0.7510  1.8467
 3749TIP3    H211212   0.444   4.340   1.792  1.3007  0.2033 -0.3949
 3750TIP3   OH211213   7.019   4.172   3.267  0.1864 -0.3212 -0.1861
 3750TIP3    H111214   7.102   4.220   3.275  0.9390 -1.3416 -1.4780
 3750TIP3    H211215   7.001   4.169   3.173 -1.5814  0.2563  0.0919
 3751TIP3   OH211216   5.811   3.783   2.295  0.3826 -0.1109 -0.2929
 3751TIP3    H111217   5.889   3.734   2.266 -0.3228 -0.4391 -1.6926
 3751TIP3    H211218   5.847   3.858   2.342  1.5300 -0.8523  0.0630
 3752TIP3   OH211219   4.735   6.174   4.888 -0.5263 -0.4775 -0.0015
 3752TIP3    H111220   4.699   6.089   4.863 -1.1455 -0.5193  0.9692
 3752TIP3    H211221   4.807   6.153   4.948 -0.7720 -0.3211  0.3523
 3753TIP3   OH211222   6.916   4.790   4.934 -0.2603 -0.1980  0.0251
 3753TIP3    H111223   6.833   4.814   4.973 -0.7418  0.2468 -1.2162
 3753TIP3    H211224   6.945   4.713   4.983 -2.5598 -1.8463 -1.0323
 3754TIP3   OH211225   4.294   1.202   2.003  0.1290  0.0824 -0.2383
 3754TIP3    H111226   4.356   1.148   2.053 -0.9529 -0.2253  0.8122
 3754TIP3    H211227   4.348   1.247   1.938  1.2643 -1.1612 -0.1891
 3755TIP3   OH211228   6.912   0.567   0.499  0.4267 -1.0777 -0.1323
 3755TIP3    H111229   6.985   0.624   0.524 -0.0382 -1.0262  1.1563
 3755TIP3    H211230   6.915   0.566   0.403  0.5470  0.9870 -0.2017
 3756TIP3   OH211231   0.563   3.713   3.388  0.0557 -0.3410 -0.4608
 3756TIP3    H111232   0.495   3.679   3.329  1.6503 -0.6850 -2.2025
 3756TIP3    H211233   0.516   3.773   3.446 -1.7023 -0.4118 -1.7217
 3757TIP3   OH211234   4.052   1.778   0.067  0.0442 -0.3313 -0.1206
 3757TIP3    H111235   4.064   1.843   0.137  0.1075 -1.1897  0.6825
 3757TIP3    H211236   4.129   1.788   0.012  0.6708 -0.5573  0.6959
 3758TIP3   OH211237   3.058   1.352   5.432 -0.3971 -0.1116  0.3284
 3758TIP3    H111238   3.082   1.389   5.518  0.2093 -1.4638  0.7743
 3758TIP3    H211239   3.136   1.365   5.378  0.2577 -1.7111  0.8355
 3759TIP3   OH211240   1.856   5.266   3.092 -0.0482 -0.6621  0.2993
 3759TIP3    H111241   1.889   5.288   3.005  0.2635  1.0537  0.8223
 3759TIP3    H211242   1.761   5.274   3.084  0.0306  0.5740  0.3610
 3760TIP3   OH211243   5.368   6.681   2.574 -0.2660 -0.1522 -0.2018
 3760TIP3    H111244   5.373   6.699   2.480 -0.4758 -0.2772 -0.2376
 3760TIP3    H211245   5.458   6.662   2.599  0.3153  2.5824  0.1708
 3761TIP3   OH211246   4.598   6.790   1.446 -0.1752 -0.0835  0.5609
 3761TIP3    H111247   4.567   6.700   1.446 -0.3716 -0.0283 -0.8618
 3761TIP3    H211248   4.657   6.796   1.371  0.9529  0.6149  1.4556
 3762TIP3   OH211249   5.923   2.490   1.865  0.0528  0.1718  0.2480
 3762TIP3    H111250   5.929   2.531   1.951  0.7848  1.4259 -0.3756
 3762TIP3    H211251   5.899   2.561   1.806  1.3119 -0.2724 -0.8608
 3763TIP3   OH211252   3.061   1.078   2.690 -0.5080  0.7866 -0.7585
 3763TIP3    H111253   3.085   1.170   2.674 -0.5406  1.1118  0.9285
 3763TIP3    H211254   2.975   1.082   2.732  0.2460  0.1217  0.9384
 3764TIP3   OH211255   1.536   5.902   5.162  0.4423  0.3364 -0.2946
 3764TIP3    H111256   1.558   5.862   5.246 -1.7233  0.4975  0.4171
 3764TIP3    H211257   1.488   5.834   5.115  1.7606  0.2012 -1.4931
 3765TIP3   OH211258   0.289   0.003   4.753 -0.1003 -0.2766  0.5249
 3765TIP3    H111259   0.309   0.089   4.789  0.8131 -0.0053 -0.5706
 3765TIP3    H211260   0.231   0.021   4.678  1.2145 -0.4649 -0.5742
 3766TIP3   OH211261   4.789   3.232   4.646  0.6085 -0.3811  0.0011
 3766TIP3    H111262   4.799   3.323   4.676 -1.1425  0.1972 -1.0480
 3766TIP3    H211263   4.696   3.224   4.625  0.9375 -2.1220 -0.9199
 3767TIP3   OH211264   2.452   5.004   3.224 -0.4233 -0.2045  0.2779
 3767TIP3    H111265   2.370   4.957   3.205 -0.0166 -0.1562 -1.8999
 3767TIP3    H211266   2.424   5.091   3.253 -1.2192  0.2020 -1.5296
 3768TIP3   OH211267   2.188   3.556   2.726 -0.2354 -0.1406 -0.5007
 3768TIP3    H111268   2.260   3.550   2.663  0.0481 -0.6499 -0.1445
 3768TIP3    H211269   2.120   3.500   2.690 -0.6368  0.6925 -1.0622
 3769TIP3   OH211270   0.926   2.085   2.585 -0.2659 -0.2697 -0.2635
 3769TIP3    H111271   0.977   2.083   2.504  0.0724  0.4459 -0.0751
 3769TIP3    H211272   0.884   1.999   2.589 -0.6222 -0.1668 -1.4143
 3770TIP3   OH211273   1.418   0.521   0.568  0.4146  0.1714 -0.2889
 3770TIP3    H111274   1.469   0.594   0.533 -1.2938  0.9518 -1.2953
 3770TIP3    H211275   1.364   0.561   0.636  0.4134 -0.4275  0.0638
 3771TIP3   OH211276   1.383   3.472   0.786 -0.2784  0.1706 -0.1761
 3771TIP3    H111277   1.464   3.501   0.745 -0.3276  1.7152  0.7506
 3771TIP3    H211278   1.408   3.447   0.875 -0.8278  0.8028  0.1661
 3772TIP3   OH211279   1.474   0.855   4.175  0.0089  0.6395  0.0951
 3772TIP3    H111280   1.417   0.913   4.226  1.3284  1.0980  1.1159
 3772TIP3    H211281   1.494   0.783   4.235 -0.6432 -0.2617 -0.7509
 3773TIP3   OH211282   0.231   4.587   0.449 -0.4182 -0.1201  0.5070
 3773TIP3    H111283   0.160   4.605   0.387  0.1644  1.4236  0.2502
 3773TIP3    H211284   0.266   4.502   0.422 -2.3241 -1.0588  0.8156
 3774TIP3   OH211285   3.170   5.834   0.526 -0.3061 -0.8655 -0.4602
 3774TIP3    H111286   3.136   5.822   0.615 -1.0762 -2.0110 -0.8806
 3774TIP3    H211287   3.234   5.764   0.515  2.5280  1.3771  0.3873
 3775TIP3   OH211288   3.837   4.939   0.394 -0.2960  0.3614 -0.3626
 3775TIP3    H111289   3.926   4.973   0.406  0.4204 -1.3739 -0.5855
 3775TIP3    H211290   3.785   4.988   0.458  0.9102  1.0176  0.1642
 3776TIP3   OH211291   5.628   5.846   5.701 -0.2191  0.4271  0.7451
 3776TIP3    H111292   5.606   5.891   5.783 -1.1511 -1.0173  1.3167
 3776TIP3    H211293   5.550   5.795   5.680  0.6386 -0.5612 -0.1432
 3777TIP3   OH211294   5.861   2.357   3.532 -0.0707  0.5085 -0.0905
 3777TIP3    H111295   5.877   2.428   3.469 -0.1831  0.4946 -0.1361
 3777TIP3    H211296   5.781   2.315   3.500  0.8163 -0.5921 -0.9141
 3778TIP3   OH211297   3.657   1.667   3.495 -0.6270 -0.1020  0.3873
 3778TIP3    H111298   3.580   1.619   3.525 -2.1051  1.4838 -0.6641
 3778TIP3    H211299   3.718   1.664   3.569 -2.0290 -0.6996  1.5556
 3779TIP3   OH211300   6.694   3.261   5.751 -0.0315  0.2647  0.5667
 3779TIP3    H111301   6.633   3.272   5.679  2.1824 -0.1134 -1.5196
 3779TIP3    H211302   6.688   3.342   5.802  0.6940  2.0522 -2.0270
 3780TIP3   OH211303   2.149   0.820   1.361  0.2447 -0.0505 -0.0822
 3780TIP3    H111304   2.244   0.832   1.361  0.4349 -1.3775  0.3728
 3780TIP3    H211305   2.137   0.727   1.376 -1.1394  0.0627 -0.3599
 3781TIP3   OH211306   3.300   0.948   4.282 -0.3025 -0.1364  0.0652
 3781TIP3    H111307   3.228   0.916   4.336 -1.2952  1.3310 -0.3424
 3781TIP3    H211308   3.341   1.017   4.334  1.7319 -1.8450  0.8759
 3782TIP3   OH211309   3.598   3.439   0.873 -0.4388 -0.2520 -0.0541
 3782TIP3    H111310   3.604   3.356   0.827 -2.2325 -0.9265  0.8507
 3782TIP3    H211311   3.681   3.445   0.921  0.2603 -0.8563 -1.1409
 3783TIP3   OH211312   6.611   3.618   1.095  0.7279 -0.2440 -0.0321
 3783TIP3    H111313   6.575   3.688   1.039 -3.5706 -0.6194  1.8591
 3783TIP3    H211314   6.565   3.539   1.066  1.2453 -1.1652  1.5578
 3784TIP3   OH211315   5.692   0.574   3.819 -0.0080 -0.8896 -0.0150
 3784TIP3    H111316   5.736   0.626   3.752 -0.7191  0.2880  0.4109
 3784TIP3    H211317   5.758   0.510   3.847  1.5872  1.0199  0.8241
 3785TIP3   OH211318   7.142   5.552   4.245  0.3866  0.1860 -0.0739
 3785TIP3    H111319   7.079   5.534   4.315 -0.8915 -1.8693 -1.6440
 3785TIP3    H211320   7.221   5.503   4.271 -0.8255 -2.4711 -1.0287
 3786TIP3   OH211321   3.430   6.712   3.216  0.2579 -1.2383  0.3032
 3786TIP3    H111322   3.426   6.617   3.205 -3.2144 -1.4536  2.1558
 3786TIP3    H211323   3.445   6.725   3.310 -1.3744 -0.0327  0.4404
 3787TIP3   OH211324   4.028   5.639   1.627 -0.3186 -0.3710 -0.2128
 3787TIP3    H111325   4.022   5.551   1.591 -0.1939 -0.3025 -0.4054
 3787TIP3    H211326   4.083   5.630   1.705 -0.7125 -0.5464  0.0460
 3788TIP3   OH211327   1.591   3.657   1.703  0.2456 -0.4100 -0.1180
 3788TIP3    H111328   1.523   3.654   1.635 -0.9775 -0.2607  1.0673
 3788TIP3    H211329   1.559   3.598   1.771  0.5974  0.7669  1.1012
 3789TIP3   OH211330   2.077   1.044   0.407  0.0378 -0.4860  0.7267
 3789TIP3    H111331   2.161   1.036   0.363 -0.0806 -0.9881  0.5912
 3789TIP3    H211332   2.014   1.060   0.336  0.0949  0.5008  0.8768
 3790TIP3   OH211333   2.864   3.198   2.506  0.0922  0.1205  0.6328
 3790TIP3    H111334   2.873   3.277   2.560 -2.1288  0.8606  0.0493
 3790TIP3    H211335   2.919   3.215   2.430  0.7707  0.4499  1.1808
 3791TIP3   OH211336   6.540   1.627   3.200  0.0340  0.2466 -0.1846
 3791TIP3    H111337   6.506   1.559   3.257  1.6295  0.0645  0.6130
 3791TIP3    H211338   6.621   1.591   3.164 -1.0493  0.2561 -2.8242
 3792TIP3   OH211339   0.721   3.639   2.486 -0.6324 -0.0540 -0.3276
 3792TIP3    H111340   0.689   3.616   2.574  1.2338  0.1822  0.4668
 3792TIP3    H211341   0.802   3.688   2.502  0.4717 -1.1498 -2.2065
 3793TIP3   OH211342   2.736   1.624   0.721  0.4768  0.5299 -0.2642
 3793TIP3    H111343   2.686   1.553   0.681  1.1268 -0.6400  0.9168
 3793TIP3    H211344   2.800   1.650   0.654 -0.7104  1.0387 -1.2390
 3794TIP3   OH211345   6.877   3.684   1.276  0.7240 -0.6801 -0.1593
 3794TIP3    H111346   6.832   3.600   1.276  0.7548 -0.7015 -1.1284
 3794TIP3    H211347   6.838   3.733   1.204  2.0274 -0.5864 -0.8316
 3795TIP3   OH211348   0.221   5.492   3.489  0.2410 -0.6222  0.2674
 3795TIP3    H111349   0.130   5.519   3.481  0.5158  0.2457 -0.1248
 3795TIP3    H211350   0.251   5.482   3.399  0.1101 -2.4650  0.3966
 3796TIP3   OH211351   5.077   1.438   5.054  0.1707  0.2930 -0.2018
 3796TIP3    H111352   5.160   1.402   5.023  1.1194  1.8402  0.3841
 3796TIP3    H211353   5.082   1.430   5.149 -2.2591 -3.4607 -0.1982
 3797TIP3   OH211354   4.014   4.453   2.235  0.4381  0.0893 -0.0563
 3797TIP3    H111355   3.999   4.378   2.179 -0.4725  0.8600 -0.8806
 3797TIP3    H211356   4.036   4.415   2.321 -2.2017 -1.1575  0.1577
 3798TIP3   OH211357   2.785   2.923   2.209  0.1861 -0.0056  0.5699
 3798TIP3    H111358   2.839   2.991   2.169  0.9269 -1.2550 -0.6996
 3798TIP3    H211359   2.848   2.865   2.253 -0.5561  0.9321  3.0287
 3799TIP3   OH211360   5.927   6.293   2.739  0.4405 -0.0168 -0.0414
 3799TIP3    H111361   5.892   6.278   2.651 -0.2436  0.0463  0.2120
 3799TIP3    H211362   5.851   6.321   2.791  0.3181 -2.3129  1.1507
 3800TIP3   OH211363   1.895   3.001   5.543 -0.0893  0.3164 -0.8123
 3800TIP3    H111364   1.892   2.919   5.493  0.4117 -0.9586  1.0896
 3800TIP3    H211365   1.808   3.008   5.583  0.1673  0.1659 -0.2064
 3801TIP3   OH211366   1.866   5.651   5.264  0.6427 -0.3721  0.3164
 3801TIP3    H111367   1.848   5.627   5.173 -1.3820  0.7492  0.3738
 3801TIP3    H211368   1.818   5.587   5.316 -1.4713  1.2522  0.4985
 3802TIP3   OH211369   3.738   0.003   4.746 -0.1570  0.3153  0.3302
 3802TIP3    H111370   3.690  -0.051   4.808  0.1451  0.2299  0.4953
 3802TIP3    H211371   3.796   0.056   4.801 -0.2863  0.6439  0.1562
 3803TIP3   OH211372   7.179   3.949   0.846 -0.5695 -0.4177  0.2470
 3803TIP3    H111373   7.197   4.017   0.911  0.5384  0.2044 -0.6738
 3803TIP3    H211374   7.222   3.980   0.767 -2.5133 -0.7929 -1.0198
 3804TIP3   OH211375   2.350   0.066   5.440 -0.2242 -0.5804  0.0587
 3804TIP3    H111376   2.292   0.080   5.515 -0.7766  0.2431 -0.5038
 3804TIP3    H211377   2.394   0.150   5.428  0.0233 -0.7707 -0.3992
 3805TIP3   OH211378   6.837   5.854   3.847 -0.3826 -0.1581 -0.1860
 3805TIP3    H111379   6.826   5.772   3.799 -0.5374 -0.3292  0.1347
 3805TIP3    H211380   6.853   5.920   3.780 -4.2591  0.3345 -0.8666
 3806TIP3   OH211381   3.053   0.407   0.468  0.0298  0.1012 -1.1761
 3806TIP3    H111382   3.002   0.455   0.402 -1.8845 -2.3800 -1.6208
 3806TIP3    H211383   3.029   0.448   0.551 -1.9344 -0.3434 -1.4878
 3807TIP3   OH211384   0.568   1.046   0.774  0.1877 -0.3457 -0.0113
 3807TIP3    H111385   0.483   1.090   0.776 -0.1591 -0.9805 -0.6555
 3807TIP3    H211386   0.565   0.985   0.848  0.1999 -0.1586  0.1441
 3808TIP3   OH211387   3.128   0.619   4.992  0.2809 -0.0912 -0.0161
 3808TIP3    H111388   3.113   0.593   5.083 -0.0426  0.8203  0.2042
 3808TIP3    H211389   3.042   0.646   4.961  0.0951 -1.7529 -1.0653
 3809TIP3   OH211390   6.081   4.470   1.597  0.1020  0.4009  0.2669
 3809TIP3    H111391   6.078   4.406   1.667  1.9202  0.3123  0.3032
 3809TIP3    H211392   6.079   4.555   1.641  0.4063  0.3463  0.3896
 3810TIP3   OH211393   3.697   3.408   3.668 -0.2813  0.6166 -0.1102
 3810TIP3    H111394   3.763   3.340   3.654 -0.0554  0.7627  0.2490
 3810TIP3    H211395   3.633   3.367   3.726 -0.5403  0.4552 -0.5055
 3811TIP3   OH211396   6.153   4.599   1.366 -0.0802 -0.0062 -0.2195
 3811TIP3    H111397   6.104   4.678   1.391 -0.4882  0.3868 -2.0625
 3811TIP3    H211398   6.145   4.541   1.441  1.1589  2.0923  1.6649
 3812TIP3   OH211399   4.954   6.525   3.114 -0.3070 -0.0735 -0.1597
 3812TIP3    H111400   4.989   6.599   3.066  1.6143 -0.9678 -0.2398
 3812TIP3    H211401   4.907   6.473   3.048  0.3145 -0.0890 -0.6019
 3813TIP3   OH211402   2.078   0.842   4.648  0.0527  0.3552 -0.5374
 3813TIP3    H111403   2.122   0.805   4.572  0.3396 -2.4781  0.8755
 3813TIP3    H211404   1.990   0.803   4.646 -1.1729  2.9486 -1.2210
 3814TIP3   OH211405   2.577   1.872   5.791 -0.1424 -0.3800 -0.3575
 3814TIP3    H111406   2.668   1.888   5.819 -0.1443  0.3735 -0.7438
 3814TIP3    H211407   2.552   1.953   5.747 -0.4841 -1.1630 -1.6261
 3815TIP3   OH211408   6.771   0.115   3.087  0.1591  0.5144 -0.1325
 3815TIP3    H111409   6.818   0.196   3.106  0.9191  0.3558 -1.2574
 3815TIP3    H211410   6.798   0.091   2.999 -1.1039 -0.2477 -0.3492
 3816TIP3   OH211411   1.548   2.143   4.137  0.3386  0.3776 -0.5801
 3816TIP3    H111412   1.517   2.063   4.179 -0.1121  0.3603 -0.9320
 3816TIP3    H211413   1.606   2.113   4.068  1.2190  0.4131  0.1273
 3817TIP3   OH211414   4.319   0.522   4.319 -0.3843  0.1986  0.1943
 3817TIP3    H111415   4.396   0.470   4.337  1.4262  1.5188 -2.8218
 3817TIP3    H211416   4.247   0.459   4.313  1.2309 -1.6495 -0.8015
 3818TIP3   OH211417   6.531   4.197   0.970 -0.1842 -0.1641  0.3644
 3818TIP3    H111418   6.525   4.102   0.978 -2.5412 -0.0765  0.2308
 3818TIP3    H211419   6.516   4.230   1.058 -0.1028  0.1172  0.2741
 3819TIP3   OH211420   6.009   4.518   5.615  0.2655 -0.0575  0.6950
 3819TIP3    H111421   6.006   4.466   5.696 -0.3644 -0.4484  0.4303
 3819TIP3    H211422   5.978   4.605   5.641  0.3267 -0.1046  0.9283
 3820TIP3   OH211423   6.236   2.944   3.243  0.2350  0.0217  0.4209
 3820TIP3    H111424   6.156   2.913   3.285  1.2817 -2.2738  0.8416
 3820TIP3    H211425   6.307   2.908   3.295  1.6051  1.9337  0.0135
 3821TIP3   OH211426   2.414   0.031   0.682 -0.7030 -0.2417  0.2362
 3821TIP3    H111427   2.407  -0.051   0.731 -1.3374 -0.3000  0.0617
 3821TIP3    H211428   2.499   0.027   0.638  0.2179  0.1199  1.8905
 3822TIP3   OH211429   5.517   0.743   1.999  0.2958 -0.0842  0.0746
 3822TIP3    H111430   5.542   0.654   1.975 -1.2960 -0.8100  0.9305
 3822TIP3    H211431   5.421   0.741   2.006  0.3555  0.9382  2.8212
 3823TIP3   OH211432   1.339   0.128   2.025  0.1447  0.0319  0.4779
 3823TIP3    H111433   1.272   0.188   2.057  0.9128  0.9989  0.3059
 3823TIP3    H211434   1.323   0.046   2.072 -1.3740  0.1315  0.1659
 3824TIP3   OH211435   4.301   4.509   3.716 -0.1964 -0.1851 -0.4448
 3824TIP3    H111436   4.253   4.522   3.634 -0.3713  1.6536 -0.0888
 3824TIP3    H211437   4.390   4.537   3.696 -0.3206  0.6102  0.0623
 3825TIP3   OH211438   4.210   3.306   0.898 -0.2603 -0.1067 -0.2771
 3825TIP3    H111439   4.301   3.329   0.878  0.0034  1.2079  2.1041
 3825TIP3    H211440   4.163   3.389   0.899 -0.6938 -0.3190  2.0402
 3826TIP3   OH211441   2.795   2.205   4.658  0.3010  0.2100 -0.0287
 3826TIP3    H111442   2.802   2.225   4.752 -0.1541 -0.3227  0.1207
 3826TIP3    H211443   2.733   2.270   4.625  0.6479  0.5533 -0.0118
 3827TIP3   OH211444   2.130   6.347   2.390 -0.0378  0.1103 -0.0588
 3827TIP3    H111445   2.157   6.378   2.303  2.0748  1.5996  1.0165
 3827TIP3    H211446   2.043   6.385   2.403 -0.0199  0.5838 -1.1816
 3828TIP3   OH211447   0.263   3.731   0.240 -0.0693 -0.4675 -0.0142
 3828TIP3    H111448   0.311   3.800   0.194  0.1613  0.3187  1.3373
 3828TIP3    H211449   0.330   3.668   0.265 -0.1072 -0.6014 -0.2503
 3829TIP3   OH211450   5.158   3.237   0.514 -0.1549 -0.1004  0.0674
 3829TIP3    H111451   5.143   3.272   0.601 -1.7612 -0.2076 -0.1393
 3829TIP3    H211452   5.162   3.142   0.527  1.0843 -0.0471  0.2024
 3830TIP3   OH211453   5.449   4.496   0.520 -0.1329  0.4314  0.6456
 3830TIP3    H111454   5.393   4.516   0.595 -0.2437 -1.9988  1.2866
 3830TIP3    H211455   5.498   4.577   0.505 -1.6645  1.6830  1.9276
 3831TIP3   OH211456   3.836   1.332   4.452  0.2212  0.0159  0.3248
 3831TIP3    H111457   3.781   1.302   4.381 -0.8057 -0.8625  1.4538
 3831TIP3    H211458   3.861   1.422   4.428 -0.5777 -0.0687 -0.8424
 3832TIP3   OH211459   6.800   0.098   5.328  0.0193  0.3309  0.0926
 3832TIP3    H111460   6.753   0.148   5.262 -3.0620  2.0247  3.2149
 3832TIP3    H211461   6.758   0.012   5.327 -0.1791  0.4281 -0.0554
 3833TIP3   OH211462   3.974   2.498   2.305 -0.4657  0.1051  0.0725
 3833TIP3    H111463   4.064   2.475   2.283 -1.2643 -1.8443 -1.5025
 3833TIP3    H211464   3.926   2.491   2.222 -2.2588  0.0274  1.0582
 3834TIP3   OH211465   2.358   3.992   2.340 -0.4366 -0.2933 -0.2505
 3834TIP3    H111466   2.278   3.944   2.360 -0.6567 -0.0788 -0.5838
 3834TIP3    H211467   2.412   3.930   2.292 -0.7973 -0.1621 -0.8432
 3835TIP3   OH211468   4.929  -0.013   3.082 -0.4988  0.3472 -0.0943
 3835TIP3    H111469   4.875   0.026   3.014 -1.0136  1.8476  1.1137
 3835TIP3    H211470   4.925   0.049   3.155  1.1792 -0.5035  0.7968
 3836TIP3   OH211471   2.444   0.582   2.234  0.4122 -0.8438  0.1646
 3836TIP3    H111472   2.366   0.637   2.233  0.8014 -0.1041 -3.3623
 3836TIP3    H211473   2.490   0.607   2.315 -1.1785  1.4118  0.4738
 3837TIP3   OH211474   1.194   3.125   2.770  0.5848  0.2911  0.6462
 3837TIP3    H111475   1.177   3.036   2.738 -0.3995  0.4384  0.7123
 3837TIP3    H211476   1.149   3.128   2.855  1.1207  0.6682  0.9187
 3838TIP3   OH211477   4.043   4.681   1.845 -0.8824  0.5853 -0.4457
 3838TIP3    H111478   4.116   4.733   1.810  0.3140 -0.4795  0.4022
 3838TIP3    H211479   4.053   4.596   1.803 -0.7112 -0.0397  0.8312
 3839TIP3   OH211480   2.787   0.492   5.144  0.5328 -0.2311  0.0610
 3839TIP3    H111481   2.728   0.501   5.219  0.6381  0.4618  0.0657
 3839TIP3    H211482   2.864   0.447   5.178  0.5296 -0.0255  0.3349
 3840TIP3   OH211483   1.281   5.045   0.539  1.0347 -0.1678 -0.5187
 3840TIP3    H111484   1.206   5.073   0.591  0.5007  0.1049 -1.4205
 3840TIP3    H211485   1.264   4.952   0.521  1.4891 -0.4101  0.2204
 3841TIP3   OH211486   5.864   2.635   5.623  0.2813 -0.2566  0.0344
 3841TIP3    H111487   5.856   2.572   5.552  0.2211  0.1780 -0.3465
 3841TIP3    H211488   5.861   2.720   5.580 -0.6366  0.0304  0.6264
 3842TIP3   OH211489   4.072   5.348   0.916  0.1782  0.1965  0.0737
 3842TIP3    H111490   4.072   5.385   1.005 -0.5957  0.5870 -0.0782
 3842TIP3    H211491   4.108   5.260   0.927  1.2489  0.6785  0.5736
 3843TIP3   OH211492   0.429   1.571   5.526 -0.2150  0.3421 -0.0022
 3843TIP3    H111493   0.398   1.490   5.566  0.3251  0.4593  0.6724
 3843TIP3    H211494   0.412   1.560   5.433 -0.6740 -0.3077  0.1540
 3844TIP3   OH211495   2.603   1.942   0.188 -0.1220 -0.4578 -0.2103
 3844TIP3    H111496   2.508   1.928   0.188 -0.0718 -0.8824 -0.8945
 3844TIP3    H211497   2.614   2.035   0.168 -0.3896 -0.3881 -0.0440
 3845TIP3   OH211498   1.659   1.977   3.332 -0.0779 -0.3106 -0.1724
 3845TIP3    H111499   1.710   2.049   3.368 -1.1205  1.8024 -2.5681
 3845TIP3    H211500   1.685   1.973   3.240 -0.9653 -2.2202 -0.3996
 3846TIP3   OH211501   0.843   4.215   3.246 -0.1845 -0.2529 -0.1210
 3846TIP3    H111502   0.850   4.219   3.341 -0.6249  0.1355 -0.1036
 3846TIP3    H211503   0.776   4.149   3.229 -0.1833 -0.2458 -0.1540
 3847TIP3   OH211504   6.332   6.070   2.013  0.4200  0.0273  0.2042
 3847TIP3    H111505   6.423   6.047   1.994  0.4158 -0.3790  0.6532
 3847TIP3    H211506   6.283   6.042   1.936  0.4780 -1.0942  0.5596
 3848TIP3   OH211507   2.652   4.602   5.088  0.2664 -0.0328  0.4265
 3848TIP3    H111508   2.663   4.634   5.178  0.3938  1.0000  0.0540
 3848TIP3    H211509   2.571   4.644   5.058  0.7354  0.3793 -0.2644
 3849TIP3   OH211510   3.610   6.188   1.415  0.0521 -0.2007  0.4587
 3849TIP3    H111511   3.567   6.244   1.351  1.2390 -1.7631 -1.8514
 3849TIP3    H211512   3.702   6.212   1.411  0.0208  0.3759  2.3999
 3850TIP3   OH211513   1.758   5.890   1.725 -0.2597  0.3760 -0.1140
 3850TIP3    H111514   1.762   5.868   1.632  1.9981 -1.6038  0.3251
 3850TIP3    H211515   1.692   5.831   1.761 -1.3622  1.3630 -0.4721
 3851TIP3   OH211516   4.521   0.487   1.802  0.3136  0.2286  0.0788
 3851TIP3    H111517   4.539   0.511   1.893  0.7486  3.4434 -0.7414
 3851TIP3    H211518   4.606   0.460   1.767 -0.0363 -2.0240  0.8060
 3852TIP3   OH211519   4.335   5.163   1.761 -0.3929  0.4519 -0.3829
 3852TIP3    H111520   4.381   5.207   1.690  1.2038 -1.1534 -0.4264
 3852TIP3    H211521   4.405   5.137   1.822 -1.6084  0.8251  1.2388
 3853TIP3   OH211522   5.917   0.923   1.683  0.8426  0.7941  0.1423
 3853TIP3    H111523   5.822   0.911   1.681  0.9970 -0.6651  0.6666
 3853TIP3    H211524   5.934   0.964   1.767  0.8466 -0.8769  0.9946
 3854TIP3   OH211525   5.699   1.100   0.595 -0.4654 -0.4806 -0.3126
 3854TIP3    H111526   5.652   1.017   0.596  0.6991 -1.1870 -1.0273
 3854TIP3    H211527   5.651   1.157   0.656 -0.4909 -2.1314  1.3024
 3855TIP3   OH211528   2.018   5.408   5.129  0.1421 -0.3058  0.2132
 3855TIP3    H111529   2.000   5.402   5.223 -0.9451 -1.5107 -0.0411
 3855TIP3    H211530   1.947   5.462   5.095  0.4518  0.0067  0.0574
 3856TIP3   OH211531   2.760   1.036   0.969 -0.0730  0.2452 -0.2687
 3856TIP3    H111532   2.780   1.094   0.896 -0.0194  0.9309  0.2820
 3856TIP3    H211533   2.807   1.074   1.044  0.1101 -0.6116  0.0590
 3857TIP3   OH211534   2.377   0.592   1.200 -0.5891 -0.0249 -0.1992
 3857TIP3    H111535   2.454   0.544   1.170 -0.1564  0.8394 -0.4778
 3857TIP3    H211536   2.304   0.533   1.180  0.0117 -1.0074  0.4032
 3858TIP3   OH211537   2.348   5.293   5.766  0.3662  0.3626  0.3252
 3858TIP3    H111538   2.281   5.225   5.757 -0.7861  1.0474  2.7994
 3858TIP3    H211539   2.300   5.371   5.794  1.9118  1.6697 -0.4288
 3859TIP3   OH211540   2.268   0.636   1.600  1.0724  0.3304  0.8439
 3859TIP3    H111541   2.304   0.568   1.657 -2.0364 -0.0145  2.6277
 3859TIP3    H211542   2.173   0.626   1.608  0.4681  4.1030  0.2110
 3860TIP3   OH211543   3.035   0.566   4.027 -0.3785 -0.3638 -0.6532
 3860TIP3    H111544   2.954   0.552   4.076 -0.2093  0.8577  0.0191
 3860TIP3    H211545   3.035   0.660   4.009  1.4921 -0.1009  0.4862
 3861TIP3   OH211546   4.698   5.694   5.674  0.0071 -0.2703 -0.3955
 3861TIP3    H111547   4.669   5.676   5.585  0.0679 -0.7710 -0.3182
 3861TIP3    H211548   4.619   5.717   5.722 -0.4760 -2.6109  0.0657
 3862TIP3   OH211549   6.764   5.375   5.081 -0.3924 -0.0628 -0.1399
 3862TIP3    H111550   6.786   5.431   5.007 -1.5738 -0.3646 -0.7359
 3862TIP3    H211551   6.818   5.297   5.069  0.7172  0.6193  0.2951
 3863TIP3   OH211552   5.535   5.661   1.975  0.0303  0.5667  0.2449
 3863TIP3    H111553   5.529   5.735   1.916  1.7560  0.6932  0.1769
 3863TIP3    H211554   5.526   5.699   2.063  1.0452  0.9034  0.2181
 3864TIP3   OH211555   4.923   4.319   1.593  0.0015  0.1789  0.5789
 3864TIP3    H111556   4.998   4.271   1.628 -1.0546  0.2114  3.0718
 3864TIP3    H211557   4.945   4.411   1.604  0.0531  0.2028  0.2801
 3865TIP3   OH211558   4.926   3.832   4.621  0.2174 -0.3125  0.5223
 3865TIP3    H111559   4.884   3.815   4.705 -0.6809 -0.4064  0.0571
 3865TIP3    H211560   4.861   3.808   4.555  0.6384  0.4630 -0.1956
 3866TIP3   OH211561   0.225   1.846   2.940 -0.3303  0.2631  0.1374
 3866TIP3    H111562   0.173   1.878   2.867  2.6488  2.3669 -1.3230
 3866TIP3    H211563   0.226   1.919   3.002  2.0441  1.0423 -0.6661
 3867TIP3   OH211564   5.637   5.102   1.587  0.0605 -0.4848  0.1369
 3867TIP3    H111565   5.556   5.098   1.639  0.1085  2.3181  0.6282
 3867TIP3    H211566   5.638   5.192   1.553  3.3666 -0.1201  0.8586
 3868TIP3   OH211567   4.466   3.935   0.532 -0.1349  0.0645  0.4051
 3868TIP3    H111568   4.376   3.965   0.515  0.2622 -0.1777 -2.8199
 3868TIP3    H211569   4.519   4.013   0.516  0.3219 -0.1617  0.8310
 3869TIP3   OH211570   1.932   6.165   4.368  0.4466 -0.1750  0.6239
 3869TIP3    H111571   1.873   6.224   4.323  1.4853  0.5993  0.2309
 3869TIP3    H211572   1.887   6.080   4.367 -1.5157  0.7662  2.0798
 3870TIP3   OH211573   4.400   0.693   5.795  0.4015 -0.6383 -0.1556
 3870TIP3    H111574   4.438   0.610   5.766 -0.4553 -1.2449  0.4306
 3870TIP3    H211575   4.397   0.747   5.715  0.5850 -1.3081 -0.6244
 3871TIP3   OH211576   5.290   0.257   4.458  0.5128 -0.2224  0.2116
 3871TIP3    H111577   5.338   0.340   4.460  0.1903 -0.0363  0.3341
 3871TIP3    H211578   5.310   0.215   4.542  0.6083 -0.2296  0.1851
 3872TIP3   OH211579   3.786   0.801   5.656  0.1927  0.4165  0.1428
 3872TIP3    H111580   3.728   0.796   5.580  0.9831 -1.0093 -0.4159
 3872TIP3    H211581   3.845   0.873   5.636  0.2769  0.1681 -0.5232
 3873TIP3   OH211582   4.463   3.975   5.450 -0.2970  0.2859  0.4210
 3873TIP3    H111583   4.463   3.976   5.354 -0.5689 -0.6262  0.4002
 3873TIP3    H211584   4.499   3.889   5.473  2.4321  1.5324  1.1928
 3874TIP3   OH211585   0.764   3.974   3.834 -0.0215 -0.0184  0.8154
 3874TIP3    H111586   0.794   3.896   3.879 -2.1830 -0.5172  1.5298
 3874TIP3    H211587   0.808   3.972   3.749  0.7200 -1.4700  1.2137
 3875TIP3   OH211588   2.249   1.312   2.966  0.6756 -0.2822 -0.2607
 3875TIP3    H111589   2.171   1.278   3.011  1.4244 -0.8371  0.6436
 3875TIP3    H211590   2.321   1.260   3.001  1.3320 -0.4865 -1.8564
 3876TIP3   OH211591   3.462   4.500   0.067 -0.3384  0.6058 -0.4353
 3876TIP3    H111592   3.510   4.567   0.115 -0.7791  1.5427 -1.2752
 3876TIP3    H211593   3.410   4.548   0.003 -1.6215 -0.4545 -0.2350
 3877TIP3   OH211594   1.276   0.642   0.773  0.1001  0.1286 -0.4984
 3877TIP3    H111595   1.298   0.687   0.854 -0.1049  0.2597 -0.5144
 3877TIP3    H211596   1.261   0.551   0.799  1.5277 -0.1621 -0.6197
 3878TIP3   OH211597   3.171   5.494   0.993 -0.0326 -0.4906 -0.2618
 3878TIP3    H111598   3.194   5.587   0.986 -1.5655 -0.0257  0.4968
 3878TIP3    H211599   3.230   5.450   0.931  0.9118  0.9418 -0.4238
 3879TIP3   OH211600   4.244   6.330   2.861  0.2054 -0.2169 -0.1321
 3879TIP3    H111601   4.237   6.260   2.796 -0.0967 -0.0971 -0.2297
 3879TIP3    H211602   4.207   6.293   2.941  0.7530 -0.4311  0.0311
 3880TIP3   OH211603   2.809   5.398   4.303  0.1635  0.0289  0.2621
 3880TIP3    H111604   2.841   5.451   4.377  2.9067  1.7554 -1.9665
 3880TIP3    H211605   2.849   5.312   4.316  2.2288  0.8840 -0.1414
 3881TIP3   OH211606   6.575   0.282   4.650  0.6234  0.2693 -0.3080
 3881TIP3    H111607   6.495   0.330   4.671  1.2754  1.0414  0.4924
 3881TIP3    H211608   6.560   0.248   4.562 -1.0129 -0.5430  0.2449
 3882TIP3   OH211609   4.776   6.123   4.282  0.1217 -0.3302 -0.5367
 3882TIP3    H111610   4.851   6.086   4.236 -0.4730 -0.3108 -1.5481
 3882TIP3    H211611   4.776   6.215   4.258  0.1467 -0.1885 -0.0123
 3883TIP3   OH211612   0.455   1.143   3.371  0.4619  0.4910 -0.2185
 3883TIP3    H111613   0.515   1.122   3.442  1.1120 -0.8973 -1.1413
 3883TIP3    H211614   0.504   1.202   3.314 -0.0762  1.6440  0.4631
 3884TIP3   OH211615   5.487   5.839   5.426 -0.4323 -0.3563 -0.3062
 3884TIP3    H111616   5.509   5.921   5.471  0.0906 -1.9424  2.5489
 3884TIP3    H211617   5.445   5.867   5.345 -1.7324  2.7410  1.2817
 3885TIP3   OH211618   0.225   0.615   3.142  0.7281  0.2911 -0.1390
 3885TIP3    H111619   0.190   0.694   3.183  0.9310  0.5424 -0.4480
 3885TIP3    H211620   0.212   0.629   3.048  0.3591 -0.2370 -0.1700
 3886TIP3   OH211621   1.778   1.954   4.009  0.0847  0.1086  0.0422
 3886TIP3    H111622   1.857   1.932   4.058 -0.2567  0.9552  1.0248
 3886TIP3    H211623   1.734   1.871   3.995 -0.9776 -0.0334  3.2735
 3887TIP3   OH211624   1.839   3.565   1.944  0.5871  0.6727 -0.0999
 3887TIP3    H111625   1.748   3.585   1.922  0.7205  1.5408  0.1344
 3887TIP3    H211626   1.891   3.625   1.891  1.1309 -1.1546 -1.7675
 3888TIP3   OH211627   0.255   5.460   0.503  0.1544  0.2335  0.1241
 3888TIP3    H111628   0.251   5.452   0.598  0.8662 -0.5660  0.1070
 3888TIP3    H211629   0.197   5.533   0.482  1.1279  1.3778  1.2930
 3889TIP3   OH211630   3.792   1.134   1.286 -0.7288 -0.0043 -0.8960
 3889TIP3    H111631   3.757   1.054   1.325 -2.1493  0.7333 -0.5959
 3889TIP3    H211632   3.799   1.195   1.359  1.8753 -0.2936 -0.8093
 3890TIP3   OH211633   2.817   4.755   4.927  0.2972  0.0359 -0.2552
 3890TIP3    H111634   2.789   4.688   4.989  1.0157  0.3028  0.3812
 3890TIP3    H211635   2.771   4.734   4.846  0.6046 -1.3001 -0.1056
 3891TIP3   OH211636   4.937   2.368   4.007  0.3200  0.6670 -0.2688
 3891TIP3    H111637   4.990   2.445   3.989 -1.0432  1.4212 -1.2179
 3891TIP3    H211638   4.880   2.395   4.079  1.6812 -0.3988  1.3024
 3892TIP3   OH211639   6.566   5.602   4.914 -0.9629 -0.0193 -0.4798
 3892TIP3    H111640   6.598   5.648   4.992  1.2805 -1.6649 -0.3120
 3892TIP3    H211641   6.587   5.659   4.841  0.1908  0.0191 -0.1380
 3893TIP3   OH211642   5.190   2.882   3.416  0.5346  0.3723  0.3250
 3893TIP3    H111643   5.118   2.835   3.458  0.0367 -0.7179 -1.6229
 3893TIP3    H211644   5.153   2.967   3.394 -0.9840 -0.8427 -2.4794
 3894TIP3   OH211645   1.514   6.622   0.245 -0.1964  0.0586 -0.0292
 3894TIP3    H111646   1.546   6.580   0.324  1.9809  2.8671  0.7768
 3894TIP3    H211647   1.568   6.585   0.175  1.1351  0.8209  0.5448
 3895TIP3   OH211648   0.352   1.900   3.352 -0.2405 -0.1806 -0.0088
 3895TIP3    H111649   0.423   1.841   3.327 -1.0159 -2.3104  2.3619
 3895TIP3    H211650   0.385   1.948   3.428 -0.9247 -0.4152  0.4542
 3896TIP3   OH211651   1.627   0.565   0.187  0.2238  0.5035 -0.2352
 3896TIP3    H111652   1.594   0.619   0.115  0.9493  1.4826  0.1455
 3896TIP3    H211653   1.653   0.627   0.254  0.5049 -0.3518  0.4738
 3897TIP3   OH211654   5.619   3.639   0.760 -0.5249  0.4290 -0.5497
 3897TIP3    H111655   5.638   3.648   0.853 -0.4741  1.7037 -0.6666
 3897TIP3    H211656   5.556   3.567   0.755  0.7346 -0.7785  0.2943
 3898TIP3   OH211657   4.490   2.525   5.255  0.7752  0.1214 -0.6247
 3898TIP3    H111658   4.482   2.433   5.230 -3.6869  0.5461 -1.5669
 3898TIP3    H211659   4.451   2.574   5.183 -0.9117  2.3794  1.6008
 3899TIP3   OH211660   4.892   2.469   2.584 -0.4965 -0.3127 -0.4436
 3899TIP3    H111661   4.938   2.427   2.512 -0.8415 -0.7603 -0.4098
 3899TIP3    H211662   4.908   2.563   2.572  1.3298 -0.5070  0.1925
 3900TIP3   OH211663   3.314   4.173   1.988 -0.6159 -0.0818  0.0560
 3900TIP3    H111664   3.399   4.133   2.006  0.2301  1.5683 -0.0575
 3900TIP3    H211665   3.321   4.261   2.025 -1.8488  0.4875 -1.0006
 3901TIP3   OH211666   4.109   1.024   1.925  0.1493  0.6386  0.4993
 3901TIP3    H111667   4.171   1.085   1.963  1.5625 -1.2601  1.4204
 3901TIP3    H211668   4.100   1.052   1.834  1.7340  1.4523  0.5638
 3902TIP3   OH211669   6.128   6.660   2.171  0.2295 -0.4594 -0.2762
 3902TIP3    H111670   6.165   6.610   2.098  0.4075 -0.0312 -0.4853
 3902TIP3    H211671   6.182   6.636   2.246 -0.2004 -1.1991 -0.1981
 3903TIP3   OH211672   1.515   1.849   0.364  0.2954  0.2978 -0.3079
 3903TIP3    H111673   1.549   1.848   0.275  0.6043  0.6238 -0.1907
 3903TIP3    H211674   1.581   1.894   0.415 -0.4458  1.2174 -0.1367
 3904TIP3   OH211675   4.174   5.291   1.309  0.3499 -0.2882  0.1906
 3904TIP3    H111676   4.129   5.228   1.366 -1.8721  1.1036  0.1139
 3904TIP3    H211677   4.104   5.328   1.255  1.5511  2.2310  0.2210
 3905TIP3   OH211678   3.793   1.220   2.049 -0.3513  0.1629 -0.0154
 3905TIP3    H111679   3.796   1.275   2.128  1.9438 -1.4252  1.1169
 3905TIP3    H211680   3.773   1.281   1.978 -0.6969  1.9548  1.5282
 3906TIP3   OH211681   0.633   3.625   1.921  0.0590  0.4624 -0.6249
 3906TIP3    H111682   0.580   3.642   1.999  2.7500  1.2793  1.1928
 3906TIP3    H211683   0.640   3.530   1.917 -0.3308  0.4030 -0.0309
 3907TIP3   OH211684   6.834   3.504   5.521 -0.0492  0.0005  0.1328
 3907TIP3    H111685   6.921   3.528   5.552 -0.6589  0.7491  1.3538
 3907TIP3    H211686   6.789   3.588   5.510 -0.0929 -0.2786 -2.1749
 3908TIP3   OH211687   6.186   5.589   5.220 -0.2870 -0.2809 -0.0194
 3908TIP3    H111688   6.226   5.595   5.307  0.7223  0.5751 -0.5139
 3908TIP3    H211689   6.159   5.497   5.213 -0.0125 -0.4614  1.0294
 3909TIP3   OH211690   7.132   4.664   0.473 -0.5977 -0.3424  0.3369
 3909TIP3    H111691   7.147   4.600   0.403 -0.0637 -0.4376  0.5352
 3909TIP3    H211692   7.060   4.626   0.524 -1.7758  0.2647 -0.7996
 3910TIP3   OH211693   4.851   6.148   2.573 -0.0362  0.0841 -0.3795
 3910TIP3    H111694   4.860   6.115   2.483  1.8572  1.2365 -0.6728
 3910TIP3    H211695   4.851   6.070   2.628 -0.9352 -0.6260 -1.3535
 3911TIP3   OH211696   3.798   5.383   4.860 -0.0822  0.2259 -0.2028
 3911TIP3    H111697   3.884   5.353   4.830 -0.1436 -0.1311 -0.0256
 3911TIP3    H211698   3.768   5.442   4.791 -0.0034 -0.2000 -0.6062
 3912TIP3   OH211699   0.401   1.972   0.271  0.3844 -0.2627  0.0681
 3912TIP3    H111700   0.328   1.990   0.211  1.4700  1.1456 -0.8845
 3912TIP3    H211701   0.412   1.877   0.267 -1.7403 -0.5833  0.6726
 3913TIP3   OH211702   5.900   2.440   4.176 -0.1340  0.2910 -0.2488
 3913TIP3    H111703   5.866   2.485   4.253  0.4688  2.4674 -1.1800
 3913TIP3    H211704   5.854   2.480   4.102 -1.1740 -2.1751 -1.0525
 3914TIP3   OH211705   0.800   4.122   0.988  0.3120 -0.2836 -0.5244
 3914TIP3    H111706   0.797   4.036   1.029  1.8014 -1.0029 -1.8124
 3914TIP3    H211707   0.875   4.118   0.929 -1.4790  0.7733 -3.0484
 3915TIP3   OH211708   5.172   3.997   3.974  0.2878  0.2733 -0.6969
 3915TIP3    H111709   5.093   4.041   4.005  0.5826  0.3440 -0.0124
 3915TIP3    H211710   5.142   3.941   3.902 -0.2476  0.8773 -0.9519
 3916TIP3   OH211711   2.925   5.486   3.197 -0.1197 -0.4524  0.0701
 3916TIP3    H111712   2.867   5.474   3.272  1.6932 -1.7403  1.3447
 3916TIP3    H211713   2.985   5.412   3.201 -0.1821 -0.7795 -2.9060
 3917TIP3   OH211714   6.700   0.468   3.194 -0.1117 -0.1562 -0.1746
 3917TIP3    H111715   6.702   0.451   3.288  0.4464  1.0223  0.0475
 3917TIP3    H211716   6.635   0.407   3.159 -0.1037 -0.8110  0.9272
 3918TIP3   OH211717   6.841   0.528   2.047 -0.3866 -0.1049 -0.3762
 3918TIP3    H111718   6.930   0.494   2.037 -0.3790 -0.1802 -0.0532
 3918TIP3    H211719   6.815   0.553   1.958  0.1485  0.4132 -0.3891
 3919TIP3   OH211720   1.315   1.987   0.202  0.1642  0.4747  0.6213
 3919TIP3    H111721   1.226   1.966   0.174  0.0112  1.7480  0.0842
 3919TIP3    H211722   1.333   1.925   0.272 -1.3506  0.5322  1.1020
 3920TIP3   OH211723   0.490   5.592   4.623 -0.0752 -0.2127 -0.3811
 3920TIP3    H111724   0.439   5.519   4.589 -0.5071 -0.8284  1.4817
 3920TIP3    H211725   0.565   5.550   4.666 -0.8635  0.3245  1.6114
 3921TIP3   OH211726   5.248   0.736   4.685  0.3657  0.0451 -0.1462
 3921TIP3    H111727   5.168   0.727   4.634 -0.2545  0.7257  0.6845
 3921TIP3    H211728   5.310   0.776   4.624 -0.3641  0.8659 -0.3760
 3922TIP3   OH211729   6.988   4.820   1.480 -0.8521 -1.0963  0.4366
 3922TIP3    H111730   6.939   4.902   1.472  1.4391  0.4673  1.4626
 3922TIP3    H211731   7.051   4.823   1.408  1.4168 -0.2775  2.3353
 3923TIP3   OH211732   6.372   3.400   2.089  0.0130  0.0599  0.0881
 3923TIP3    H111733   6.380   3.429   1.998  2.2807  1.7550  0.7300
 3923TIP3    H211734   6.369   3.305   2.084  0.6791  0.0973 -1.7343
 3924TIP3   OH211735   5.354   0.876   1.717 -0.3048 -0.5040  1.0012
 3924TIP3    H111736   5.353   0.787   1.680 -0.5652 -0.4496  0.8785
 3924TIP3    H211737   5.262   0.902   1.719 -0.0773  0.8653 -1.6436
 3925TIP3   OH211738   1.126   1.434   1.666 -0.2940  0.3095 -0.0441
 3925TIP3    H111739   1.107   1.398   1.752  0.4957 -1.1639 -0.4512
 3925TIP3    H211740   1.127   1.358   1.608 -1.9465  1.3655 -1.5962
 3926TIP3   OH211741   2.757   5.172   1.746  0.2791  0.2553  0.9387
 3926TIP3    H111742   2.669   5.203   1.721  0.8822  2.1173  0.9622
 3926TIP3    H211743   2.741   5.091   1.794 -1.3128 -0.3536 -0.4891
 3927TIP3   OH211744   3.197   6.262   5.499  0.2632  0.5202  0.0374
 3927TIP3    H111745   3.211   6.209   5.577 -0.7685  2.0498  1.3275
 3927TIP3    H211746   3.285   6.278   5.465  0.5842 -3.1268 -1.2898
 3928TIP3   OH211747   4.599   6.429   1.759 -0.3631 -0.3770  0.3440
 3928TIP3    H111748   4.547   6.449   1.837 -0.3568 -0.6043  0.4097
 3928TIP3    H211749   4.586   6.504   1.701 -2.1177 -1.1418 -0.3313
 3929TIP3   OH211750   3.760   1.959   4.717  0.1014  0.1124  0.3775
 3929TIP3    H111751   3.698   2.032   4.713  1.1891  1.0048 -1.8413
 3929TIP3    H211752   3.711   1.888   4.759 -1.5551  1.5665  1.0048
 3930TIP3   OH211753   2.009   1.564   3.943  0.6795 -0.4671 -0.2545
 3930TIP3    H111754   1.932   1.542   3.996  1.6114 -0.8724  0.9997
 3930TIP3    H211755   1.989   1.649   3.905  0.2935  0.2858  1.5075
 3931TIP3   OH211756   2.021   6.032   5.804  0.2626  0.2253  0.1710
 3931TIP3    H111757   1.931   6.022   5.835  0.0862  0.4034 -0.2788
 3931TIP3    H211758   2.052   5.943   5.790  0.4525  0.1255  1.1543
 3932TIP3   OH211759   3.460   1.975   4.512  0.4436 -0.3266 -0.3556
 3932TIP3    H111760   3.460   2.071   4.512 -1.8418 -0.2678  0.9237
 3932TIP3    H211761   3.398   1.951   4.443 -2.1428 -0.7086  1.9399
 3933TIP3   OH211762   1.097   5.019   2.939  0.2778 -0.1188 -0.1501
 3933TIP3    H111763   1.062   4.970   3.014 -0.0750  1.2088  0.5854
 3933TIP3    H211764   1.019   5.051   2.894  0.4743  2.1764  1.0351
 3934TIP3   OH211765   5.939   1.995   0.425  0.2736 -0.3728 -0.1641
 3934TIP3    H111766   5.972   2.067   0.371  0.6505 -0.5028 -0.1143
 3934TIP3    H211767   6.003   1.925   0.413  0.3280 -0.4255  0.3991
 3935TIP3   OH211768   0.289   3.749   3.853  0.2488 -0.0213  0.2790
 3935TIP3    H111769   0.196   3.749   3.874  0.1934  0.7039  0.0844
 3935TIP3    H211770   0.332   3.780   3.932  0.1931  0.9737 -0.0574
 3936TIP3   OH211771   2.417   4.295   5.218 -0.6046 -0.1323 -0.2795
 3936TIP3    H111772   2.399   4.380   5.178 -1.7644  0.3946  1.2867
 3936TIP3    H211773   2.472   4.314   5.293 -0.6977 -0.7838 -0.0401
 3937TIP3   OH211774   5.882   1.064   2.661  0.1174 -0.1890 -0.3016
 3937TIP3    H111775   5.811   1.097   2.606  0.5512  0.6873 -0.3531
 3937TIP3    H211776   5.837   1.017   2.731 -0.4559 -0.9168 -1.1344
 3938TIP3   OH211777   1.653   5.051   4.288 -0.2130  0.0675 -0.4011
 3938TIP3    H111778   1.734   5.101   4.295  0.1838 -0.6601  0.5002
 3938TIP3    H211779   1.589   5.099   4.341  0.0185 -0.0813  0.0202
 3939TIP3   OH211780   6.843   0.969   3.317 -0.0543  1.1942  0.0808
 3939TIP3    H111781   6.818   0.902   3.381  0.1057  1.1338  0.0813
 3939TIP3    H211782   6.844   0.922   3.233 -1.2345  1.4970 -0.1169
 3940TIP3   OH211783   4.088   6.663   2.840  0.3584  0.0542 -0.5220
 3940TIP3    H111784   4.126   6.608   2.772 -0.1229  0.0282 -0.7741
 3940TIP3    H211785   4.002   6.624   2.858 -0.9574  1.9419 -2.2482
 3941TIP3   OH211786   5.210   5.659   4.443 -0.3501 -0.5089 -0.0857
 3941TIP3    H111787   5.202   5.629   4.533 -1.1722 -0.0036  0.0290
 3941TIP3    H211788   5.304   5.661   4.425 -0.0533  1.2929  1.4213
 3942TIP3   OH211789   2.397   2.654   1.765  0.3644  0.2190  0.2171
 3942TIP3    H111790   2.396   2.639   1.859 -0.7324  2.7684  0.6899
 3942TIP3    H211791   2.466   2.720   1.752  1.2842 -0.9034 -0.9611
 3943TIP3   OH211792   0.338   1.659   4.568  0.5566 -0.1545  0.3430
 3943TIP3    H111793   0.357   1.645   4.475 -1.3831 -0.4423 -0.0473
 3943TIP3    H211794   0.332   1.754   4.577  0.9840 -0.1151  0.2308
 3944TIP3   OH211795   2.102   1.796   0.783 -0.1602  0.1611  0.3147
 3944TIP3    H111796   2.036   1.792   0.714 -1.4784  2.7660  1.2842
 3944TIP3    H211797   2.052   1.788   0.865  0.9785  0.2490  1.0496
 3945TIP3   OH211798   3.465   5.488   3.817 -0.0666 -0.1236  0.2510
 3945TIP3    H111799   3.503   5.454   3.736  1.4496  0.9915  0.4488
 3945TIP3    H211800   3.434   5.576   3.795 -0.2295 -0.0601  0.7242
 3946TIP3   OH211801   4.968   1.181   3.977  0.3390  0.4937  0.1542
 3946TIP3    H111802   5.040   1.122   4.000 -0.6461 -0.3616  1.2128
 3946TIP3    H211803   5.011   1.260   3.946  1.7618  0.4032  1.7304
 3947TIP3   OH211804   4.010   1.974   1.350 -0.3919  0.2112 -0.4907
 3947TIP3    H111805   4.104   1.952   1.347 -0.5532 -0.8544  1.1885
 3947TIP3    H211806   3.967   1.899   1.308 -0.5716  0.1255 -0.1508
 3948TIP3   OH211807   2.141   6.455   5.824 -0.1393  0.1216  0.8872
 3948TIP3    H111808   2.050   6.428   5.837  0.7879 -2.7607  2.1907
 3948TIP3    H211809   2.140   6.550   5.837 -2.8541  0.0921  1.3762
 3949TIP3   OH211810   0.189   1.906   4.603 -0.1566  0.2397 -0.5606
 3949TIP3    H111811   0.098   1.891   4.629 -0.1394  0.1893 -0.5301
 3949TIP3    H211812   0.184   1.924   4.509  0.1090 -2.8958 -1.2800
 3950TIP3   OH211813   2.147   2.952   2.915  0.3160 -0.3595  0.1940
 3950TIP3    H111814   2.087   3.026   2.902  0.5620 -0.0428  0.8337
 3950TIP3    H211815   2.214   2.964   2.847 -0.0661 -0.4403 -0.2066
 3951TIP3   OH211816   5.903   0.362   4.667  0.1928 -0.0978  0.4049
 3951TIP3    H111817   5.948   0.291   4.713  1.0896  0.6232  0.6807
 3951TIP3    H211818   5.831   0.386   4.725  0.8110  0.2390  1.0531
 3952TIP3   OH211819   2.161   2.906   4.808 -0.6853  0.1439  0.5394
 3952TIP3    H111820   2.155   2.932   4.716 -1.3952 -0.4951  0.3962
 3952TIP3    H211821   2.246   2.940   4.837 -0.0917 -0.3378 -0.5751
 3953TIP3   OH211822   4.933   5.198   0.215  0.3887 -0.6645  0.0612
 3953TIP3    H111823   4.952   5.179   0.123 -0.2001 -2.1623  0.2326
 3953TIP3    H211824   4.875   5.274   0.211  1.0876 -0.1512 -0.7502
 3954TIP3   OH211825   2.835   4.874   4.359  0.2834 -0.5801  0.3709
 3954TIP3    H111826   2.866   4.940   4.297  1.9814 -0.8846  0.8488
 3954TIP3    H211827   2.908   4.862   4.420 -1.5642  0.3123  2.9771
 3955TIP3   OH211828   6.423   3.337   3.335  0.5834 -0.2702 -0.1210
 3955TIP3    H111829   6.461   3.390   3.264  0.7002 -0.5834 -0.2965
 3955TIP3    H211830   6.471   3.254   3.331  0.2358 -0.4784 -0.0062
 3956TIP3   OH211831   5.331   2.007   5.755  0.2157 -0.0092 -0.3260
 3956TIP3    H111832   5.330   1.971   5.666 -1.0411  0.2491 -0.4332
 3956TIP3    H211833   5.315   1.932   5.812  0.1569 -0.0377 -0.3796
 3957TIP3   OH211834   6.692   1.201   3.117 -0.0853 -0.4992  0.0262
 3957TIP3    H111835   6.638   1.162   3.186  0.3114 -1.8632 -0.4170
 3957TIP3    H211836   6.643   1.187   3.037  0.6000 -1.1650 -0.2915
 3958TIP3   OH211837   4.575   2.538   2.874 -0.6106 -0.2566 -0.0437
 3958TIP3    H111838   4.660   2.581   2.879 -1.0090  0.4681  0.8233
 3958TIP3    H211839   4.524   2.579   2.944 -1.4179 -1.2349 -0.0426
 3959TIP3   OH211840   2.966   1.222   5.771  0.2549  0.0454 -0.0790
 3959TIP3    H111841   2.981   1.157   5.839  1.7245  2.4448  2.0671
 3959TIP3    H211842   2.883   1.263   5.794  1.2768  1.6100  1.0451
 3960TIP3   OH211843   4.324   5.501   2.449 -0.1368  0.1931  0.3190
 3960TIP3    H111844   4.386   5.464   2.386 -2.0747 -1.1258 -0.9142
 3960TIP3    H211845   4.342   5.455   2.530  0.4380 -0.2173 -0.0331
 3961TIP3   OH211846   1.646   6.014   3.928  0.5916 -0.1663  0.9442
 3961TIP3    H111847   1.554   5.988   3.931  0.3949  0.6364  2.7868
 3961TIP3    H211848   1.647   6.107   3.947  1.7317  0.0555 -0.0337
 3962TIP3   OH211849   5.399   3.675   2.147 -0.1102  0.0314  0.4134
 3962TIP3    H111850   5.381   3.758   2.102  0.3990  0.0128  0.1690
 3962TIP3    H211851   5.313   3.641   2.170 -0.3985 -0.1397 -0.8748
 3963TIP3   OH211852   2.709   4.670   0.355 -0.0717 -1.0399 -0.3542
 3963TIP3    H111853   2.749   4.615   0.423  0.7508 -0.4886 -0.3707
 3963TIP3    H211854   2.639   4.717   0.400  1.2590  0.2597  0.4615
 3964TIP3   OH211855   6.588   6.341   5.011 -0.9674 -0.1756 -0.0744
 3964TIP3    H111856   6.506   6.373   5.049 -1.7484 -0.5503 -1.3914
 3964TIP3    H211857   6.602   6.395   4.934 -0.2191 -0.4401 -0.1370
 3965TIP3   OH211858   6.924   3.127   1.879 -0.1640  0.2153 -0.0928
 3965TIP3    H111859   6.934   3.137   1.973 -0.4894  0.4745 -0.0833
 3965TIP3    H211860   6.992   3.064   1.854  0.3366  0.6258  0.2165
 3966TIP3   OH211861   5.756   3.732   4.048  0.0492  0.2249 -0.1285
 3966TIP3    H111862   5.733   3.673   4.120 -0.3748  2.1585  1.4101
 3966TIP3    H211863   5.680   3.790   4.039  0.1234  0.0757 -2.1172
 3967TIP3   OH211864   6.837   0.131   4.872 -0.2029  0.1996  0.1552
 3967TIP3    H111865   6.862   0.047   4.909 -0.3985  0.2039  0.2955
 3967TIP3    H211866   6.918   0.164   4.832 -0.3501 -0.5019 -0.7753
 3968TIP3   OH211867   1.813   4.450   3.802 -0.0655  0.3661 -0.2885
 3968TIP3    H111868   1.750   4.389   3.840 -0.4025  0.1041 -1.2410
 3968TIP3    H211869   1.888   4.447   3.862 -0.8843  0.5849  0.7875
 3969TIP3   OH211870   5.551   2.971   0.983  0.4608  0.4783 -0.3177
 3969TIP3    H111871   5.578   3.052   1.027  2.2827  0.7705 -1.8155
 3969TIP3    H211872   5.467   2.949   1.023  1.0723  1.7469  1.8788
 3970TIP3   OH211873   2.867   2.200   1.654  0.3857  0.5261  0.2447
 3970TIP3    H111874   2.886   2.151   1.733  0.0311 -0.6699 -0.3840
 3970TIP3    H211875   2.782   2.167   1.625  0.1349  1.5243 -0.1983
 3971TIP3   OH211876   4.103   1.000   1.297 -0.3520  0.2376  0.1399
 3971TIP3    H111877   4.118   0.971   1.208 -0.4245  2.0922 -0.5306
 3971TIP3    H211878   4.037   0.940   1.332 -0.4174 -0.4291 -1.1062
 3972TIP3   OH211879   5.866   6.701   1.027 -0.0916  0.2941 -0.0442
 3972TIP3    H111880   5.787   6.682   1.078 -0.8222  0.3153 -1.1323
 3972TIP3    H211881   5.839   6.689   0.936  1.7217 -1.8867 -0.3849
 3973TIP3   OH211882   0.811   5.923   0.194  0.0396  0.0617 -0.2938
 3973TIP3    H111883   0.848   5.936   0.107 -0.9161  1.3784 -0.5457
 3973TIP3    H211884   0.723   5.960   0.188 -0.3829 -0.6765  0.9817
 3974TIP3   OH211885   6.745   3.278   3.141  0.1780 -0.0770 -0.2437
 3974TIP3    H111886   6.678   3.314   3.083 -0.1000  1.1211  0.7882
 3974TIP3    H211887   6.702   3.206   3.186 -1.1189  1.9017  1.8668
 3975TIP3   OH211888   2.354   4.523   0.460 -0.4483  0.2634  0.2321
 3975TIP3    H111889   2.291   4.595   0.453  0.5922  1.0974 -1.4891
 3975TIP3    H211890   2.393   4.518   0.373  2.7837  0.6962  1.5042
 3976TIP3   OH211891   0.927   1.649   4.443 -0.2007  0.2690  0.0271
 3976TIP3    H111892   0.995   1.691   4.496 -0.4251 -0.6924  1.1192
 3976TIP3    H211893   0.845   1.691   4.471 -0.0394  2.1159 -1.9674
 3977TIP3   OH211894   5.428   1.441   4.881 -0.6514  0.1253 -0.6192
 3977TIP3    H111895   5.419   1.455   4.786 -2.5598  0.6605 -0.4121
 3977TIP3    H211896   5.371   1.366   4.899 -0.9866  0.5735  0.2280
 3978TIP3   OH211897   2.470   0.768   2.723  0.1162  0.2992 -0.5016
 3978TIP3    H111898   2.538   0.705   2.748 -1.3553 -1.0479  0.3154
 3978TIP3    H211899   2.509   0.854   2.738  1.2872 -0.4472  0.9391
 3979TIP3   OH211900   3.233   2.066   4.724 -0.3279 -0.4074  0.1856
 3979TIP3    H111901   3.187   2.071   4.640  1.6530 -0.9426 -1.0139
 3979TIP3    H211902   3.248   1.972   4.738 -0.2863 -0.2960  0.9352
 3980TIP3   OH211903   5.036   4.071   4.480 -0.0460  0.3561 -0.2242
 3980TIP3    H111904   5.120   4.029   4.462 -0.3364 -0.7367  0.8160
 3980TIP3    H211905   5.058   4.140   4.543  0.1920  0.6906 -0.6651
 3981TIP3   OH211906   3.796   6.507   2.205 -0.1450 -0.3433  0.0447
 3981TIP3    H111907   3.748   6.586   2.227 -1.4297 -0.4735 -1.9713
 3981TIP3    H211908   3.796   6.505   2.109  3.5378 -0.6087 -0.1257
 3982TIP3   OH211909   5.214   0.533   2.678 -0.3320  0.3132 -0.1362
 3982TIP3    H111910   5.306   0.539   2.652  0.0105  0.2880  1.0058
 3982TIP3    H211911   5.182   0.455   2.633 -0.0006  0.7219 -1.1098
 3983TIP3   OH211912   6.771   4.739   2.472 -0.0253 -0.0305  0.0667
 3983TIP3    H111913   6.841   4.802   2.457  0.9021 -1.4835 -2.2167
 3983TIP3    H211914   6.692   4.784   2.443  0.7008 -0.0535 -2.1299
 3984TIP3   OH211915   3.714   0.769   2.588 -0.3323 -0.0587 -0.2123
 3984TIP3    H111916   3.642   0.797   2.532  0.5141  1.8961 -0.4290
 3984TIP3    H211917   3.737   0.682   2.557 -2.4188 -0.6275 -0.2743
 3985TIP3   OH211918   6.389   4.179   5.308  0.1725 -0.3196  0.2659
 3985TIP3    H111919   6.452   4.187   5.379  0.8577 -0.1268 -0.3478
 3985TIP3    H211920   6.316   4.236   5.334  1.2557  1.2914 -0.0561
 3986TIP3   OH211921   2.182   0.017   2.744  0.4052 -0.2418  0.1787
 3986TIP3    H111922   2.124   0.091   2.764  0.7022  0.4378 -1.3496
 3986TIP3    H211923   2.270   0.054   2.751  0.6230 -0.8854  0.9854
 3987TIP3   OH211924   1.694   1.500   3.175 -0.2851 -0.7622  0.0648
 3987TIP3    H111925   1.743   1.433   3.223 -0.1618 -0.5550  0.2258
 3987TIP3    H211926   1.748   1.579   3.181 -1.2908 -0.1235  1.4936
 3988TIP3   OH211927   0.290   2.894   4.729 -0.3853 -0.3997 -0.0604
 3988TIP3    H111928   0.246   2.887   4.645 -0.3479  0.9456 -0.2130
 3988TIP3    H211929   0.219   2.895   4.793 -0.5098  0.2023 -0.1993
 3989TIP3   OH211930   0.650   3.470   5.326  0.0654 -0.0934 -0.2519
 3989TIP3    H111931   0.599   3.403   5.371  0.3110 -0.1709 -0.0881
 3989TIP3    H211932   0.617   3.469   5.236 -1.4449  1.0599  0.2430
 3990TIP3   OH211933   6.922   4.360   1.347 -0.0881 -0.3086 -0.3652
 3990TIP3    H111934   6.874   4.428   1.300  0.8597 -0.0699 -1.0264
 3990TIP3    H211935   6.986   4.407   1.399 -1.3573 -0.5522  1.5078
 3991TIP3   OH211936   3.680   2.345   2.204  0.2720 -0.7904 -0.0450
 3991TIP3    H111937   3.679   2.437   2.177  1.5055 -0.8798 -0.4250
 3991TIP3    H211938   3.587   2.322   2.210 -0.0843  0.7658  1.1067
 3992TIP3   OH211939   4.064   0.787   3.108  0.5279 -0.4386 -0.3016
 3992TIP3    H111940   4.117   0.833   3.173  0.8120 -0.4294 -0.5391
 3992TIP3    H211941   3.974   0.794   3.140  0.5442  0.4555 -0.4398
 3993TIP3   OH211942   0.465   2.009   3.904  0.4953 -0.3725 -0.7827
 3993TIP3    H111943   0.446   1.959   3.825  0.3054  1.2162 -1.7927
 3993TIP3    H211944   0.385   2.061   3.918  0.0169 -1.5613  1.2136
 3994TIP3   OH211945   6.958   4.245   2.989  0.0071  0.3397  0.0257
 3994TIP3    H111946   6.890   4.228   2.924  0.0334 -0.9175  0.2937
 3994TIP3    H211947   7.039   4.252   2.938  0.1314 -1.3183 -0.0535
 3995TIP3   OH211948   6.409   2.076   4.643 -0.0447  0.6755 -0.7421
 3995TIP3    H111949   6.437   2.071   4.551  1.1973  0.1120 -0.3512
 3995TIP3    H211950   6.438   2.162   4.673 -0.8430  1.0427 -0.9784
 3996TIP3   OH211951   2.807   4.922   5.523  0.8612 -0.6652  0.0250
 3996TIP3    H111952   2.719   4.958   5.518  0.5438 -1.3938  0.1956
 3996TIP3    H211953   2.859   4.977   5.465 -0.1091 -1.3807 -1.5726
 3997TIP3   OH211954   2.268   1.471   4.817 -0.3108 -0.2590 -0.0597
 3997TIP3    H111955   2.295   1.380   4.829 -3.4759 -1.1691  0.9303
 3997TIP3    H211956   2.331   1.522   4.868  0.3650 -2.0540  0.9750
 3998TIP3   OH211957   3.902   1.669   4.927 -0.1138 -0.8785 -0.2670
 3998TIP3    H111958   3.920   1.763   4.933 -2.6078 -0.2709 -1.1584
 3998TIP3    H211959   3.912   1.649   4.834 -0.7443 -1.2131 -0.2674
 3999TIP3   OH211960   6.518   2.383   2.546  0.2083  0.2112 -0.3335
 3999TIP3    H111961   6.608   2.384   2.512  0.4016 -1.8618 -0.0030
 3999TIP3    H211962   6.472   2.321   2.491 -1.2517  1.7334 -0.9125
 4000TIP3   OH211963   0.613   0.351   0.582 -0.1796 -0.5589  0.6066
 4000TIP3    H111964   0.627   0.384   0.670  3.4115  1.5896 -0.5640
 4000TIP3    H211965   0.693   0.303   0.560  0.5354  1.7042 -2.4841
 4001TIP3   OH211966   2.918   0.790   5.852 -0.3737 -0.1340  0.4205
 4001TIP3    H111967   2.989   0.845   5.882 -1.8398  1.7236  0.6492
 4001TIP3    H211968   2.907   0.812   5.760  0.0180 -1.2200  0.0906
 4002TIP3   OH211969   4.895   1.823   3.282  0.4111  0.3953  0.2182
 4002TIP3    H111970   4.849   1.900   3.248 -0.6602  0.5387  1.8825
 4002TIP3    H211971   4.913   1.845   3.374  0.9121 -0.9760  0.4647
 4003TIP3   OH211972   0.146   3.367   4.680 -0.0677 -0.1250 -0.3956
 4003TIP3    H111973   0.220   3.420   4.707  0.0489 -1.0367  1.1910
 4003TIP3    H211974   0.127   3.396   4.590 -0.7389  3.3706  0.7243
 4004TIP3   OH211975   4.319   1.168   0.112  0.3973  0.1602 -0.0375
 4004TIP3    H111976   4.307   1.244   0.055  2.4334 -0.6056 -1.5929
 4004TIP3    H211977   4.413   1.151   0.110  0.0716 -2.0125  0.7950
 4005TIP3   OH211978   5.949   0.813   2.456 -0.8736 -0.6001 -0.0374
 4005TIP3    H111979   5.972   0.831   2.547 -1.3043  3.1522 -0.5220
 4005TIP3    H211980   6.030   0.779   2.418 -0.1323 -0.4581  1.3432
 4006TIP3   OH211981   6.930   1.731   2.918  0.2022 -0.2578 -0.2645
 4006TIP3    H111982   6.886   1.756   2.837 -0.5364 -3.2988 -0.9516
 4006TIP3    H211983   6.900   1.794   2.983 -1.3758  0.6204 -1.7725
 4007TIP3   OH211984   3.913   1.514   3.636  0.0958  0.3264  0.0455
 4007TIP3    H111985   3.983   1.464   3.677 -0.6935 -1.0155 -0.1707
 4007TIP3    H211986   3.948   1.542   3.552  1.1114  1.5735  0.8552
 4008TIP3   OH211987   4.298   1.130   3.265 -0.1223 -0.0470 -0.2040
 4008TIP3    H111988   4.269   1.191   3.332 -0.4787 -1.2291  0.7504
 4008TIP3    H211989   4.253   1.158   3.185 -0.0701  1.0791  0.1564
 4009TIP3   OH211990   5.906   1.865   5.652  0.1846 -0.6773  0.8045
 4009TIP3    H111991   5.830   1.906   5.612  0.8431 -0.2662 -0.0357
 4009TIP3    H211992   5.942   1.932   5.710  1.2219 -0.0497 -0.5191
 4010TIP3   OH211993   7.034   1.004   4.884  0.8512  0.3180 -0.3003
 4010TIP3    H111994   6.997   0.965   4.804  0.4666 -0.2117  0.1244
 4010TIP3    H211995   7.025   1.098   4.871  3.4728  0.4175 -2.1482
 4011TIP3   OH211996   6.558   5.692   2.661  0.3247  0.2087 -0.2908
 4011TIP3    H111997   6.512   5.730   2.736  1.9778  2.6246 -0.3987
 4011TIP3    H211998   6.505   5.716   2.585 -0.5789 -0.9783 -0.0626
 4012TIP3   OH211999   4.364   4.908   4.528  0.1214 -0.7905  0.5226
 4012TIP3    H112000   4.291   4.955   4.567  1.0274  1.9534 -0.8080
 4012TIP3    H212001   4.434   4.912   4.593  0.1727 -0.3262  0.4395
 4013TIP3   OH212002   2.873   0.192   4.089  0.4334 -0.0538 -0.0961
 4013TIP3    H112003   2.826   0.116   4.055 -0.5024  0.1314  0.7446
 4013TIP3    H212004   2.965   0.170   4.078  0.1937 -1.5373  0.6064
 4014TIP3   OH212005   5.415   5.894   5.169  0.4256  0.1311 -0.2767
 4014TIP3    H112006   5.351   5.960   5.141  2.0233  0.6913 -3.0534
 4014TIP3    H212007   5.481   5.894   5.099  1.0329 -3.7307  0.0531
 4015TIP3   OH212008   2.305   0.756   1.931 -0.4934 -0.1876  0.3525
 4015TIP3    H112009   2.378   0.694   1.931 -0.7441 -0.5527 -1.8774
 4015TIP3    H212010   2.229   0.704   1.903 -1.0429  0.7702  0.0221
 4016TIP3   OH212011   0.358   4.521   5.075 -0.6325 -0.3665 -0.6534
 4016TIP3    H112012   0.431   4.567   5.033  0.5033 -0.4821  1.0802
 4016TIP3    H212013   0.379   4.428   5.063 -0.7418 -0.4026 -0.5642
 4017TIP3   OH212014   1.488   4.178   1.505  0.0268  0.0205  0.1060
 4017TIP3    H112015   1.527   4.211   1.586  0.4982  0.7983 -0.4209
 4017TIP3    H212016   1.402   4.145   1.531  0.3475 -0.1305  0.9907
 4018TIP3   OH212017   5.677   2.300   5.855 -0.0245 -0.1465 -0.2049
 4018TIP3    H112018   5.601   2.247   5.835 -0.8907  0.8568  0.3215
 4018TIP3    H212019   5.658   2.385   5.815 -1.0495  1.4020  3.2229
 4019TIP3   OH212020   5.283   0.916   2.151 -0.2365 -0.5055  0.1204
 4019TIP3    H112021   5.271   0.864   2.231  3.4749  0.9927  1.8733
 4019TIP3    H212022   5.268   1.006   2.178 -0.6958 -0.1019 -1.3831
 4020TIP3   OH212023   3.970   1.977   2.204 -0.6463 -0.1778 -0.0971
 4020TIP3    H112024   3.914   2.010   2.274  0.1268 -2.2321  1.6189
 4020TIP3    H212025   4.057   1.970   2.243 -0.3126 -1.9917 -1.0020
 4021TIP3   OH212026   1.850   5.368   3.729 -0.6497  0.3104 -0.1461
 4021TIP3    H112027   1.786   5.333   3.790  1.5189 -0.7426  1.6596
 4021TIP3    H212028   1.814   5.346   3.642 -2.6506 -0.3078  0.7703
 4022TIP3   OH212029   6.381   1.517   5.590 -0.5212 -0.0820  0.0046
 4022TIP3    H112030   6.435   1.459   5.644 -0.1961 -0.2868 -0.5396
 4022TIP3    H212031   6.298   1.470   5.581 -0.3168 -0.3855 -0.2947
 4023TIP3   OH212032   3.506   3.778   4.491  0.3825 -0.1454 -0.4131
 4023TIP3    H112033   3.448   3.709   4.526 -0.5421  0.4946 -0.6465
 4023TIP3    H212034   3.526   3.833   4.567 -1.3786  1.0686 -0.7655
 4024TIP3   OH212035   0.343   3.288   1.988  0.0071  0.1834 -0.3343
 4024TIP3    H112036   0.296   3.361   1.947 -0.7843  0.2357  0.6295
 4024TIP3    H212037   0.329   3.301   2.082 -0.2568 -1.2880 -0.1590
 4025TIP3   OH212038   2.630   3.366   4.400 -0.1469 -0.3472 -0.3916
 4025TIP3    H112039   2.657   3.274   4.395  2.5539  0.3889 -1.0561
 4025TIP3    H212040   2.656   3.393   4.488  0.0731  0.0300 -0.5699
 4026TIP3   OH212041   3.302   0.686   0.843  0.0863  0.2798 -0.1913
 4026TIP3    H112042   3.267   0.658   0.758  2.6917 -0.7826 -0.9949
 4026TIP3    H212043   3.336   0.774   0.827 -0.0988  0.3842 -0.0221
 4027TIP3   OH212044   4.513   0.743   1.670  0.2056 -0.2702  0.2060
 4027TIP3    H112045   4.474   0.810   1.727  2.2851  0.2540  1.1195
 4027TIP3    H212046   4.492   0.660   1.712  1.0274  0.0691  1.3336
 4028TIP3   OH212047   4.957   0.099   2.410  0.1140  0.0183  0.0007
 4028TIP3    H112048   4.883   0.048   2.442  1.2958  0.6215  4.3643
 4028TIP3    H212049   5.034   0.051   2.442  1.2982  3.8669  3.8994
 4029TIP3   OH212050   6.002   3.400   3.380 -0.2078  0.2371  0.3256
 4029TIP3    H112051   6.003   3.360   3.293 -2.5201  0.5581  0.1012
 4029TIP3    H212052   6.017   3.326   3.440  1.9786  0.1012 -0.2987
 4030TIP3   OH212053   3.930   6.229   2.047  0.7203 -0.1953  0.1182
 4030TIP3    H112054   3.891   6.142   2.039  1.8046 -0.8602  1.5029
 4030TIP3    H212055   3.898   6.277   1.971  1.3101 -2.2862 -1.5556
 4031TIP3   OH212056   0.253   6.663   4.924  0.2380 -0.0948 -0.1655
 4031TIP3    H112057   0.235   6.752   4.895  0.5881 -0.5159 -1.7795
 4031TIP3    H212058   0.330   6.636   4.873  0.6235 -1.0441  0.8775
 4032TIP3   OH212059   2.256   2.527   0.298 -0.1689 -0.5439  0.0662
 4032TIP3    H112060   2.224   2.506   0.210 -1.2897  0.9868  0.0663
 4032TIP3    H212061   2.308   2.606   0.287  1.5837 -1.5911  0.4772
 4033TIP3   OH212062   1.632   0.414   1.254  0.6331 -0.3940 -0.0345
 4033TIP3    H112063   1.580   0.336   1.237  0.0722  0.1466 -0.9108
 4033TIP3    H212064   1.709   0.405   1.199  1.0658 -0.8000  0.6302
 4034TIP3   OH212065   5.652   3.814   0.996  0.1206 -0.2331 -0.5303
 4034TIP3    H112066   5.665   3.899   0.953 -0.4673  0.3950  0.4742
 4034TIP3    H212067   5.739   3.792   1.031 -0.3050  1.6027  2.0163
 4035TIP3   OH212068   1.864   2.449   3.368  0.3803 -0.3310 -0.3787
 4035TIP3    H112069   1.946   2.483   3.405  1.1399 -1.9596 -0.4664
 4035TIP3    H212070   1.867   2.475   3.275 -0.3586  1.6151  0.0764
 4036TIP3   OH212071   4.160   0.732   4.313  0.6712 -0.1137 -0.3891
 4036TIP3    H112072   4.080   0.685   4.291  0.2587 -0.8842  2.3492
 4036TIP3    H212073   4.228   0.664   4.313  0.9803  0.1911 -0.9219
 4037TIP3   OH212074   5.196   6.543   0.362 -0.3781  0.0562 -0.3008
 4037TIP3    H112075   5.123   6.533   0.301  0.1858 -0.3660 -0.9131
 4037TIP3    H212076   5.227   6.454   0.377 -1.2681 -0.0052  1.5645
 4038TIP3   OH212077   4.553   5.771   0.040  0.4540  0.1304  0.0949
 4038TIP3    H112078   4.568   5.771   0.135  1.8562 -2.2874 -0.0342
 4038TIP3    H212079   4.458   5.776   0.030  0.3053  0.7582  1.6102
 4039TIP3   OH212080   1.044   6.070   3.232  0.3609  0.3276  0.2824
 4039TIP3    H112081   1.004   6.157   3.245  0.4502  0.2971  0.7959
 4039TIP3    H212082   1.078   6.072   3.143  1.1656  1.1496  0.5954
 4040TIP3   OH212083   5.121   0.479   3.102  0.1595 -0.2868 -0.0795
 4040TIP3    H112084   5.038   0.454   3.141 -0.6565  1.3636 -0.6533
 4040TIP3    H212085   5.118   0.443   3.014  0.5839 -1.2400  0.2888
 4041TIP3   OH212086   6.232   3.317   2.741  0.4430 -0.0693 -0.0970
 4041TIP3    H112087   6.182   3.236   2.741  0.4205 -0.0665 -1.1555
 4041TIP3    H212088   6.167   3.387   2.746  0.4538 -0.1054  0.6326
 4042TIP3   OH212089   1.226   0.412   0.929 -0.0840 -0.6372  0.8961
 4042TIP3    H112090   1.143   0.400   0.884 -0.6601  0.7978  1.4940
 4042TIP3    H212091   1.280   0.338   0.902 -0.7652 -0.3847 -1.3030
 4043TIP3   OH212092   2.338   0.238   3.194 -0.0177  0.1447  0.1310
 4043TIP3    H112093   2.329   0.240   3.289 -0.4027  1.2859  0.0901
 4043TIP3    H212094   2.373   0.151   3.175 -2.6410 -1.2419  1.0711
 4044TIP3   OH212095   5.228   4.807   5.874 -0.7806 -0.4107  0.5379
 4044TIP3    H112096   5.214   4.879   5.935 -0.8793  0.4353 -0.4472
 4044TIP3    H212097   5.157   4.815   5.811  0.4670  0.0303 -0.8765
 4045TIP3   OH212098   1.729   6.295   5.016  0.2097 -0.7260 -0.2162
 4045TIP3    H112099   1.772   6.288   5.102 -2.0194 -0.6321  0.9749
 4045TIP3    H212100   1.654   6.237   5.023  0.4975 -1.4460 -2.4926
 4046TIP3   OH212101   2.924   6.462   3.334  0.1153 -0.0219 -0.3052
 4046TIP3    H112102   2.999   6.471   3.393  1.1813 -0.5276 -1.5270
 4046TIP3    H212103   2.936   6.532   3.270 -0.5961  0.0348 -0.3842
 4047TIP3   OH212104   3.324   3.998   4.274 -0.6902 -0.7367 -0.0541
 4047TIP3    H112105   3.275   3.949   4.208  0.5787 -2.2222  0.0551
 4047TIP3    H212106   3.415   3.970   4.263 -0.2231  0.0886  1.3757
 4048TIP3   OH212107   3.616   4.283   1.804 -0.2889 -0.1429 -0.4256
 4048TIP3    H112108   3.596   4.226   1.729 -0.8253 -2.3881  1.3300
 4048TIP3    H212109   3.595   4.230   1.881  0.4447  2.0048  1.3496
 4049TIP3   OH212110   1.786   0.321   4.197 -0.0844  0.6699 -0.2013
 4049TIP3    H112111   1.723   0.389   4.174  0.9732  2.1277  0.9845
 4049TIP3    H212112   1.843   0.363   4.261  0.8458 -1.2432  0.2836
 4050TIP3   OH212113   6.690   1.236   2.600  0.0617 -0.1731 -0.4620
 4050TIP3    H112114   6.776   1.200   2.578 -0.4569 -1.6555 -0.1638
 4050TIP3    H212115   6.670   1.199   2.686  0.2283  2.1975  0.6885
 4051TIP3   OH212116   7.132   6.388   2.676 -0.2742  0.5296  0.6655
 4051TIP3    H112117   7.214   6.359   2.715  0.8799  0.9043 -1.3250
 4051TIP3    H212118   7.067   6.375   2.745  1.2332 -0.8981  1.9270
 4052TIP3   OH212119   4.544   3.041   4.068 -0.1935 -0.3327 -0.6438
 4052TIP3    H112120   4.539   3.121   4.015  0.3384  0.0051 -0.2039
 4052TIP3    H212121   4.454   3.009   4.073 -0.8307  1.5021  1.0663
 4053TIP3   OH212122   3.317   3.856   4.813 -0.7448  0.1846  0.0388
 4053TIP3    H112123   3.323   3.839   4.907  0.8548  1.6792  0.2648
 4053TIP3    H212124   3.238   3.811   4.785 -2.6363  1.6687  2.5594
 4054TIP3   OH212125   3.183   4.592   2.152 -0.2138 -0.7127 -0.0333
 4054TIP3    H112126   3.169   4.592   2.057 -1.2246  0.1485  0.0973
 4054TIP3    H212127   3.174   4.684   2.177  0.5744 -0.8590  0.8300
 4055TIP3   OH212128   5.125   6.044   2.333 -0.0309 -0.0819 -0.6311
 4055TIP3    H112129   5.099   5.974   2.392  2.0220 -0.6976 -0.3579
 4055TIP3    H212130   5.115   6.007   2.245  0.1007 -0.3621 -0.5288
 4056TIP3   OH212131   3.305   5.614   0.402 -0.4233 -0.1557  0.3507
 4056TIP3    H112132   3.337   5.609   0.312  1.6987 -0.9750  1.0981
 4056TIP3    H212133   3.217   5.577   0.398 -0.9891  1.2721 -1.6345
 4057TIP3   OH212134   5.220   2.349   3.535  0.4494 -0.6497  0.7742
 4057TIP3    H112135   5.238   2.311   3.449 -0.0044  1.2525 -0.2263
 4057TIP3    H212136   5.303   2.344   3.582  0.6366 -1.9613  0.3347
 4058TIP3   OH212137   6.578   4.306   4.769  0.2692 -0.3871 -0.3311
 4058TIP3    H112138   6.557   4.341   4.683 -1.6789  0.0810  0.2947
 4058TIP3    H212139   6.494   4.298   4.814  1.3562  1.0433  2.1659
 4059TIP3   OH212140   5.710   1.013   1.442 -0.1065  0.4201 -0.2669
 4059TIP3    H112141   5.732   1.002   1.534 -1.2723  1.2319  0.1293
 4059TIP3    H212142   5.615   1.025   1.441 -0.0907  0.6097 -1.5590
 4060TIP3   OH212143   0.340   2.939   0.506 -0.2421  0.1836  0.0969
 4060TIP3    H112144   0.339   2.844   0.496  0.6385  0.1922 -0.1499
 4060TIP3    H212145   0.250   2.967   0.486  0.1569 -0.2998 -2.9146
 4061TIP3   OH212146   4.414   3.025   3.148 -0.2292 -0.0825 -0.0857
 4061TIP3    H112147   4.362   3.106   3.155  0.0294  0.1418 -0.6842
 4061TIP3    H212148   4.402   2.981   3.232 -1.6372 -0.1781 -0.3159
 4062TIP3   OH212149   1.444   2.572   4.293 -0.6888  0.0326  0.3447
 4062TIP3    H112150   1.491   2.546   4.372 -2.2052 -0.7342  1.0292
 4062TIP3    H212151   1.356   2.593   4.323 -1.0123  0.7457 -1.0102
 4063TIP3   OH212152   3.240   2.108   2.641  0.2320  0.1214  0.2275
 4063TIP3    H112153   3.193   2.156   2.572 -0.8556 -0.1282  0.7731
 4063TIP3    H212154   3.171   2.062   2.688  1.1389 -0.9883  0.4895
 4064TIP3   OH212155   5.512   3.621   1.153  0.6537 -0.4948  0.6677
 4064TIP3    H112156   5.576   3.550   1.142 -0.0599 -1.2057  1.0358
 4064TIP3    H212157   5.555   3.697   1.113  0.9501 -1.3820 -0.7997
 4065TIP3   OH212158   4.184   3.277   0.230 -0.0481  0.2867 -0.3482
 4065TIP3    H112159   4.150   3.188   0.236 -0.5269  0.4835 -0.1334
 4065TIP3    H212160   4.265   3.268   0.180  0.7549 -0.5019  1.0185
 4066TIP3   OH212161   3.262   0.270   0.358  0.5194  0.3325 -0.1773
 4066TIP3    H112162   3.239   0.249   0.268 -0.5776  0.0454  0.1532
 4066TIP3    H212163   3.185   0.313   0.394 -0.5402 -2.8116  1.6853
 4067TIP3   OH212164   0.517   4.155   3.332 -0.7142 -0.0025 -0.7361
 4067TIP3    H112165   0.487   4.097   3.402  0.5084 -1.2200 -1.1890
 4067TIP3    H212166   0.497   4.243   3.363  1.8458 -0.3149  2.2239
 4068TIP3   OH212167   2.561   0.150   0.222 -0.4862 -0.7902 -0.3071
 4068TIP3    H112168   2.587   0.117   0.308 -1.1075 -0.9592 -0.1750
 4068TIP3    H212169   2.633   0.206   0.195  0.5114 -2.1345 -0.4716
 4069TIP3   OH212170   1.095   2.570   4.122 -0.1433  0.0077  0.0677
 4069TIP3    H112171   1.092   2.550   4.029 -2.2876 -1.2713  0.3366
 4069TIP3    H212172   1.052   2.495   4.164  0.8023  0.5221  2.1037
 4070TIP3   OH212173   6.624   3.972   1.217  0.0495  0.5392  0.1896
 4070TIP3    H112174   6.611   4.062   1.249 -1.3482 -0.1503  1.7695
 4070TIP3    H212175   6.629   3.919   1.297 -2.4322 -1.1736 -0.6664
 4071TIP3   OH212176   5.643   4.812   2.526  0.1278 -0.2829  0.0521
 4071TIP3    H112177   5.606   4.737   2.480 -0.6073  0.6532 -0.9277
 4071TIP3    H212178   5.736   4.790   2.538 -0.3644 -1.9702  1.1217
 4072TIP3   OH212179   5.664   1.989   1.658  0.1252  0.5175  0.0846
 4072TIP3    H112180   5.618   2.067   1.626  2.5504  1.9050 -0.2544
 4072TIP3    H212181   5.748   1.991   1.613  0.7160 -1.6856  0.9730
 4073TIP3   OH212182   3.405   3.873   2.048  0.4548 -0.3213 -0.3885
 4073TIP3    H112183   3.453   3.795   2.020 -0.3184 -0.6606 -0.8069
 4073TIP3    H212184   3.464   3.946   2.031  0.5998 -0.6701 -1.4517
 4074TIP3   OH212185   2.568   0.158   3.798 -0.0662  0.2478  0.6890
 4074TIP3    H112186   2.626   0.105   3.743 -2.3684  0.1279 -1.7747
 4074TIP3    H212187   2.569   0.244   3.758  0.1621  0.8909  2.0175
 4075TIP3   OH212188   2.130   5.323   3.783  0.0961  0.2071  0.7740
 4075TIP3    H112189   2.037   5.346   3.791 -0.3361 -0.4787 -1.4272
 4075TIP3    H212190   2.176   5.404   3.803 -1.0037  0.7362  1.2860
 4076TIP3   OH212191   5.275   1.988   1.222 -0.3588 -0.1016 -0.1682
 4076TIP3    H112192   5.292   1.895   1.240  0.8467  0.2640  0.8053
 4076TIP3    H212193   5.309   2.002   1.134 -2.2465 -0.9617 -1.0855
 4077TIP3   OH212194   2.024   2.102   3.977 -0.5704  0.5280 -0.0892
 4077TIP3    H112195   2.048   2.111   4.069  0.7280  3.7112 -0.6161
 4077TIP3    H212196   1.929   2.097   3.977 -0.6037  0.6754  1.4205
 4078TIP3   OH212197   5.690   3.770   0.262 -0.0184 -0.4599  0.0679
 4078TIP3    H112198   5.770   3.820   0.253  0.7456 -1.4416  1.0874
 4078TIP3    H212199   5.685   3.748   0.355 -0.5379 -1.8967 -0.2673
 4079TIP3   OH212200   1.436   5.468   2.792 -0.6964  0.5536 -0.0874
 4079TIP3    H112201   1.521   5.470   2.836 -0.0317  0.5928 -1.3182
 4079TIP3    H212202   1.406   5.378   2.803  0.2107  0.1323 -0.8801
 4080TIP3   OH212203   2.656   0.554   5.373  0.2309  0.4824  0.1463
 4080TIP3    H112204   2.601   0.595   5.306  0.6073  0.4403 -0.1951
 4080TIP3    H212205   2.683   0.627   5.429 -1.3095  0.3194  1.1763
 4081TIP3   OH212206   2.820   6.525   0.223  0.0534  0.5356  0.7768
 4081TIP3    H112207   2.850   6.592   0.285 -0.1596  1.3872 -0.0225
 4081TIP3    H212208   2.746   6.566   0.177  0.4772  0.0817 -0.3433
 4082TIP3   OH212209   0.782   2.210   0.415 -0.1918  0.0032 -0.3873
 4082TIP3    H112210   0.787   2.298   0.376  0.0536 -0.4023 -1.3039
 4082TIP3    H212211   0.742   2.224   0.500  1.2682  1.2294  0.1516
 4083TIP3   OH212212   5.006   0.391   5.694 -0.6382 -0.6855 -0.1239
 4083TIP3    H112213   4.954   0.330   5.642  0.4835 -1.1673 -0.7173
 4083TIP3    H212214   5.049   0.337   5.760 -1.1521 -0.2424  0.5847
 4084TIP3   OH212215   1.091   0.762   4.000 -0.0538 -0.3154 -0.2351
 4084TIP3    H112216   1.045   0.705   4.063  0.5003  0.0832  0.5370
 4084TIP3    H212217   1.152   0.703   3.955  1.4514 -0.1356  1.4608
 4085TIP3   OH212218   0.939   3.201   1.426  0.2229 -0.3947 -0.0582
 4085TIP3    H112219   0.970   3.135   1.365 -0.3768 -2.3955  1.6797
 4085TIP3    H212220   0.933   3.156   1.510  0.9637  2.2019  1.5249
 4086TIP3   OH212221   2.779   0.304   1.395  0.5848  1.0111  0.3222
 4086TIP3    H112222   2.843   0.276   1.329  0.7909 -0.5365  1.1486
 4086TIP3    H212223   2.832   0.334   1.469  0.3820  0.0319  0.8820
 4087TIP3   OH212224   2.998   1.727   1.874 -0.0993  0.1766 -0.4513
 4087TIP3    H112225   2.962   1.690   1.793  1.1842 -0.1808 -0.8805
 4087TIP3    H212226   2.921   1.750   1.926 -1.1587 -4.9545  0.7653
 4088TIP3   OH212227   7.159   3.092   4.975  0.4423 -0.0951  0.2035
 4088TIP3    H112228   7.113   3.072   5.056 -1.8793 -0.0525 -1.0189
 4088TIP3    H212229   7.207   3.172   4.994 -0.0725 -0.0746  1.5358
 4089TIP3   OH212230   6.330   1.065   4.825 -0.0348 -0.1749 -0.4500
 4089TIP3    H112231   6.291   0.987   4.787  0.6348 -0.4326 -0.6163
 4089TIP3    H212232   6.384   1.033   4.897  1.1076  0.0119 -1.1950
 4090TIP3   OH212233   5.223   4.554   0.670 -0.2562  0.1595 -0.2000
 4090TIP3    H112234   5.157   4.586   0.609  1.1360  1.6586 -0.9907
 4090TIP3    H212235   5.215   4.612   0.746 -0.7731 -0.5613  0.3122
 4091TIP3   OH212236   6.641   1.147   2.113 -0.3530  0.2267  0.5114
 4091TIP3    H112237   6.603   1.065   2.083 -0.1274  0.3813 -0.2285
 4091TIP3    H212238   6.722   1.122   2.158  0.7083  0.1295 -1.3238
 4092TIP3   OH212239   6.083   5.808   2.052  0.0473 -0.2001 -0.7718
 4092TIP3    H112240   6.085   5.863   1.973 -0.1281  0.3856 -0.3769
 4092TIP3    H212241   6.009   5.843   2.103 -0.3323 -1.0776 -0.7053
 4093TIP3   OH212242   6.961   4.162   3.564  0.5730 -0.5712  0.4682
 4093TIP3    H112243   6.952   4.135   3.472 -2.9250  1.0204  0.1609
 4093TIP3    H212244   6.921   4.091   3.614  0.3423 -0.4049  0.5245
 4094TIP3   OH212245   1.371   3.990   3.626  0.0206  0.2466 -0.1954
 4094TIP3    H112246   1.392   3.908   3.670  1.8910 -0.0494 -1.5316
 4094TIP3    H212247   1.301   3.967   3.564 -2.6977  0.6829  2.4557
 4095TIP3   OH212248   3.583   4.700   0.220 -0.0063  0.2313 -0.6944
 4095TIP3    H112249   3.580   4.768   0.288 -2.5630 -0.6851  0.2203
 4095TIP3    H212250   3.664   4.718   0.172  1.2139  1.7570  1.7271
 4096TIP3   OH212251   7.055   1.382   1.650 -0.0785 -0.0005  0.1510
 4096TIP3    H112252   7.074   1.375   1.556 -0.0679 -0.8477  0.2094
 4096TIP3    H212253   7.113   1.452   1.680  1.0480 -0.7532 -0.1929
 4097TIP3   OH212254   6.407   0.231   3.521  0.6930 -0.0734 -0.3633
 4097TIP3    H112255   6.379   0.310   3.566 -0.6713 -1.1836  0.8487
 4097TIP3    H212256   6.331   0.204   3.469  0.9802 -0.8120 -0.4175
 4098TIP3   OH212257   6.306   5.279   1.970  0.2749 -0.3116 -0.0364
 4098TIP3    H112258   6.251   5.313   2.041  0.7443 -0.6199  0.4849
 4098TIP3    H212259   6.280   5.330   1.893 -0.8382 -0.5547  0.1630
 4099TIP3   OH212260   3.959   0.493   3.232 -0.2092 -0.0004 -0.3270
 4099TIP3    H112261   4.029   0.550   3.263 -0.4358  0.2213 -0.2108
 4099TIP3    H212262   3.889   0.553   3.206 -0.6190 -0.2339  0.2109
 4100TIP3   OH212263   5.751   0.424   0.114  0.1478 -0.0813 -0.0555
 4100TIP3    H112264   5.830   0.424   0.060 -0.4231 -0.9052 -0.9232
 4100TIP3    H212265   5.771   0.363   0.185 -0.3881 -1.9018 -1.3796
 4101TIP3   OH212266   3.464   3.013   2.702  0.3140 -0.5327 -0.0743
 4101TIP3    H112267   3.371   3.032   2.710  0.4894  0.1868  0.3694
 4101TIP3    H212268   3.470   2.918   2.712 -0.4346 -0.6612 -0.7870
 4102TIP3   OH212269   4.860   3.477   4.804 -0.1351  0.3590  0.4659
 4102TIP3    H112270   4.879   3.413   4.873 -2.0375  0.6089  1.2942
 4102TIP3    H212271   4.935   3.536   4.805  0.0708  0.1266  2.0640
 4103TIP3   OH212272   5.267   0.717   5.393 -0.7773 -0.1975  0.4220
 4103TIP3    H112273   5.285   0.731   5.300 -1.0338 -1.3760  0.1791
 4103TIP3    H212274   5.247   0.624   5.400 -0.1134 -0.2556  1.7785
 4104TIP3   OH212275   3.276   5.015   1.886  0.0934 -0.5390 -0.4270
 4104TIP3    H112276   3.278   5.111   1.887 -2.9610 -0.3700 -0.7201
 4104TIP3    H212277   3.206   4.993   1.825 -0.6154 -2.8949  1.0984
 4105TIP3   OH212278   5.281   5.645   3.270  0.1810  0.5373 -0.1955
 4105TIP3    H112279   5.316   5.731   3.243 -2.0783  1.5257 -0.2090
 4105TIP3    H212280   5.192   5.644   3.234 -0.5956 -0.9111  1.6305
 4106TIP3   OH212281   0.148   4.370   1.826  0.2705  0.0771  0.5894
 4106TIP3    H112282   0.109   4.306   1.767 -0.2694  0.0626  0.9552
 4106TIP3    H212283   0.216   4.323   1.873 -0.9400 -0.5727  1.7495
 4107TIP3   OH212284   4.093   0.816   4.001 -0.5910  0.2971  0.3036
 4107TIP3    H112285   4.130   0.835   4.087  1.5408  0.5742 -0.6119
 4107TIP3    H212286   4.036   0.890   3.982  2.5378  2.7439 -0.4282
 4108TIP3   OH212287   4.890   3.966   0.627 -0.6765  0.3479 -0.5435
 4108TIP3    H112288   4.871   4.040   0.685 -2.6603  0.2997 -1.0433
 4108TIP3    H212289   4.896   4.005   0.540  0.6289  0.2037 -0.5310
 4109TIP3   OH212290   2.746   2.492   5.196 -0.6464 -0.3430 -0.2974
 4109TIP3    H112291   2.737   2.566   5.135  1.3394 -1.3076 -1.8874
 4109TIP3    H212292   2.759   2.534   5.281 -1.5351  1.0858 -0.8135
 4110TIP3   OH212293   2.988   4.775   4.560 -1.0400  0.1199 -0.1590
 4110TIP3    H112294   2.985   4.838   4.632 -1.0367 -1.1963  1.0317
 4110TIP3    H212295   3.056   4.713   4.586  0.2682  0.6138 -2.1838
 4111TIP3   OH212296   5.077   1.311   2.710 -0.4120  0.4120  0.2727
 4111TIP3    H112297   5.117   1.225   2.707 -0.4487  0.4183 -1.3245
 4111TIP3    H212298   4.992   1.300   2.668 -0.4462  1.2119  0.1020
 4112TIP3   OH212299   1.591   6.181   1.048 -0.0574  0.0488  0.0946
 4112TIP3    H112300   1.525   6.147   0.987  1.3160 -0.9158 -0.9168
 4112TIP3    H212301   1.637   6.249   0.997 -1.4048  2.0344  1.3931
 4113TIP3   OH212302   6.220   5.631   1.577 -0.5738  0.3486  0.5629
 4113TIP3    H112303   6.212   5.577   1.498  1.4136  1.1697 -0.2665
 4113TIP3    H212304   6.152   5.698   1.567 -2.2584 -1.2029  1.0201
 4114TIP3   OH212305   0.657   6.090   1.917 -0.0397  0.2422  0.1720
 4114TIP3    H112306   0.634   6.010   1.965  0.8019 -0.2456 -0.2247
 4114TIP3    H212307   0.593   6.155   1.947 -0.9773 -0.6802  0.2009
 4115TIP3   OH212308   2.909   6.640   1.237  0.6163 -0.0374  0.0272
 4115TIP3    H112309   2.968   6.708   1.270  0.3449  0.8820 -1.3434
 4115TIP3    H212310   2.903   6.655   1.143 -0.5056 -1.1402 -0.1133
 4116TIP3   OH212311   3.003   0.358   5.262 -0.3066 -0.2363 -0.0891
 4116TIP3    H112312   3.090   0.368   5.222 -1.5035 -1.4904 -3.3811
 4116TIP3    H212313   3.008   0.275   5.309 -0.2518 -1.4477 -2.1116
 4117TIP3   OH212314   5.645   4.003   3.045  0.1351 -0.2724 -0.0465
 4117TIP3    H112315   5.628   3.949   2.968 -0.9572  0.3221 -0.2413
 4117TIP3    H212316   5.656   4.091   3.011 -0.4920  0.0167  0.4689
 4118TIP3   OH212317   2.654   0.753   1.510  0.0167  0.3925  0.2826
 4118TIP3    H112318   2.670   0.688   1.442 -1.7782  0.8796 -0.6695
 4118TIP3    H212319   2.742   0.779   1.539  0.8276 -2.8392  1.1756
 4119TIP3   OH212320   0.895   1.862   2.151  0.2447 -0.3301  0.3575
 4119TIP3    H112321   0.834   1.934   2.138  2.7608  2.0124  0.5635
 4119TIP3    H212322   0.861   1.791   2.097 -1.8028  1.3233 -0.6762
 4120TIP3   OH212323   6.162   6.342   0.217 -0.2272  0.1841 -0.1780
 4120TIP3    H112324   6.094   6.357   0.283  0.2981 -1.9349  0.9449
 4120TIP3    H212325   6.237   6.392   0.248 -0.4327  0.3684  0.0273
 4121TIP3   OH212326   6.147   4.334   2.843 -0.1065  0.7071 -0.1958
 4121TIP3    H112327   6.229   4.284   2.843  0.3351  1.3663 -1.6760
 4121TIP3    H212328   6.120   4.337   2.934 -1.0902 -3.7108 -0.1140
 4122TIP3   OH212329   3.963   4.099   5.840  0.6074  0.1374 -0.1163
 4122TIP3    H112330   3.904   4.173   5.829  0.7656  0.2452 -0.2489
 4122TIP3    H212331   4.040   4.122   5.788  0.6603 -0.1165 -0.1498
 4123TIP3   OH212332   0.799   0.561   0.200 -0.0021 -0.8185  0.2878
 4123TIP3    H112333   0.813   0.582   0.292 -0.1429 -0.7688  0.2985
 4123TIP3    H212334   0.859   0.489   0.183 -1.7858 -2.5981  1.1111
 4124TIP3   OH212335   1.701   1.252   2.091 -0.4363  0.0529  0.5813
 4124TIP3    H112336   1.735   1.333   2.127 -1.0831 -0.1337  1.6286
 4124TIP3    H212337   1.732   1.184   2.150  2.1528 -0.8204 -1.5538
 4125TIP3   OH212338   1.320   0.438   0.113 -0.7643  0.4170 -0.0657
 4125TIP3    H112339   1.332   0.533   0.107  1.1032  0.3374  1.4072
 4125TIP3    H212340   1.341   0.406   0.025  2.2461  1.1157  0.2920
 4126TIP3   OH212341   5.006   1.525   2.249 -0.3039  0.3959 -0.3097
 4126TIP3    H112342   4.949   1.554   2.178 -0.2548  0.1552 -0.4498
 4126TIP3    H212343   5.088   1.500   2.205 -0.1256  0.6464 -0.1206
 4127TIP3   OH212344   6.953   6.372   1.974 -0.0415 -0.4076  0.0872
 4127TIP3    H112345   6.886   6.306   1.989 -2.0796  1.5532  0.1790
 4127TIP3    H212346   6.979   6.400   2.062  0.2583 -0.5561  0.0458
 4128TIP3   OH212347   2.291   1.910   4.278  0.3055 -0.0324 -0.3188
 4128TIP3    H112348   2.272   1.817   4.276 -2.0331  0.3814 -0.1857
 4128TIP3    H212349   2.269   1.941   4.190 -0.0006  0.5612 -0.0436
 4129TIP3   OH212350   5.189   3.521   2.795 -0.2110  0.0846  0.1891
 4129TIP3    H112351   5.143   3.437   2.792 -0.0696  0.0128  0.0327
 4129TIP3    H212352   5.218   3.528   2.886  4.4078 -2.5800 -0.7195
 4130TIP3   OH212353   4.930   6.506   1.544  0.1342  0.0774 -0.1618
 4130TIP3    H112354   5.017   6.486   1.510  0.2523  3.6786 -2.5768
 4130TIP3    H212355   4.870   6.459   1.487  0.4654 -0.0182 -0.4369
 4131TIP3   OH212356   2.457   6.776   5.344  0.0705  0.2533  0.0278
 4131TIP3    H112357   2.378   6.802   5.296  0.8425  0.5349 -1.1383
 4131TIP3    H212358   2.528   6.787   5.281  0.9770 -0.5640  0.8660
 4132TIP3   OH212359   4.880   6.242   2.044 -0.1103 -0.5525  0.2771
 4132TIP3    H112360   4.856   6.303   1.974 -0.9715 -1.5869 -0.3547
 4132TIP3    H212361   4.939   6.293   2.100 -0.9208  0.9171 -0.1365
 4133TIP3   OH212362   2.314   4.300   4.364 -0.0717  0.2715 -0.9228
 4133TIP3    H112363   2.399   4.257   4.368 -0.4498 -0.4235  1.1294
 4133TIP3    H212364   2.267   4.255   4.294  0.7549 -0.3135 -1.1123
 4134TIP3   OH212365   4.968   4.764   3.779 -0.3051 -0.5216 -1.2735
 4134TIP3    H112366   5.056   4.758   3.816 -1.2634 -2.4810  0.8896
 4134TIP3    H212367   4.947   4.674   3.755 -2.3143 -0.3652 -0.2395
 4135TIP3   OH212368   4.161   1.938   2.849 -0.0458  0.3767 -0.0119
 4135TIP3    H112369   4.068   1.945   2.872 -0.2061 -1.2795 -0.0571
 4135TIP3    H212370   4.164   1.872   2.780  1.0833  1.1044 -0.7044
 4136TIP3   OH212371   0.594   6.694   1.098  0.0127 -0.5575  0.0531
 4136TIP3    H112372   0.577   6.648   1.180  1.1243 -0.4783  0.3498
 4136TIP3    H212373   0.676   6.655   1.066  0.4115  0.4958 -0.2262
 4137TIP3   OH212374   2.688   4.781   0.969 -0.6052 -0.5297 -0.0777
 4137TIP3    H112375   2.745   4.727   1.025  2.1778  0.9348 -1.3021
 4137TIP3    H212376   2.749   4.834   0.917 -3.1188  0.2867 -2.4030
 4138TIP3   OH212377   7.104   1.061   1.426 -0.4255 -0.1250  0.1947
 4138TIP3    H112378   7.095   0.967   1.442 -2.0137  0.1045  0.8628
 4138TIP3    H212379   7.095   1.070   1.331  0.0551 -0.6799  0.0945
 4139TIP3   OH212380   5.799   5.649   2.177  0.2589  0.1214 -0.4149
 4139TIP3    H112381   5.809   5.592   2.253 -2.8738  0.4412  0.3803
 4139TIP3    H212382   5.849   5.606   2.108  1.0187 -1.6065  1.1319
 4140TIP3   OH212383   3.508   2.876   5.096  0.3392 -0.0574 -0.2200
 4140TIP3    H112384   3.574   2.818   5.059  0.5146 -1.0606  1.5808
 4140TIP3    H212385   3.526   2.878   5.190  0.4253  3.0608 -0.1907
 4141TIP3   OH212386   2.331   0.760   0.497 -0.5370  0.1715 -0.2995
 4141TIP3    H112387   2.279   0.766   0.577 -0.7012  2.1082 -0.5269
 4141TIP3    H212388   2.272   0.721   0.432 -0.4205 -1.3508  0.4519
 4142TIP3   OH212389   5.647   5.886   4.989  0.3669  0.5166  0.1958
 4142TIP3    H112390   5.709   5.913   5.056 -1.7602  3.2832  1.1856
 4142TIP3    H212391   5.657   5.951   4.919  1.0324 -1.1085 -1.3406
 4143TIP3   OH212392   0.157   3.689   3.004 -0.3145 -0.2270 -0.6296
 4143TIP3    H112393   0.181   3.658   3.091  0.1787  0.3039 -0.5691
 4143TIP3    H212394   0.216   3.764   2.988 -0.7396 -0.0086 -1.2088
 4144TIP3   OH212395   0.921   2.218   3.452 -0.2243 -0.2463 -0.5540
 4144TIP3    H112396   0.848   2.203   3.513 -1.5213  3.7274 -0.8527
 4144TIP3    H212397   0.999   2.202   3.505 -1.2686  2.9130  2.3618
 4145TIP3   OH212398   1.213   6.711   2.777  0.0679 -0.2839 -0.3969
 4145TIP3    H112399   1.165   6.676   2.852 -1.3602  0.9739 -0.6804
 4145TIP3    H212400   1.189   6.654   2.704  0.4555 -0.7369 -0.1809
 4146TIP3   OH212401   0.899   1.882   3.517  0.2291 -0.1165 -0.4697
 4146TIP3    H112402   0.832   1.896   3.585 -1.0353 -0.1708 -1.6628
 4146TIP3    H212403   0.982   1.893   3.563 -0.5831 -0.2496  1.1151
 4147TIP3   OH212404   2.382   1.254   0.503  0.1287 -0.0657 -0.0041
 4147TIP3    H112405   2.349   1.172   0.468  0.4886 -0.5576  0.7835
 4147TIP3    H212406   2.348   1.258   0.592  0.8496  0.1977  0.2686
 4148TIP3   OH212407   0.749   2.280   5.873 -0.1371  0.1777 -0.9082
 4148TIP3    H112408   0.673   2.235   5.836  0.8281 -1.3637 -1.1101
 4148TIP3    H212409   0.765   2.353   5.813 -1.9914  1.0761 -0.3472
 4149TIP3   OH212410   3.507   6.016   4.944 -0.0606  0.3042 -0.2231
 4149TIP3    H112411   3.530   6.047   5.032  2.4995 -0.1375 -0.6465
 4149TIP3    H212412   3.437   5.952   4.958  0.3204  0.2247  1.4974
 4150TIP3   OH212413   0.670   1.442   5.247  0.4497  0.5939  0.1929
 4150TIP3    H112414   0.627   1.516   5.204  0.1582  0.7721  0.7782
 4150TIP3    H212415   0.693   1.475   5.333 -2.5382 -0.8751  1.7306
 4151TIP3   OH212416   5.842   3.391   2.959 -0.0438 -0.7148 -0.1678
 4151TIP3    H112417   5.763   3.435   2.927 -1.2827 -1.1107  2.1176
 4151TIP3    H212418   5.909   3.459   2.959 -0.3040 -0.3772 -2.2014
 4152TIP3   OH212419   3.029   1.622   3.249 -0.0469 -0.2935 -0.2800
 4152TIP3    H112420   3.093   1.553   3.228 -0.9047 -1.6956  1.5143
 4152TIP3    H212421   3.082   1.692   3.286  0.9465  0.4621 -2.8577
 4153TIP3   OH212422   7.062   2.189   0.972  0.0641  0.3468 -0.1734
 4153TIP3    H112423   7.058   2.192   0.876 -0.0808 -0.9301 -0.2266
 4153TIP3    H212424   7.030   2.275   1.000  0.0241  0.7037 -1.2648
 4154TIP3   OH212425   3.489   1.133   4.748 -0.1519  0.3144  0.2558
 4154TIP3    H112426   3.522   1.052   4.786 -1.0947  0.2671  0.9960
 4154TIP3    H212427   3.552   1.199   4.774  1.0439 -0.2769 -0.9909
 4155TIP3   OH212428   4.454   3.482   3.620 -0.1813 -0.2811 -0.3910
 4155TIP3    H112429   4.498   3.398   3.637  0.1243  0.0800  0.7375
 4155TIP3    H212430   4.376   3.479   3.674 -0.3301  0.0368 -0.5860
 4156TIP3   OH212431   4.225   1.045   2.462 -0.0504  0.0749 -0.1885
 4156TIP3    H112432   4.319   1.035   2.477  0.0052 -0.3880 -0.7512
 4156TIP3    H212433   4.198   0.960   2.427 -1.0070 -0.3523  1.5020
 4157TIP3   OH212434   4.896   2.904   2.562 -0.0368  0.3704  0.1907
 4157TIP3    H112435   4.912   2.831   2.501 -2.0956 -0.4114  0.4863
 4157TIP3    H212436   4.913   2.983   2.511  0.9534 -0.3054 -0.5509
 4158TIP3   OH212437   2.411   2.831   0.720 -0.8795  0.0274  0.7469
 4158TIP3    H112438   2.416   2.913   0.769  3.1298  0.6586 -0.3352
 4158TIP3    H212439   2.389   2.857   0.631  0.0209 -0.0881  0.4831
 4159TIP3   OH212440   5.412   2.871   3.180  0.1871  0.5498 -0.0861
 4159TIP3    H112441   5.390   2.932   3.250  1.5516  0.8126  0.1545
 4159TIP3    H212442   5.330   2.855   3.134 -0.7131  0.4517  1.5045
 4160TIP3   OH212443   4.860   3.543   1.406 -0.0583  0.0364  0.7535
 4160TIP3    H112444   4.940   3.511   1.447 -1.2248  0.6702  3.8769
 4160TIP3    H212445   4.878   3.634   1.384  0.7300 -0.4363 -0.6850
 4161TIP3   OH212446   0.691   2.406   5.097 -0.3763 -0.3683  0.1259
 4161TIP3    H112447   0.631   2.480   5.103  0.2045  0.0307  1.3143
 4161TIP3    H212448   0.650   2.337   5.149 -0.3722 -0.5047 -0.0485
 4162TIP3   OH212449   4.533   2.587   2.444  0.2907  0.4061 -0.4940
 4162TIP3    H112450   4.564   2.654   2.505  0.7632 -1.2896  1.2420
 4162TIP3    H212451   4.611   2.536   2.423 -0.6425 -2.1824  1.6809
 4163TIP3   OH212452   2.610   2.630   4.172 -0.1024  0.1910 -1.0299
 4163TIP3    H112453   2.673   2.588   4.230 -0.6541 -0.3779 -0.8366
 4163TIP3    H212454   2.657   2.641   4.089  0.2408 -0.2503 -0.8953
 4164TIP3   OH212455   5.014   6.571   1.805 -0.0769  0.8170  0.5846
 4164TIP3    H112456   4.979   6.502   1.861  1.1146 -0.3795 -0.0780
 4164TIP3    H212457   4.998   6.539   1.716 -0.2518  1.8016  0.2553
 4165TIP3   OH212458   5.314   3.633   4.208 -0.0184  0.6482  0.5385
 4165TIP3    H112459   5.375   3.703   4.185  1.1368 -0.7914 -1.0857
 4165TIP3    H212460   5.349   3.556   4.163 -2.1995 -0.5930  0.8406
 4166TIP3   OH212461   1.433   4.128   1.056 -0.2598  0.0648  0.0695
 4166TIP3    H112462   1.494   4.113   1.128  0.2447  2.4194  0.1917
 4166TIP3    H212463   1.347   4.107   1.092  0.2895 -1.9496  0.3100
 4167TIP3   OH212464   6.210   4.100   1.927 -0.0566 -0.1176  0.0933
 4167TIP3    H112465   6.286   4.142   1.968  0.1697  1.5892 -1.8704
 4167TIP3    H212466   6.241   4.013   1.902  0.1459 -0.7502  2.3368
 4168TIP3   OH212467   7.103   0.213   1.032  0.5577 -0.0348  0.0160
 4168TIP3    H112468   7.041   0.192   0.963  0.2097  0.0597  0.2942
 4168TIP3    H212469   7.184   0.234   0.987 -0.4071  2.9346 -0.5950
 4169TIP3   OH212470   4.128   5.140   1.974  0.2901  0.1959  0.2321
 4169TIP3    H112471   4.220   5.112   1.983  0.2152 -0.2459 -0.3259
 4169TIP3    H212472   4.121   5.172   1.884 -0.4841 -1.2824 -0.2773
 4170TIP3   OH212473   4.638   1.364   0.614 -1.0502  0.1087 -0.2446
 4170TIP3    H112474   4.603   1.438   0.564 -1.7952  0.0925  0.2332
 4170TIP3    H212475   4.569   1.298   0.611  0.2624 -1.2781 -2.1102
 4171TIP3   OH212476   5.421   4.666   2.388 -0.5100 -0.5957  0.1379
 4171TIP3    H112477   5.362   4.737   2.363 -0.1274 -0.3656 -0.1323
 4171TIP3    H212478   5.433   4.615   2.309  2.0205  1.0832 -0.7091
 4172TIP3   OH212479   5.557   4.719   3.615 -0.6048 -0.3291 -0.2444
 4172TIP3    H112480   5.651   4.734   3.604 -0.8669  0.9982 -0.9555
 4172TIP3    H212481   5.549   4.671   3.697  0.6510  0.2721  0.2579
 4173TIP3   OH212482   2.486   5.816   0.904 -0.1145  0.4727  0.0601
 4173TIP3    H112483   2.543   5.751   0.862 -0.6895 -1.1499  1.6850
 4173TIP3    H212484   2.534   5.899   0.894  1.0152 -0.2977 -1.3719
 4174TIP3   OH212485   3.469   1.775   1.058 -0.1172  0.0675  0.0589
 4174TIP3    H112486   3.536   1.803   1.121 -0.1363  1.3614 -0.4692
 4174TIP3    H212487   3.517   1.760   0.977 -0.2749 -0.3654  0.0450
 4175TIP3   OH212488   1.905   0.728   2.888 -0.1504  0.4535  0.2052
 4175TIP3    H112489   1.984   0.676   2.900 -0.0611  0.7590  1.0213
 4175TIP3    H212490   1.932   0.818   2.907 -0.2817  0.8349 -1.2684
 4176TIP3   OH212491   5.671   0.231   4.284 -0.5272 -0.8817 -0.1013
 4176TIP3    H112492   5.714   0.231   4.369  0.6834 -0.4362 -0.6851
 4176TIP3    H212493   5.740   0.205   4.222 -0.7795  0.9542 -1.2104
 4177TIP3   OH212494   2.067   2.655   4.838  0.6058  1.0370  0.5157
 4177TIP3    H112495   2.093   2.744   4.812 -0.1261  1.6663  1.8176
 4177TIP3    H212496   1.986   2.640   4.790  0.8998  0.9324  0.0431
 4178TIP3   OH212497   6.543   2.605   1.744  0.2327  0.2895  0.3335
 4178TIP3    H112498   6.461   2.557   1.734  0.4500 -0.0463  0.1496
 4178TIP3    H212499   6.579   2.573   1.826 -0.1891  0.9955  0.7972
 4179TIP3   OH212500   0.257   1.200   0.115 -0.4393  0.4041 -0.2249
 4179TIP3    H112501   0.237   1.178   0.024 -0.5725 -0.3115 -0.0256
 4179TIP3    H212502   0.198   1.145   0.167  0.4338 -0.0228  0.3217
 4180TIP3   OH212503   5.528   0.689   1.042  0.5015 -0.0889 -0.7274
 4180TIP3    H112504   5.486   0.699   0.957 -1.4924  0.4888  0.2381
 4180TIP3    H212505   5.470   0.629   1.090  0.3092  1.3588  0.9533
 4181TIP3   OH212506   3.155   2.031   1.785 -0.0926  0.1673  0.0606
 4181TIP3    H112507   3.096   1.957   1.770 -0.1096  0.4007 -1.0637
 4181TIP3    H212508   3.240   2.001   1.753 -0.0466  0.5394 -0.1788
 4182TIP3   OH212509   5.667   2.444   1.503  0.3805 -0.2050 -0.6916
 4182TIP3    H112510   5.656   2.506   1.575  2.1343 -0.9717  0.3016
 4182TIP3    H212511   5.668   2.498   1.424  0.5147  0.8760  0.0331
 4183TIP3   OH212512   0.500   5.596   2.738 -0.1408 -0.2618 -0.0274
 4183TIP3    H112513   0.433   5.593   2.807  0.4804 -0.4162  0.5740
 4183TIP3    H212514   0.450   5.587   2.656 -0.8134 -0.8435  0.4374
 4184TIP3   OH212515   2.048   0.294   5.788  0.5905 -0.4302  0.0644
 4184TIP3    H112516   1.995   0.366   5.754 -1.4842 -1.3893  1.0515
 4184TIP3    H212517   2.126   0.336   5.824  1.8644  0.8208 -3.7205
 4185TIP3   OH212518   2.584   1.706   2.389  0.2421  0.0618  0.0804
 4185TIP3    H112519   2.573   1.749   2.305  0.1216  0.6172  0.3758
 4185TIP3    H212520   2.614   1.775   2.448 -0.5097 -0.1199  0.6928
 4186TIP3   OH212521   4.458   0.576   2.098  0.0069 -0.6107  1.0717
 4186TIP3    H112522   4.480   0.641   2.165 -1.0484 -0.0350  0.8840
 4186TIP3    H212523   4.504   0.497   2.125  4.4291  1.0922 -0.6671
 4187TIP3   OH212524   4.463   0.885   4.844 -0.4932 -0.8401 -0.0416
 4187TIP3    H112525   4.389   0.869   4.903 -1.3693  1.5959 -0.3864
 4187TIP3    H212526   4.426   0.874   4.756  0.3113 -2.4218 -0.2220
 4188TIP3   OH212527   2.430   1.401   5.677  0.5956 -0.3973  0.0937
 4188TIP3    H112528   2.441   1.481   5.728 -2.0737 -0.9804  1.7565
 4188TIP3    H212529   2.469   1.332   5.732 -1.5268 -0.8987  1.0662
 4189TIP3   OH212530   4.454   6.577   4.309  0.5589  0.3619  0.0135
 4189TIP3    H112531   4.406   6.660   4.310  0.0154  0.0519  0.0528
 4189TIP3    H212532   4.542   6.600   4.341 -0.3368  0.4600  2.6740
 4190TIP3   OH212533   6.357   5.598   2.930 -0.0071 -0.4655  0.1541
 4190TIP3    H112534   6.338   5.512   2.893 -0.4726 -0.1693 -0.3031
 4190TIP3    H212535   6.305   5.659   2.878 -1.3562 -0.1150  1.8369
 4191TIP3   OH212536   5.135   1.811   2.106 -0.2912 -0.3686  0.6410
 4191TIP3    H112537   5.210   1.755   2.086  1.9140  1.5550  2.9002
 4191TIP3    H212538   5.120   1.861   2.026 -1.1236 -2.7380 -0.7943
 4192TIP3   OH212539   4.553   1.698   3.711  0.8464 -0.1014 -0.0418
 4192TIP3    H112540   4.611   1.666   3.642 -0.3761 -0.3603 -0.9814
 4192TIP3    H212541   4.467   1.665   3.687  0.1885  0.8102  0.9804
 4193TIP3   OH212542   2.577   1.041   1.592 -0.6983 -0.6958 -0.8811
 4193TIP3    H112543   2.568   0.949   1.565  0.0877 -0.6956 -1.1680
 4193TIP3    H212544   2.663   1.067   1.559 -0.6117 -0.0650 -0.1863
 4194TIP3   OH212545   5.395   5.194   2.856 -0.1588 -0.2697  0.4314
 4194TIP3    H112546   5.417   5.151   2.939 -0.1727  2.6735  2.0883
 4194TIP3    H212547   5.299   5.195   2.854 -0.1589 -0.1686  0.4827
 4195TIP3   OH212548   1.987   1.412   4.799  0.1088 -0.0237  0.1998
 4195TIP3    H112549   2.080   1.427   4.818  0.1932 -0.3059  0.0176
 4195TIP3    H212550   1.965   1.335   4.850 -0.3810  0.8239  1.3123
 4196TIP3   OH212551   0.283   3.036   4.425  0.2161 -0.2650  0.4475
 4196TIP3    H112552   0.377   3.049   4.436 -0.0007  0.0904  2.0224
 4196TIP3    H212553   0.261   3.088   4.347  1.0466  0.9488  1.0016
 4197TIP3   OH212554   4.512   4.437   1.691  0.1737  0.3093 -0.0492
 4197TIP3    H112555   4.578   4.441   1.760  1.0455 -1.7094 -0.6696
 4197TIP3    H212556   4.451   4.369   1.720  0.4614 -0.4517 -1.1456
 4198TIP3   OH212557   5.910   4.114   5.221 -0.3798 -0.1200 -0.4632
 4198TIP3    H112558   5.988   4.081   5.266  0.0195  0.4171 -0.7596
 4198TIP3    H212559   5.852   4.038   5.216 -0.2197 -0.3178  0.5000
 4199TIP3   OH212560   1.058   5.674   4.869  0.1396 -0.8360  0.3584
 4199TIP3    H112561   1.025   5.700   4.955 -0.9562 -2.4787  0.4723
 4199TIP3    H212562   0.986   5.692   4.809  0.5622 -0.5718 -0.0771
 4200TIP3   OH212563   3.209   3.967   5.779  0.4673  0.0827  0.5537
 4200TIP3    H112564   3.170   3.889   5.741  1.4427 -1.2914  2.2148
 4200TIP3    H212565   3.182   3.966   5.871  1.1999  1.2416  0.8118
 4201TIP3   OH212566   4.672   6.178   4.599  0.2229  0.1904  0.9678
 4201TIP3    H112567   4.700   6.268   4.611  1.4104  0.1920 -1.2416
 4201TIP3    H212568   4.717   6.128   4.666  2.0794  0.8420  0.2520
 4202TIP3   OH212569   4.650   6.752   3.613  0.0141  0.3621 -0.0789
 4202TIP3    H112570   4.676   6.660   3.613  0.4954  0.4947 -0.0840
 4202TIP3    H212571   4.558   6.751   3.586  0.1669 -0.0761 -0.6118
 4203TIP3   OH212572   0.171   6.769   1.780  0.2196  0.2216  0.1413
 4203TIP3    H112573   0.210   6.711   1.845 -0.9797 -0.4432  0.3083
 4203TIP3    H212574   0.209   6.855   1.798  0.7008 -0.1659  1.0315
 4204TIP3   OH212575   3.215   6.362   2.011 -0.2357  0.6889  0.3901
 4204TIP3    H112576   3.166   6.284   2.037  0.5799 -0.1519 -0.5142
 4204TIP3    H212577   3.234   6.407   2.093 -0.7418 -0.0501  0.9261
 4205TIP3   OH212578   6.681   1.491   2.712 -0.3296 -0.3991  0.0581
 4205TIP3    H112579   6.650   1.406   2.680 -1.1349 -0.3495  0.6469
 4205TIP3    H212580   6.737   1.469   2.787  3.8224 -0.6885 -2.8165
 4206TIP3   OH212581   2.450   1.337   3.829  0.0318 -0.4412  0.2802
 4206TIP3    H112582   2.418   1.248   3.844 -0.4676 -0.3942 -0.4757
 4206TIP3    H212583   2.373   1.393   3.840  0.0228 -0.2450 -0.7101
 4207TIP3   OH212584   0.182   2.337   5.010  0.0218  0.1280  0.1870
 4207TIP3    H112585   0.224   2.275   5.069  0.0948  0.7322  0.7888
 4207TIP3    H212586   0.139   2.283   4.945 -0.8552 -0.6022  1.3298
 4208TIP3   OH212587   6.193   2.359   0.343  0.0038 -0.2136  0.4676
 4208TIP3    H112588   6.228   2.312   0.267  2.4078  0.7500  0.8970
 4208TIP3    H212589   6.270   2.399   0.384 -1.4361  0.6240  2.5041
 4209TIP3   OH212590   0.476   1.649   3.186 -0.6720  0.1879 -0.0168
 4209TIP3    H112591   0.527   1.594   3.244  2.2353  2.2628 -0.3787
 4209TIP3    H212592   0.398   1.597   3.165  0.5070 -2.5360  1.8400
 4210TIP3   OH212593   3.620   4.120   1.308 -0.5868  0.1534 -0.1217
 4210TIP3    H112594   3.534   4.090   1.278 -0.8354  0.6082  0.1204
 4210TIP3    H212595   3.668   4.140   1.227 -0.7929  0.1345 -0.2490
 4211TIP3   OH212596   4.426   0.858   0.562  0.8433  0.5018  0.2207
 4211TIP3    H112597   4.342   0.848   0.516  0.3286  0.5438  1.1301
 4211TIP3    H212598   4.457   0.769   0.575  0.4694  0.4395  0.7196
 4212TIP3   OH212599   2.228   3.871   1.979 -0.2176  0.4066 -0.3506
 4212TIP3    H112600   2.158   3.912   1.929 -1.0725 -0.7798 -0.1433
 4212TIP3    H212601   2.185   3.806   2.034  0.9713  0.0923  0.2530
 4213TIP3   OH212602   0.438   3.806   1.025 -0.3412 -0.9405 -0.1240
 4213TIP3    H112603   0.436   3.715   1.054 -2.5218 -0.9288 -0.0832
 4213TIP3    H212604   0.360   3.816   0.971 -0.6532  1.1413  0.6276
 4214TIP3   OH212605   3.589   6.510   2.851 -0.0072  0.1552 -1.2460
 4214TIP3    H112606   3.595   6.437   2.791 -0.6724 -1.4151  0.5101
 4214TIP3    H212607   3.541   6.476   2.927  1.3956  1.7910  0.4922
 4215TIP3   OH212608   6.188   0.370   0.946 -0.1032  0.3679 -0.2386
 4215TIP3    H112609   6.217   0.286   0.910  0.5883 -0.3070  1.7507
 4215TIP3    H212610   6.220   0.436   0.885  1.5412 -0.6793 -0.5395
 4216TIP3   OH212611   7.124   2.864   4.517 -0.0066  0.1485  0.2774
 4216TIP3    H112612   7.102   2.956   4.531 -0.3850  0.2417 -0.8151
 4216TIP3    H212613   7.146   2.831   4.604 -0.5897  1.0813  0.7976
 4217TIP3   OH212614   5.486   1.291   4.247 -0.4663  0.3467 -0.0293
 4217TIP3    H112615   5.490   1.348   4.169  0.7031  0.1102 -0.1668
 4217TIP3    H212616   5.578   1.284   4.275 -0.4478 -2.1285 -0.4893
 4218TIP3   OH212617   5.663   1.888   1.017 -0.2736 -0.2622 -0.1061
 4218TIP3    H112618   5.626   1.926   0.937  0.2001  0.1005 -0.1606
 4218TIP3    H212619   5.619   1.804   1.027  0.2015 -0.6594 -1.1665
 4219TIP3   OH212620   4.131   1.094   4.789  0.0590 -0.7757  0.3408
 4219TIP3    H112621   4.221   1.115   4.765 -0.2256  0.6145  0.3853
 4219TIP3    H212622   4.131   0.999   4.803  1.0736 -1.0882 -1.4783
 4220TIP3   OH212623   5.438   2.923   0.452 -0.2396 -0.6873 -0.0938
 4220TIP3    H112624   5.490   2.914   0.532  0.5606  1.8643 -0.2475
 4220TIP3    H212625   5.347   2.919   0.482  0.0485 -0.7399  0.7993
 4221TIP3   OH212626   5.854   2.779   5.151  0.2687  0.3067 -0.2493
 4221TIP3    H112627   5.834   2.689   5.175  0.1985  0.0802 -1.1267
 4221TIP3    H212628   5.946   2.776   5.121  0.1479  0.4436 -0.6449
 4222TIP3   OH212629   0.496   0.271   2.535  0.6274 -0.2771  0.4105
 4222TIP3    H112630   0.576   0.219   2.522 -0.1872 -1.7486  1.0313
 4222TIP3    H212631   0.431   0.207   2.563 -1.1413  0.6664 -1.3450
 4223TIP3   OH212632   4.758   0.047   0.785  0.2768  0.1652 -0.0931
 4223TIP3    H112633   4.815  -0.027   0.765  0.2342  0.1388 -0.1186
 4223TIP3    H212634   4.683   0.008   0.830  0.3528  0.2197  0.0797
 4224TIP3   OH212635   0.218   4.145   4.088 -0.0469 -0.0749 -0.1532
 4224TIP3    H112636   0.153   4.101   4.143  0.8129 -0.6654  0.4301
 4224TIP3    H212637   0.182   4.140   3.999 -1.2686  0.5306  0.2858
 4225TIP3   OH212638   2.481   3.088   0.827  0.2652 -0.7401  0.6530
 4225TIP3    H112639   2.548   3.142   0.785  2.1484 -2.8236  0.7981
 4225TIP3    H212640   2.479   3.118   0.918 -1.3311  1.4438 -0.0389
 4226TIP3   OH212641   4.877   3.232   5.333 -0.4651  0.2427 -0.6858
 4226TIP3    H112642   4.861   3.326   5.342 -1.6011  0.0114 -0.0330
 4226TIP3    H212643   4.838   3.194   5.412  0.7802 -0.7002 -0.4987
 4227TIP3   OH212644   4.514   4.111   1.092  0.2566 -0.2917 -0.0147
 4227TIP3    H112645   4.490   4.018   1.089  2.8822 -1.0499 -0.6244
 4227TIP3    H212646   4.584   4.115   1.157 -0.5326  1.4905  0.7817
 4228TIP3   OH212647   0.346   1.477   4.776 -0.1159 -0.2842  0.8585
 4228TIP3    H112648   0.298   1.520   4.847  0.3304  0.3302  0.7908
 4228TIP3    H212649   0.329   1.532   4.699  0.3979 -0.2651  0.7571
 4229TIP3   OH212650   5.727   6.198   2.568 -0.4831 -0.7857 -0.6240
 4229TIP3    H112651   5.694   6.264   2.507 -2.0406 -2.1676 -1.3543
 4229TIP3    H212652   5.651   6.175   2.621  0.0553 -1.9444 -0.3300
 4230TIP3   OH212653   2.650   0.654   2.877 -0.0751  0.1465  0.5427
 4230TIP3    H112654   2.661   0.735   2.927  0.7235  1.3128 -1.4298
 4230TIP3    H212655   2.710   0.592   2.919 -0.8837  0.4516  2.2363
 4231TIP3   OH212656   2.764   6.313   3.139 -0.3070 -0.1505 -0.0593
 4231TIP3    H112657   2.740   6.363   3.061 -0.9309 -1.1600 -0.5428
 4231TIP3    H212658   2.829   6.367   3.183 -0.1001  0.5417 -1.1696
 4232TIP3   OH212659   2.033   6.248   3.445  0.5330  0.0655  0.3440
 4232TIP3    H112660   1.978   6.313   3.489  0.0027 -0.5512  0.6005
 4232TIP3    H212661   1.996   6.241   3.357  0.2022 -0.3445  0.5146
 4233TIP3   OH212662   0.329   3.737   5.577 -1.1498  0.7344  0.2307
 4233TIP3    H112663   0.318   3.779   5.492 -2.3305  0.0445  0.0202
 4233TIP3    H212664   0.423   3.718   5.582 -0.9079  1.6605 -0.4838
 4234TIP3   OH212665   1.197   0.995   4.639 -0.2417 -0.2987 -0.1528
 4234TIP3    H112666   1.110   0.995   4.597  0.0693 -1.5000 -0.8402
 4234TIP3    H212667   1.191   0.927   4.706  0.1901 -0.4183 -0.2371
 4235TIP3   OH212668   0.831   1.219   3.604  0.0295  0.9914  0.1003
 4235TIP3    H112669   0.838   1.142   3.661  0.4051  0.8532 -0.1273
 4235TIP3    H212670   0.875   1.193   3.523 -0.5684  1.1630 -0.2821
 4236TIP3   OH212671   6.406   1.746   4.586 -0.2017 -0.1372 -0.0732
 4236TIP3    H112672   6.441   1.834   4.568  1.2040 -0.8673 -1.1215
 4236TIP3    H212673   6.454   1.718   4.664  1.1794 -0.9074 -1.1664
 4237TIP3   OH212674   0.434   5.577   4.174  0.2558  0.1048 -0.4744
 4237TIP3    H112675   0.507   5.601   4.231 -0.4094  0.3790  0.2652
 4237TIP3    H212676   0.430   5.482   4.179 -1.4842  0.2373  2.0911
 4238TIP3   OH212677   2.148   5.634   0.551  0.0245  0.0108 -0.0642
 4238TIP3    H112678   2.159   5.638   0.646  0.7601 -0.4901 -0.1202
 4238TIP3    H212679   2.223   5.583   0.520 -0.3669 -0.0855 -0.8868
 4239TIP3   OH212680   0.393   0.579   5.633  0.0776 -0.2612  0.4609
 4239TIP3    H112681   0.321   0.630   5.597  0.1484 -0.2539  0.3313
 4239TIP3    H212682   0.449   0.643   5.676  0.7564 -0.0881 -0.6692
 4240TIP3   OH212683   3.681   3.316   2.813 -0.1530  0.3036 -0.2934
 4240TIP3    H112684   3.777   3.318   2.803 -0.1962 -0.6647 -1.0474
 4240TIP3    H212685   3.654   3.235   2.769 -0.9533 -1.5934  3.2725
 4241TIP3   OH212686   0.503   0.028   0.795 -0.8210  0.2848 -0.0580
 4241TIP3    H112687   0.448   0.066   0.727  0.1218 -0.5410 -1.3278
 4241TIP3    H212688   0.480  -0.065   0.796 -0.9306  0.3118  0.8760
 4242TIP3   OH212689   5.180   4.299   1.389  0.4575 -0.0769  0.2376
 4242TIP3    H112690   5.112   4.317   1.452  0.1771  1.8658 -0.5666
 4242TIP3    H212691   5.221   4.384   1.371  0.7222 -0.5879 -1.9363
 4243TIP3   OH212692   1.640   6.228   0.069  0.6832  0.3726 -0.2972
 4243TIP3    H112693   1.723   6.193   0.102  0.6532  0.1923 -0.4108
 4243TIP3    H212694   1.583   6.152   0.062  1.0268  0.2016 -1.7879
 4244TIP3   OH212695   2.118   1.645   1.133 -0.3538  0.0962  0.2674
 4244TIP3    H112696   2.134   1.621   1.224  2.3113 -0.4356 -0.2459
 4244TIP3    H212697   2.165   1.728   1.121  2.3744 -1.5116 -1.3665
 4245TIP3   OH212698   2.114   4.087   0.733 -0.6260 -0.3663  0.0510
 4245TIP3    H112699   2.033   4.066   0.688 -0.4252 -2.3560  0.5233
 4245TIP3    H212700   2.176   4.110   0.664 -1.3028  0.1718 -0.3823
 4246TIP3   OH212701   5.983   1.436   3.982  0.2150  0.0218  0.1368
 4246TIP3    H112702   6.008   1.498   4.050  4.3014  1.5941 -2.4305
 4246TIP3    H212703   5.897   1.465   3.952 -1.3476 -0.2461  3.8271
 4247TIP3   OH212704   1.487   4.275   4.854 -0.4404  0.5008 -0.0449
 4247TIP3    H112705   1.421   4.281   4.785 -0.3955  1.0757 -0.0429
 4247TIP3    H212706   1.438   4.247   4.931 -0.7303  1.1343  0.0085
 4248TIP3   OH212707   1.595   4.122   3.598 -0.0465  0.2556 -0.5033
 4248TIP3    H112708   1.581   4.216   3.585  0.7808  0.4243 -0.2524
 4248TIP3    H212709   1.507   4.086   3.612 -0.3911  0.9548 -0.8166
 4249TIP3   OH212710   2.997   1.709   5.484  0.5054  0.6553  0.1938
 4249TIP3    H112711   3.040   1.730   5.401  0.8297 -0.3386  0.1056
 4249TIP3    H212712   2.904   1.706   5.463  0.6316 -0.2476 -0.2877
 4250TIP3   OH212713   2.932   2.122   0.174  0.2097 -0.1794 -0.3891
 4250TIP3    H112714   2.843   2.157   0.167  0.2014 -0.1865 -0.3228
 4250TIP3    H212715   2.985   2.198   0.200  0.2566 -0.1313 -0.6253
 4251TIP3   OH212716   0.979   6.395   2.832 -0.1690  0.0315 -0.1619
 4251TIP3    H112717   1.020   6.471   2.873  0.5531 -0.1213 -0.5808
 4251TIP3    H212718   0.911   6.431   2.775  1.1194  0.4782 -1.4738
 4252TIP3   OH212719   3.638   0.638   1.505  0.2008  0.0647 -0.2388
 4252TIP3    H112720   3.701   0.566   1.507 -0.2129 -0.3564 -1.3345
 4252TIP3    H212721   3.600   0.633   1.417 -1.6575  0.0582  0.5312
 4253TIP3   OH212722   7.182   3.504   4.450 -0.0213  0.1166 -0.5600
 4253TIP3    H112723   7.126   3.455   4.390 -1.1355 -0.9226  1.2535
 4253TIP3    H212724   7.122   3.552   4.506  0.9852  0.9030 -0.1088
 4254TIP3   OH212725   3.331   5.800   5.851  0.5052  0.3376 -0.0692
 4254TIP3    H112726   3.313   5.891   5.876  0.8830  0.9462 -1.8499
 4254TIP3    H212727   3.267   5.749   5.899  0.9490  1.4348  1.7685
 4255TIP3   OH212728   2.299   6.730   4.677  0.1615  0.1842  0.7081
 4255TIP3    H112729   2.332   6.652   4.632  0.6672 -0.3816  2.0248
 4255TIP3    H212730   2.376   6.769   4.719 -0.4744  0.0328  2.0672
 4256TIP3   OH212731   2.015   6.438   5.094 -0.5989  0.1840 -0.1144
 4256TIP3    H112732   2.062   6.469   5.172  1.8672 -1.2818 -0.9160
 4256TIP3    H212733   1.969   6.515   5.062  1.9388  1.9948  0.2942
 4257TIP3   OH212734   2.435   6.239   3.892 -0.2255  0.3840 -0.2018
 4257TIP3    H112735   2.349   6.279   3.878 -0.7645 -0.5168  0.4109
 4257TIP3    H212736   2.429   6.200   3.980  0.9500  0.6532  0.0110
 4258TIP3   OH212737   3.245   1.660   1.549  0.2092  0.5154  0.5382
 4258TIP3    H112738   3.163   1.690   1.510  1.2750  0.1684 -2.1740
 4258TIP3    H212739   3.224   1.646   1.641 -2.7892  0.3778 -0.0657
 4259TIP3   OH212740   4.448   0.760   2.681 -0.5681 -0.5526  0.2568
 4259TIP3    H112741   4.527   0.772   2.734 -0.7337  0.2417  0.3325
 4259TIP3    H212742   4.480   0.761   2.590 -0.2913 -1.8609  0.3132
 4260TIP3   OH212743   5.986   1.183   0.586 -0.6015 -0.2473 -0.5683
 4260TIP3    H112744   6.031   1.169   0.503  0.4534  0.0834 -0.0601
 4260TIP3    H212745   5.893   1.172   0.564 -0.3602  0.0648 -1.8331
 4261TIP3   OH212746   5.230   1.262   4.863  0.6329  0.4978  0.2038
 4261TIP3    H112747   5.184   1.185   4.897  0.2323  1.3387  1.6459
 4261TIP3    H212748   5.164   1.307   4.810  0.9594 -0.2929 -0.8967
 4262TIP3   OH212749   1.542   4.786   4.554 -0.6300  0.2983 -0.1762
 4262TIP3    H112750   1.567   4.693   4.557 -1.1576  0.1548  2.1438
 4262TIP3    H212751   1.530   4.805   4.461  1.0961 -1.5025 -0.8489
 4263TIP3   OH212752   4.025   1.978   4.202 -0.1050 -0.5761 -0.1507
 4263TIP3    H112753   3.958   2.005   4.140 -0.1904 -0.2952  0.0605
 4263TIP3    H212754   4.061   2.060   4.235  0.6884 -0.7212 -0.6342
 4264TIP3   OH212755   2.759   1.184   1.429 -0.8228  0.6664  0.6249
 4264TIP3    H112756   2.839   1.133   1.440 -1.5356 -0.0562  3.1199
 4264TIP3    H212757   2.761   1.247   1.501 -2.5831  0.4862  0.8643
 4265TIP3   OH212758   5.659   5.339   4.158  0.1924  0.3389  0.1385
 4265TIP3    H112759   5.647   5.395   4.082 -2.0453 -0.1507  0.0518
 4265TIP3    H212760   5.664   5.399   4.233 -1.3860  0.7445 -0.0357
 4266TIP3   OH212761   0.787   2.394   4.613 -0.3548 -0.9227 -0.3427
 4266TIP3    H112762   0.740   2.432   4.688  0.9023  0.6173 -0.2769
 4266TIP3    H212763   0.780   2.300   4.626 -2.1318 -0.7359  0.4509
 4267TIP3   OH212764   4.397   1.836   0.409 -0.0358 -0.2250 -0.2372
 4267TIP3    H112765   4.454   1.763   0.388 -1.5785 -1.1207 -1.5138
 4267TIP3    H212766   4.338   1.802   0.475  0.6038  0.5722  0.7763
 4268TIP3   OH212767   3.689   5.283   4.204  0.0712  0.0819 -0.3160
 4268TIP3    H112768   3.678   5.217   4.136  0.5132  1.0661 -1.3556
 4268TIP3    H212769   3.702   5.365   4.157  1.6441  0.5980  0.9224
 4269TIP3   OH212770   1.023   5.433   4.424 -0.0061 -0.2566 -0.1503
 4269TIP3    H112771   0.962   5.457   4.354  0.7516 -0.3710 -0.8662
 4269TIP3    H212772   1.102   5.406   4.378  0.8242  0.5453  0.7737
 4270TIP3   OH212773   6.361   1.652   1.023 -0.5712  0.1260  0.5600
 4270TIP3    H112774   6.319   1.661   1.109  0.5315 -1.5698  1.3463
 4270TIP3    H212775   6.424   1.723   1.020  0.5509 -0.7481  1.9400
 4271TIP3   OH212776   1.874   1.773   0.626 -0.1921 -0.1526  0.2596
 4271TIP3    H112777   1.795   1.768   0.680 -0.1418  0.9389  0.4576
 4271TIP3    H212778   1.859   1.848   0.568  0.6958  0.0756  0.3077
 4272TIP3   OH212779   5.703   6.357   4.685 -0.0100  0.4756  0.2195
 4272TIP3    H112780   5.761   6.281   4.683 -1.7122 -0.9515  1.9627
 4272TIP3    H212781   5.751   6.421   4.738  0.2340 -0.4932  1.2123
 4273TIP3   OH212782   1.139   3.378   0.811 -0.3053  0.0539 -0.1683
 4273TIP3    H112783   1.229   3.410   0.804 -0.0331 -0.5239  0.5584
 4273TIP3    H212784   1.117   3.389   0.903  0.4653 -3.4562  0.5963
 4274TIP3   OH212785   4.410   0.995   1.049 -0.0755  0.2763  0.6085
 4274TIP3    H112786   4.497   0.964   1.024  0.0684  1.2561 -0.1728
 4274TIP3    H212787   4.407   0.986   1.145  0.3636 -1.0375  0.5189
 4275TIP3   OH212788   1.781   6.747   4.332  0.4761  0.0209 -0.2313
 4275TIP3    H112789   1.785   6.656   4.362 -0.4438  0.2297  0.5997
 4275TIP3    H212790   1.867   6.763   4.292  1.0677 -0.8702  0.6205
 4276TIP3   OH212791   2.521   0.922   4.254 -0.1796 -0.4828 -0.6414
 4276TIP3    H112792   2.523   0.970   4.171 -1.1997  1.3031  0.3127
 4276TIP3    H212793   2.545   0.987   4.320 -2.5134 -0.9733  0.8152
 4277TIP3   OH212794   1.119   0.798   2.566  0.2312 -0.2319 -0.5235
 4277TIP3    H112795   1.047   0.859   2.552  0.6553  0.9022  1.7692
 4277TIP3    H212796   1.079   0.711   2.554 -1.0779  0.3956 -0.9698
 4278TIP3   OH212797   2.774   1.482   4.997  0.5989 -0.2708 -0.4933
 4278TIP3    H112798   2.851   1.430   5.021  0.5914  0.1776  0.5586
 4278TIP3    H212799   2.703   1.447   5.051 -0.2409 -1.4493 -2.2810
 4279TIP3   OH212800   2.744   5.361   3.368 -0.2589 -0.3338 -0.2423
 4279TIP3    H112801   2.666   5.416   3.363 -0.0476  0.3851  2.4770
 4279TIP3    H212802   2.710   5.275   3.393 -0.3681 -0.7999 -1.8937
 4280TIP3   OH212803   2.158   4.890   3.508 -0.6795 -0.0063  0.5218
 4280TIP3    H112804   2.093   4.953   3.537 -2.5533 -1.7835  0.4202
 4280TIP3    H212805   2.222   4.885   3.579 -1.6638  0.4319  1.4484
 4281TIP3   OH212806   4.111   0.587   2.201 -0.1589  0.1114  0.3922
 4281TIP3    H112807   4.061   0.578   2.281  2.8187  0.1303  2.4142
 4281TIP3    H212808   4.176   0.517   2.204  0.0467  0.1074 -2.0205
 4282TIP3   OH212809   0.609   4.311   3.658  0.0827 -0.4100  0.2576
 4282TIP3    H112810   0.697   4.296   3.623  1.3799  3.7772  1.1490
 4282TIP3    H212811   0.560   4.345   3.583 -0.2508 -1.0609  0.1777
 4283TIP3   OH212812   3.490   3.636   5.785  0.5265  0.0577  0.4773
 4283TIP3    H112813   3.490   3.592   5.700  0.0075  0.6632  0.1511
 4283TIP3    H212814   3.468   3.727   5.764  0.9327  0.3247  1.2050
 4284TIP3   OH212815   1.423   1.851   3.136  1.0095  0.0082 -0.2041
 4284TIP3    H112816   1.460   1.764   3.131  1.3069  0.1254 -0.0409
 4284TIP3    H212817   1.405   1.865   3.229  0.0561 -0.2558 -0.3398
 4285TIP3   OH212818   6.662   1.733   1.306  0.2131  0.2404  0.0851
 4285TIP3    H112819   6.727   1.664   1.317 -1.0465 -1.3040 -1.5529
 4285TIP3    H212820   6.585   1.702   1.352  0.1469  1.3802  0.7803
 4286TIP3   OH212821   4.971   2.108   3.953 -0.0879  0.4486  0.6286
 4286TIP3    H112822   5.001   2.109   3.862 -2.6714  0.8936 -0.3147
 4286TIP3    H212823   4.963   2.200   3.977 -0.0656  0.3360  1.0900
 4287TIP3   OH212824   3.759   2.455   5.627 -0.3639  0.8661  0.0699
 4287TIP3    H112825   3.665   2.445   5.614 -0.2480 -0.1967 -0.0996
 4287TIP3    H212826   3.784   2.376   5.676  0.4121  1.2114  0.2384
 4288TIP3   OH212827   0.077   5.959   3.788  0.6305 -0.2035 -0.0484
 4288TIP3    H112828   0.161   6.005   3.791 -0.1374  1.2345  0.4130
 4288TIP3    H212829   0.019   6.018   3.740 -0.5747 -0.3459  1.1544
 4289TIP3   OH212830   0.262   3.524   2.802  0.0465  0.1207  0.4480
 4289TIP3    H112831   0.202   3.572   2.746  1.9813  3.8628  1.2542
 4289TIP3    H212832   0.238   3.550   2.891  0.1514 -1.7938  1.0850
 4290TIP3   OH212833   5.922   4.508   0.875 -0.1657 -0.6586  0.1728
 4290TIP3    H112834   5.995   4.537   0.820 -0.6263 -1.0673 -0.6786
 4290TIP3    H212835   5.958   4.504   0.964 -0.1883  3.0529  0.4986
 4291TIP3   OH212836   3.695   3.519   5.195  0.5647 -0.2145  0.4784
 4291TIP3    H112837   3.735   3.459   5.258  0.9792 -0.0561  0.3731
 4291TIP3    H212838   3.769   3.549   5.141  0.1002 -0.9647 -0.6087
 4292TIP3   OH212839   7.124   1.104   5.330  0.0466  0.4969  0.0439
 4292TIP3    H112840   7.133   1.041   5.259 -0.0074 -0.9026  1.2299
 4292TIP3    H212841   7.033   1.095   5.359  0.6392 -0.6553  1.7508
 4293TIP3   OH212842   4.324   6.232   1.926 -0.1472  0.4879 -0.1512
 4293TIP3    H112843   4.258   6.218   1.858 -0.5397 -0.3282  0.3910
 4293TIP3    H212844   4.285   6.198   2.006  1.4749 -1.4292 -0.0917
 4294TIP3   OH212845   0.763   4.018   1.366  0.1228 -0.5816  0.5169
 4294TIP3    H112846   0.758   3.987   1.456 -0.4916  0.0722  0.7111
 4294TIP3    H212847   0.678   3.998   1.328 -0.1212  0.4466  0.5117
 4295TIP3   OH212848   4.825   6.464   4.889  0.4032 -0.2747  0.0615
 4295TIP3    H112849   4.810   6.371   4.873 -0.6169  0.2695 -2.7617
 4295TIP3    H212850   4.913   6.467   4.926  1.3842 -2.2707 -1.8366
 4296TIP3   OH212851   6.042   0.453   0.147 -0.2407 -0.1299 -0.2204
 4296TIP3    H112852   6.039   0.386   0.215 -1.9581  1.1104  1.0369
 4296TIP3    H212853   6.094   0.524   0.186  1.5628 -0.6673 -1.5332
 4297TIP3   OH212854   5.973   3.863   4.206  0.2266 -0.3109 -0.2849
 4297TIP3    H112855   5.913   3.929   4.242 -0.5148 -1.8361  1.4208
 4297TIP3    H212856   5.925   3.823   4.134 -0.7829 -1.3956  0.9500
 4298TIP3   OH212857   4.341   4.548   1.202  0.0425  0.1062 -0.2979
 4298TIP3    H112858   4.294   4.618   1.247  0.3317 -0.0887  0.3221
 4298TIP3    H212859   4.342   4.476   1.264  0.6375 -0.0955 -0.5344
 4299TIP3   OH212860   5.744   2.879   1.575  0.5795 -0.6029 -0.1761
 4299TIP3    H112861   5.782   2.816   1.636 -1.1161 -0.1430  1.4676
 4299TIP3    H212862   5.769   2.847   1.488  1.5879 -2.2968  0.6860
 4300TIP3   OH212863   4.819   0.896   2.224 -0.4077 -0.4613 -0.1909
 4300TIP3    H112864   4.866   0.823   2.265  1.2838 -0.3524 -1.8191
 4300TIP3    H212865   4.874   0.922   2.150 -1.2705  2.0992 -0.0277
 4301TIP3   OH212866   3.294   4.465   1.594 -0.7689 -0.0551 -0.1612
 4301TIP3    H112867   3.252   4.424   1.519  0.2649 -1.9271  0.2151
 4301TIP3    H212868   3.264   4.415   1.670 -0.7416  0.9352  0.5279
 4302TIP3   OH212869   3.001   0.293   1.552 -0.1321 -0.0028 -0.0128
 4302TIP3    H112870   3.023   0.318   1.642  0.4547 -1.9931  0.4664
 4302TIP3    H212871   3.068   0.334   1.498  0.7197 -0.4091  0.7076
 4303TIP3   OH212872   0.119   5.734   4.892  0.5702  0.8087  0.4125
 4303TIP3    H112873   0.099   5.721   4.800  0.7496  1.2216  0.3157
 4303TIP3    H212874   0.116   5.828   4.905  2.6191  0.9368  0.3391
 4304TIP3   OH212875   7.035   3.790   3.079 -0.0851  0.2351  0.2064
 4304TIP3    H112876   7.049   3.708   3.031 -1.5153  0.9208 -1.4755
 4304TIP3    H212877   7.014   3.762   3.168  1.9038 -1.1050  0.3203
 4305TIP3   OH212878   6.395   3.073   0.085 -0.3393 -0.4395  0.5638
 4305TIP3    H112879   6.453   3.125   0.029  0.0762  0.0464  1.4102
 4305TIP3    H212880   6.395   3.120   0.169 -1.8122 -0.5381  0.6408
 4306TIP3   OH212881   3.935   2.852   4.335 -0.0431  0.2554  0.4759
 4306TIP3    H112882   3.908   2.866   4.425  0.0871  1.0824  0.3883
 4306TIP3    H212883   3.859   2.877   4.282  0.8612  2.7208  0.2217
 4307TIP3   OH212884   4.520   3.148   1.144  0.1933 -0.5424  0.0156
 4307TIP3    H112885   4.581   3.086   1.184  3.4758  1.7071 -1.0782
 4307TIP3    H212886   4.521   3.125   1.051  3.1316  2.2102 -0.7822
 4308TIP3   OH212887   2.671   4.477   5.742  0.0471 -0.4141 -0.5296
 4308TIP3    H112888   2.708   4.527   5.670 -1.9919 -2.0573 -2.8699
 4308TIP3    H212889   2.739   4.415   5.766  1.3588  1.2270  0.1668
 4309TIP3   OH212890   3.986   1.198   5.029  0.1784 -0.7917 -0.7124
 4309TIP3    H112891   4.048   1.266   5.056 -0.0676 -1.5157  1.9931
 4309TIP3    H212892   4.035   1.145   4.967  1.1932  0.4396 -1.0047
 4310TIP3   OH212893   6.067   6.327   0.812 -0.4892  0.2847 -0.5703
 4310TIP3    H112894   6.057   6.233   0.796 -1.6041  0.4116 -0.7172
 4310TIP3    H212895   6.098   6.333   0.902 -0.9992 -0.2156 -0.3554
 4311TIP3   OH212896   6.692   4.018   5.667  0.0076  0.3760  0.0127
 4311TIP3    H112897   6.622   4.004   5.730 -0.5496  0.3770 -0.5984
 4311TIP3    H212898   6.705   3.932   5.626  0.1307  0.4556 -0.1170
 4312TIP3   OH212899   3.609   2.178   1.284  0.2275  0.4042 -0.1827
 4312TIP3    H112900   3.660   2.151   1.208 -0.4712 -0.3825 -0.3961
 4312TIP3    H212901   3.518   2.171   1.255 -0.1366 -1.6260  1.2403
 4313TIP3   OH212902   6.360   5.952   0.200 -0.5252  0.1674 -0.3405
 4313TIP3    H112903   6.355   5.958   0.295  1.3378 -2.8818  0.1141
 4313TIP3    H212904   6.293   6.013   0.168 -0.8204  1.7405  2.8506
 4314TIP3   OH212905   0.619   6.390   5.452  0.0997  0.3239  0.1340
 4314TIP3    H112906   0.686   6.372   5.386  2.2169 -0.9096  2.4805
 4314TIP3    H212907   0.657   6.459   5.506 -2.3966  2.6825 -0.8943
 4315TIP3   OH212908   0.178   4.257   3.520  0.0565 -0.0178  0.5394
 4315TIP3    H112909   0.125   4.334   3.540 -0.2206  1.0887 -3.6605
 4315TIP3    H212910   0.267   4.282   3.542  0.1183  1.9980 -1.6827
 4316TIP3   OH212911   4.113   5.092   1.482 -0.0166  0.0871 -0.2305
 4316TIP3    H112912   4.093   5.060   1.570 -0.3637  0.6354 -0.1037
 4316TIP3    H212913   4.110   5.013   1.427  0.8255 -0.3594  0.3392
 4317TIP3   OH212914   4.474   6.637   4.979 -0.1414  0.1403  0.4437
 4317TIP3    H112915   4.461   6.542   4.980  0.2559  0.0904  0.9227
 4317TIP3    H212916   4.535   6.652   4.906 -0.2479  0.0365  0.3322
 4318TIP3   OH212917   6.914   6.663   3.353 -0.0208  0.0156  0.0459
 4318TIP3    H112918   6.971   6.628   3.422 -1.3596  1.1332  1.7997
 4318TIP3    H212919   6.965   6.653   3.272  1.1678 -2.3443  1.0093
 4319TIP3   OH212920   1.702   5.984   4.252  0.0132 -0.4949  0.6762
 4319TIP3    H112921   1.698   6.009   4.344  0.1824  3.6128 -0.2349
 4319TIP3    H212922   1.620   6.016   4.214  0.1212 -1.7421 -0.6998
 4320TIP3   OH212923   4.079   0.264   3.318 -0.1183 -0.0500 -0.1068
 4320TIP3    H112924   4.030   0.332   3.270 -1.3305 -1.6820 -1.2887
 4320TIP3    H212925   4.124   0.215   3.249 -0.1385 -1.1207  0.6250
 4321TIP3   OH212926   2.985   3.029   3.268  0.1161  0.6671  0.6463
 4321TIP3    H112927   3.078   3.019   3.287  0.2851  0.8913 -0.0120
 4321TIP3    H212928   2.947   2.943   3.289  0.7400  0.0862 -0.4995
 4322TIP3   OH212929   6.558   1.156   2.873 -0.0777 -0.3972  0.4966
 4322TIP3    H112930   6.500   1.231   2.882  0.8620  0.5720 -0.8896
 4322TIP3    H212931   6.506   1.090   2.828  0.4064  1.3453 -3.0714
 4323TIP3   OH212932   1.151   5.243   5.082 -0.5775  0.1892  0.3474
 4323TIP3    H112933   1.059   5.222   5.101 -1.3914 -0.1658 -3.3121
 4323TIP3    H212934   1.194   5.158   5.074  0.1592  0.3550  2.0091
 4324TIP3   OH212935  -0.001   3.616   0.916  0.3591  0.0680 -0.1776
 4324TIP3    H112936  -0.009   3.590   1.008  3.5166 -2.0281 -0.3410
 4324TIP3    H212937   0.040   3.542   0.874  0.2633  1.5186 -3.0626
 4325TIP3   OH212938   5.883   3.741   1.128  0.8260  0.1863  0.5311
 4325TIP3    H112939   5.965   3.744   1.079  0.5949  1.0369  0.1684
 4325TIP3    H212940   5.900   3.791   1.208  0.0198  2.3955 -0.6076
 4326TIP3   OH212941   2.828   5.211   0.778  0.1985  0.3747 -0.1691
 4326TIP3    H112942   2.873   5.259   0.848 -0.1749  0.6601 -0.1233
 4326TIP3    H212943   2.878   5.231   0.699  1.3784 -0.9495  0.2040
 4327TIP3   OH212944   6.916   1.118   0.135 -0.2445 -0.3391  0.1207
 4327TIP3    H112945   6.853   1.151   0.071  1.4407  1.5130 -0.6658
 4327TIP3    H212946   6.996   1.105   0.085  0.6819 -0.3612  1.5618
 4328TIP3   OH212947   3.521   0.310   1.457  0.0249 -0.5208  0.1035
 4328TIP3    H112948   3.541   0.238   1.396 -1.1535 -1.9674  1.3440
 4328TIP3    H212949   3.435   0.342   1.428  0.2657 -0.0166 -0.0609
 4329TIP3   OH212950   7.119   1.714   0.657  0.2510  0.1477 -1.0548
 4329TIP3    H112951   7.182   1.774   0.617  1.9041 -0.1570  0.9080
 4329TIP3    H212952   7.034   1.756   0.645  1.1720  2.0913 -1.1481
 4330TIP3   OH212953   5.048   5.101   4.139 -0.2931 -0.1217 -0.4002
 4330TIP3    H112954   5.019   5.095   4.230 -1.2183  1.0802 -0.5984
 4330TIP3    H212955   5.057   5.009   4.110 -2.0960 -0.5236  0.2395
 4331TIP3   OH212956   2.953   0.855   2.121 -0.1847 -0.1980 -0.4563
 4331TIP3    H112957   2.938   0.762   2.102  0.2404 -0.3080 -0.2637
 4331TIP3    H212958   2.877   0.899   2.083 -1.4692 -0.8054  1.2524
 4332TIP3   OH212959   1.692   3.908   5.502  0.0964 -0.4677  0.6309
 4332TIP3    H112960   1.746   3.831   5.488  0.0568 -0.5448  0.9030
 4332TIP3    H212961   1.742   3.980   5.464  0.9513 -0.3403  1.9464
 4333TIP3   OH212962   3.216   2.438   5.293  0.0520 -0.3234 -0.4607
 4333TIP3    H112963   3.307   2.451   5.268  0.2324  0.8030  0.6775
 4333TIP3    H212964   3.215   2.354   5.340  1.0834  0.8776  1.9096
 4334TIP3   OH212965   4.969   6.153   0.375 -0.1984 -1.0815  0.5856
 4334TIP3    H112966   5.011   6.218   0.430 -1.3852 -0.4846  0.8094
 4334TIP3    H212967   5.018   6.156   0.293 -0.6013  0.5463  0.3685
 4335TIP3   OH212968   2.153   1.297   4.103 -0.6829 -0.3627 -0.4377
 4335TIP3    H112969   2.211   1.373   4.100  0.9750 -1.5403  0.5637
 4335TIP3    H212970   2.106   1.305   4.186  0.6546 -1.2173  0.4300
 4336TIP3   OH212971   5.919   6.628   0.218 -0.6359 -0.2874 -0.5925
 4336TIP3    H112972   5.947   6.693   0.153 -0.2937 -0.9319 -1.1110
 4336TIP3    H212973   5.993   6.621   0.278 -1.0194  0.4315 -0.0301
 4337TIP3   OH212974   3.604   2.797   3.203 -0.2100  0.4069 -0.2003
 4337TIP3    H112975   3.535   2.813   3.139  0.0718 -3.4951 -1.7380
 4337TIP3    H212976   3.685   2.822   3.158 -0.3216  2.2787  0.5520
 4338TIP3   OH212977   4.296   6.218   0.134 -0.0131  0.2008 -0.1223
 4338TIP3    H112978   4.332   6.275   0.203  0.2666  0.5312 -0.5405
 4338TIP3    H212979   4.282   6.134   0.179 -2.0685  1.0357  0.9550
 4339TIP3   OH212980   1.259   3.119   1.384  0.2014  0.1984  1.1038
 4339TIP3    H112981   1.210   3.066   1.321  0.5083  1.8479 -0.6036
 4339TIP3    H212982   1.196   3.140   1.453 -0.6473 -0.1714  0.4574
 4340TIP3   OH212983   1.547   3.660   1.326 -0.4103  0.0497  0.0704
 4340TIP3    H112984   1.503   3.744   1.310 -1.6123 -0.5376  0.1531
 4340TIP3    H212985   1.545   3.651   1.421  1.6778  0.9097  0.2553
 4341TIP3   OH212986   3.591   6.573   1.274 -0.3279 -0.0734  0.2505
 4341TIP3    H112987   3.557   6.484   1.284 -1.7229  0.7082  3.2551
 4341TIP3    H212988   3.515   6.626   1.252  0.0014  0.7753  1.0843
 4342TIP3   OH212989   4.123   1.319   3.484 -0.0625  0.0452 -0.2452
 4342TIP3    H112990   4.127   1.313   3.580 -0.3340 -1.1631 -0.3042
 4342TIP3    H212991   4.041   1.278   3.460 -0.3300  0.9685 -0.9686
 4343TIP3   OH212992   0.973   0.687   4.382 -0.0026 -0.0121 -0.0665
 4343TIP3    H112993   0.959   0.592   4.377  1.9029 -0.2628 -2.4567
 4343TIP3    H212994   0.920   0.715   4.457 -1.5288 -2.7652  0.0206
 4344TIP3   OH212995   3.012   3.237   0.779 -0.3877 -0.0596  0.5879
 4344TIP3    H112996   3.076   3.191   0.724  0.9792  2.5775 -0.2170
 4344TIP3    H212997   3.005   3.184   0.858 -0.2550 -2.4959 -0.9309
 4345TIP3   OH212998   0.869   6.692   5.401  0.7838  0.5667  0.0857
 4345TIP3    H112999   0.818   6.616   5.429  0.4610  1.4802  2.1855
 4345TIP3    H213000   0.829   6.719   5.318 -0.7454 -0.0410  0.5868
 4346TIP3   OH213001   2.042   6.312   0.331 -0.0998  0.1349 -0.0711
 4346TIP3    H113002   2.123   6.278   0.369  0.4660  0.5443 -0.8540
 4346TIP3    H213003   2.028   6.257   0.254 -1.0153 -0.4464  0.5057
 4347TIP3   OH213004   2.558   4.830   3.685 -0.2687 -0.3712 -0.5879
 4347TIP3    H113005   2.464   4.840   3.673 -0.6706 -1.0647  1.4943
 4347TIP3    H213006   2.576   4.738   3.668 -0.2744 -0.5950  0.5133
 4348TIP3   OH213007   5.264   3.969   4.257 -0.5309 -0.3102 -0.4570
 4348TIP3    H113008   5.224   3.944   4.174 -2.9877  0.8610  0.2716
 4348TIP3    H213009   5.218   3.917   4.323  1.1817 -1.0144  0.2430
 4349TIP3   OH213010   5.953   2.502   0.489 -0.3985 -0.4792 -0.2942
 4349TIP3    H113011   6.029   2.508   0.547 -2.3687 -2.2250  2.8009
 4349TIP3    H213012   5.986   2.466   0.407  2.4584  1.4415 -0.1197
 4350TIP3   OH213013   6.106   4.420   0.149  0.0381 -0.3091  0.5742
 4350TIP3    H113014   6.063   4.477   0.085 -2.0169  0.6261  2.6163
 4350TIP3    H213015   6.147   4.481   0.210  0.7330 -1.1282  0.9414
 4351TIP3   OH213016   5.215   0.249   2.235  0.3860  0.5348 -0.0243
 4351TIP3    H113017   5.128   0.256   2.197  0.2753  0.0913  0.1408
 4351TIP3    H213018   5.268   0.207   2.167 -0.4823 -2.9717  1.2590
 4352TIP3   OH213019   2.184   4.473   2.421 -0.0396  0.2664 -0.3464
 4352TIP3    H113020   2.276   4.494   2.405  1.2835 -2.2032  2.8375
 4352TIP3    H213021   2.169   4.502   2.512 -1.9796 -0.6768 -0.3191
 4353TIP3   OH213022   0.856   4.414   5.315  0.2028  0.3627  0.3711
 4353TIP3    H113023   0.761   4.427   5.306  0.2416  2.2324  1.9994
 4353TIP3    H213024   0.876   4.344   5.253 -2.2368 -0.1009 -0.0137
 4354TIP3   OH213025   2.014   4.678   1.257  0.3947 -0.2206 -0.4135
 4354TIP3    H113026   2.028   4.772   1.265 -2.5149  0.2755 -0.3342
 4354TIP3    H213027   2.007   4.647   1.347  3.4803 -0.9976 -0.3203
 4355TIP3   OH213028   2.986   2.917   2.426  0.8161 -0.5694  0.0404
 4355TIP3    H113029   2.992   2.849   2.493 -1.1515 -0.5898  0.2462
 4355TIP3    H213030   2.949   2.993   2.472  0.4192 -0.2548 -0.7854
 4356TIP3   OH213031   0.909   3.815   2.634  0.2773  0.4122  0.8893
 4356TIP3    H113032   0.968   3.762   2.687  0.1391 -1.3080 -0.5640
 4356TIP3    H213033   0.821   3.794   2.666  0.2553  0.1796  0.6802
 4357TIP3   OH213034   6.286   2.544   2.320  0.4840  0.5457  0.0153
 4357TIP3    H113035   6.204   2.572   2.360  0.9483 -0.1588  1.5240
 4357TIP3    H213036   6.294   2.452   2.343  0.9029  0.1679 -1.5359
 4358TIP3   OH213037   4.812   2.408   1.874  0.3475  0.7824 -0.9834
 4358TIP3    H113038   4.898   2.447   1.886  0.4229  0.2025  0.5242
 4358TIP3    H213039   4.751   2.473   1.909  0.3354  0.3554 -0.1914
 4359TIP3   OH213040   6.990   0.348   1.402 -0.2067 -0.4879 -0.1262
 4359TIP3    H113041   6.980   0.428   1.454  0.7999 -1.4684  1.6639
 4359TIP3    H213042   6.921   0.290   1.434 -0.3683 -0.6785 -0.7920
 4360TIP3   OH213043   4.359   0.274   0.971  0.0619  0.4979  0.5299
 4360TIP3    H113044   4.422   0.310   1.033 -0.6995  1.6999  0.6260
 4360TIP3    H213045   4.311   0.350   0.938 -0.2223 -0.2250 -0.7881
 4361TIP3   OH213046   6.342   3.499   1.775  0.1271  0.4062 -0.1659
 4361TIP3    H113047   6.357   3.412   1.739 -0.5011  0.4720 -0.5979
 4361TIP3    H213048   6.268   3.488   1.835 -0.7278  0.8602 -1.1130
 4362TIP3   OH213049   5.473   0.215   2.992 -0.2037  0.7014 -0.0633
 4362TIP3    H113050   5.463   0.285   3.057  1.7083  0.5413  0.4698
 4362TIP3    H213051   5.494   0.261   2.911  1.0539  0.7678  0.2871
 4363TIP3   OH213052   0.963   3.029   1.924  0.3352 -0.2786  0.3283
 4363TIP3    H113053   0.995   2.942   1.945  0.6175 -0.1186  0.5782
 4363TIP3    H213054   0.993   3.084   1.996  1.2351  0.2659 -0.4328
 4364TIP3   OH213055   0.540   3.063   3.552  0.2038 -0.1436 -0.3654
 4364TIP3    H113056   0.493   3.013   3.619  0.9357  0.7823  0.8729
 4364TIP3    H213057   0.612   3.005   3.526  1.1038  0.2425  1.1285
 4365TIP3   OH213058   5.548   2.586   5.052  0.3418 -0.0225  0.0710
 4365TIP3    H113059   5.482   2.542   4.998  0.3182 -0.1298  0.1859
 4365TIP3    H213060   5.497   2.642   5.110  0.3872  0.3567 -0.2567
 4366TIP3   OH213061   5.443   4.772   4.870  0.4012 -0.1546  0.1972
 4366TIP3    H113062   5.373   4.766   4.935  1.5710  0.5561  1.5743
 4366TIP3    H213063   5.441   4.863   4.841 -0.2154 -0.5063 -0.9103
 4367TIP3   OH213064   3.218   6.115   5.729  0.1686 -0.4528 -0.3529
 4367TIP3    H113065   3.281   6.088   5.797  0.6574  1.3184 -0.0493
 4367TIP3    H213066   3.133   6.092   5.766  0.5441 -1.8335 -0.2690
 4368TIP3   OH213067   2.670   4.828   3.205  0.6295 -0.2615 -0.2844
 4368TIP3    H113068   2.613   4.768   3.157  2.6622 -1.5392 -1.2626
 4368TIP3    H213069   2.616   4.906   3.220 -1.0653 -1.0289 -1.9697
 4369TIP3   OH213070   4.056   2.002   3.559  0.5325 -0.1918 -0.1222
 4369TIP3    H113071   4.118   1.931   3.580  1.8069  1.3352  1.5777
 4369TIP3    H213072   3.976   1.978   3.606  0.2989 -1.3927 -1.0622
 4370TIP3   OH213073   1.123   5.488   2.854 -0.2631 -0.0573 -0.3268
 4370TIP3    H113074   1.112   5.428   2.927 -0.4543  1.8094  1.2448
 4370TIP3    H213075   1.217   5.509   2.854  0.0838 -1.4040 -1.7910
 4371TIP3   OH213076   4.221   1.719   1.638  0.7310  0.5771  0.5943
 4371TIP3    H113077   4.137   1.751   1.670  0.8556  0.6095  0.8918
 4371TIP3    H213078   4.199   1.645   1.583  0.5518  0.1344  1.2481
 4372TIP3   OH213079   4.823   3.674   3.251 -0.1445 -0.5140 -0.3633
 4372TIP3    H113080   4.759   3.604   3.253 -0.6718 -0.1713 -2.7059
 4372TIP3    H213081   4.801   3.728   3.327  0.5953 -3.0450  1.7973
 4373TIP3   OH213082   6.566   5.763   1.930  0.1192  0.0724  0.0825
 4373TIP3    H113083   6.633   5.778   1.864  1.3870 -0.3875  1.2150
 4373TIP3    H213084   6.552   5.849   1.970  0.7810 -0.0177  0.5180
 4374TIP3   OH213085   4.657   4.204   3.020 -0.1546  0.4087  0.3419
 4374TIP3    H113086   4.734   4.151   3.000 -0.0171  0.4773  0.6868
 4374TIP3    H213087   4.600   4.146   3.071 -0.4192  0.2969 -0.0711
 4375TIP3   OH213088   1.884   6.370   5.826  0.1824 -0.1462 -0.1440
 4375TIP3    H113089   1.850   6.301   5.769  1.6395 -0.7233 -0.3412
 4375TIP3    H213090   1.820   6.441   5.816 -1.6727 -1.6308  0.5318
 4376TIP3   OH213091   1.625   5.390   4.233 -1.1753 -0.0856 -0.2271
 4376TIP3    H113092   1.581   5.384   4.318 -1.5593  1.7094 -0.2658
 4376TIP3    H213093   1.608   5.479   4.203  0.0991 -0.2541 -1.5720
 4377TIP3   OH213094   5.903   3.418   2.577 -0.1515 -0.0250 -0.1595
 4377TIP3    H113095   5.817   3.423   2.535  0.0039  1.8655 -0.3523
 4377TIP3    H213096   5.934   3.330   2.558 -0.9339  0.1103 -2.3307
 4378TIP3   OH213097   0.869   4.536   5.856  0.2009  0.1177  0.5685
 4378TIP3    H113098   0.961   4.520   5.835 -0.2666 -0.3243 -1.3520
 4378TIP3    H213099   0.826   4.544   5.771 -1.4082  1.1730  1.4313
 4379TIP3   OH213100   5.645   6.603   5.081 -0.3823 -0.0563 -0.3871
 4379TIP3    H113101   5.610   6.646   5.159  0.7198  0.7198 -0.2957
 4379TIP3    H213102   5.568   6.578   5.030 -1.2056 -1.7734  1.5390
 4380TIP3   OH213103   4.068   4.613   4.365  0.1415 -0.1254  0.4879
 4380TIP3    H113104   4.132   4.600   4.435 -0.1987 -0.1210  0.8027
 4380TIP3    H213105   4.011   4.683   4.397  1.0754  1.1784 -0.5668
 4381TIP3   OH213106   4.682   6.019   3.893 -0.3652  0.5917  0.0448
 4381TIP3    H113107   4.772   5.987   3.901 -0.3498  0.4092 -0.7415
 4381TIP3    H213108   4.690   6.101   3.844 -0.8058 -0.5903 -2.1344
 4382TIP3   OH213109   2.398   2.576   2.419 -0.1914  0.6624  0.1370
 4382TIP3    H113110   2.453   2.644   2.379 -0.0720  1.1698  1.1437
 4382TIP3    H213111   2.308   2.607   2.406 -0.1414  0.9635  0.4921
 4383TIP3   OH213112   6.807   1.193   5.661 -0.2829 -0.1051  0.3337
 4383TIP3    H113113   6.901   1.181   5.651 -0.3513 -0.2742 -0.1162
 4383TIP3    H213114   6.792   1.184   5.755  0.2904  0.9875  0.5421
 4384TIP3   OH213115   4.338   6.609   5.620  0.3539 -0.5105  1.0111
 4384TIP3    H113116   4.292   6.528   5.641 -1.6262  0.0435 -0.8484
 4384TIP3    H213117   4.355   6.603   5.526  1.4948  0.6250  1.1106
 4385TIP3   OH213118   1.693   2.802   0.165 -0.1329 -0.1920  0.5495
 4385TIP3    H113119   1.742   2.790   0.246  0.6290  0.1975  0.1495
 4385TIP3    H213120   1.736   2.745   0.102 -0.5859 -0.3261  0.3587
 4386TIP3   OH213121   3.181   0.444   4.693 -0.0334  0.2913  0.4662
 4386TIP3    H113122   3.249   0.381   4.673  0.2834  0.5762  0.6276
 4386TIP3    H213123   3.199   0.472   4.783 -1.8469 -1.4900  1.4659
 4387TIP3   OH213124   4.130   2.804   1.932  0.1115  0.0597 -0.0952
 4387TIP3    H113125   4.202   2.746   1.954 -0.5287 -0.6476  0.1926
 4387TIP3    H213126   4.144   2.881   1.986 -0.2671 -0.7712  1.2355
 4388TIP3   OH213127   6.367   4.931   5.360  0.4390  0.5941 -0.2023
 4388TIP3    H113128   6.308   4.874   5.311 -1.6333  1.5622  1.0025
 4388TIP3    H213129   6.449   4.883   5.364  0.3558 -0.0838 -3.4413
 4389TIP3   OH213130   1.011   1.622   3.441  0.2128  0.3879 -0.5291
 4389TIP3    H113131   1.100   1.591   3.421  0.4130 -0.7037  1.6490
 4389TIP3    H213132   1.022   1.714   3.465  0.9990 -0.0208  0.8164
 4390TIP3   OH213133   0.243   0.383   1.177  0.4675 -0.1239  0.3589
 4390TIP3    H113134   0.163   0.426   1.209  1.4640  1.2052  1.1414
 4390TIP3    H213135   0.268   0.324   1.248 -0.4159 -1.4161 -0.3580
 4391TIP3   OH213136   5.791   0.413   1.436  0.0077 -0.1352  0.3025
 4391TIP3    H113137   5.800   0.487   1.377 -0.0053  0.7757  1.3989
 4391TIP3    H213138   5.872   0.413   1.487  0.9793 -2.2397 -1.1377
 4392TIP3   OH213139   1.242   5.888   4.770  0.3023  0.0159  0.4194
 4392TIP3    H113140   1.207   5.802   4.748  0.5893 -0.0755  0.3083
 4392TIP3    H213141   1.214   5.902   4.861  1.3066 -0.7558  0.8739
 4393TIP3   OH213142   0.913   3.432   0.157 -0.1947 -0.1419 -0.4338
 4393TIP3    H113143   0.909   3.497   0.087 -0.8424  1.5703  1.1162
 4393TIP3    H213144   0.942   3.481   0.234 -0.2095 -1.8064  0.6856
 4394TIP3   OH213145   7.171   6.737   1.605 -0.3896  0.1630 -0.2082
 4394TIP3    H113146   7.218   6.755   1.687  0.1358 -1.4117 -0.1394
 4394TIP3    H213147   7.221   6.782   1.538 -0.0630  0.3503  0.1587
 4395TIP3   OH213148   5.522   2.780   5.323 -0.1012  0.0435  0.2667
 4395TIP3    H113149   5.443   2.770   5.270 -0.1389 -0.8186  0.4553
 4395TIP3    H213150   5.562   2.693   5.321  0.6111  0.3581  0.5373
 4396TIP3   OH213151   1.215   2.267   4.273 -0.5381  0.2088  0.1995
 4396TIP3    H113152   1.190   2.352   4.308  2.0219  1.2997 -0.3771
 4396TIP3    H213153   1.238   2.285   4.181 -2.3875 -1.6414 -0.7275
 4397TIP3   OH213154   7.089   1.090   1.128 -0.3460 -0.2097  0.2036
 4397TIP3    H113155   7.126   1.167   1.086  2.7296 -1.9844 -0.6940
 4397TIP3    H213156   7.062   1.033   1.056  0.9589 -1.4772  0.6450
 4398TIP3   OH213157   6.139   6.051   0.503  0.2301 -0.7238 -0.0449
 4398TIP3    H113158   6.185   6.135   0.502  0.4754 -0.8498 -1.6083
 4398TIP3    H213159   6.199   5.991   0.460 -0.8876 -1.1616 -1.0527
 4399TIP3   OH213160   5.877   5.269   4.507  0.3009 -0.4073 -0.4450
 4399TIP3    H113161   5.876   5.361   4.536 -2.7085  0.6207 -3.2681
 4399TIP3    H213162   5.962   5.259   4.464  0.9099  0.8536  0.3878
 4400TIP3   OH213163   7.150   3.097   2.119 -0.0624  0.4029 -0.2454
 4400TIP3    H113164   7.194   3.160   2.176 -0.0982 -1.4164  1.9257
 4400TIP3    H213165   7.214   3.078   2.050  1.1166  0.5586  0.7708
 4401TIP3   OH213166   4.439   1.838   1.749  0.2548  0.1976 -0.4468
 4401TIP3    H113167   4.384   1.886   1.811 -1.4982  1.5084 -2.8559
 4401TIP3    H213168   4.381   1.771   1.713  1.7243 -1.6352  0.4299
 4402TIP3   OH213169   3.016   3.841   0.740 -0.7930  0.0926  0.3369
 4402TIP3    H113170   3.092   3.888   0.774  0.5444 -0.9921 -1.0520
 4402TIP3    H213171   3.051   3.783   0.672 -3.1393  1.2802 -2.0781
 4403TIP3   OH213172   7.029   0.008   2.322 -0.4739 -0.1484  0.5642
 4403TIP3    H113173   7.002   0.089   2.278 -1.5400 -0.9405 -0.2840
 4403TIP3    H213174   7.031   0.031   2.415 -0.5588  0.9036  0.3164
 4404TIP3   OH213175   6.896   5.788   2.526 -0.2721  0.8628 -0.5158
 4404TIP3    H113176   6.825   5.725   2.508  0.4085 -0.0466 -0.1146
 4404TIP3    H213177   6.899   5.794   2.621 -0.7580  2.0283 -0.5592
 4405TIP3   OH213178   5.693   3.035   2.167 -0.7774  0.5163  0.1429
 4405TIP3    H113179   5.779   3.025   2.208 -0.6304  0.7853 -0.0997
 4405TIP3    H213180   5.662   2.945   2.154  0.6316  0.3043 -2.2234
 4406TIP3   OH213181   5.954   0.496   0.626  0.1511 -0.0996 -0.5917
 4406TIP3    H113182   5.988   0.419   0.581 -1.8675 -0.3050 -1.8834
 4406TIP3    H213183   5.987   0.570   0.575 -0.1319 -0.2267 -0.9586
 4407TIP3   OH213184   3.009   2.518   1.367 -0.1238 -0.2542 -0.0428
 4407TIP3    H113185   2.944   2.583   1.395 -0.8288 -0.1403 -1.8240
 4407TIP3    H213186   3.093   2.558   1.386 -0.5639  0.4603  0.4328
 4408TIP3   OH213187   3.440   4.823   2.036 -0.1121  0.5470  0.3036
 4408TIP3    H113188   3.411   4.893   1.976  1.1137 -0.3027 -1.3694
 4408TIP3    H213189   3.358   4.783   2.067 -0.8029  0.8001 -1.1013
 4409TIP3   OH213190   7.064   3.685   0.047 -0.4756 -0.0902  0.3507
 4409TIP3    H113191   7.026   3.628   0.113 -0.8650 -0.4838 -0.2009
 4409TIP3    H213192   7.154   3.654   0.037 -1.0901 -1.6030 -0.9838
 4410TIP3   OH213193   0.423   3.540   1.121  0.2089 -0.2672 -0.2965
 4410TIP3    H113194   0.336   3.538   1.161 -0.5430 -0.7952 -1.8776
 4410TIP3    H213195   0.479   3.495   1.184 -0.1328  2.0369  1.8144
 4411TIP3   OH213196   1.405   4.415   0.968 -0.1013  0.3854 -0.0878
 4411TIP3    H113197   1.429   4.484   1.029  0.4545  0.0541  0.0762
 4411TIP3    H213198   1.396   4.337   1.023 -0.6296  0.3034 -0.2833
 4412TIP3   OH213199   0.148   5.756   3.073 -0.0352  0.4347 -0.2823
 4412TIP3    H113200   0.080   5.710   3.122 -0.2325  1.8898  0.8774
 4412TIP3    H213201   0.104   5.833   3.036  0.7660  0.9053 -0.2955
 4413TIP3   OH213202   6.224   2.272   1.575 -0.3699 -0.1858  0.1978
 4413TIP3    H113203   6.165   2.326   1.522 -0.8531 -1.3434 -0.4671
 4413TIP3    H213204   6.168   2.205   1.614  0.2362 -0.2728  0.9527
 4414TIP3   OH213205   3.237   5.868   5.204  0.0865 -0.0585 -0.4704
 4414TIP3    H113206   3.224   5.788   5.255  0.3006  0.8719  1.1182
 4414TIP3    H213207   3.281   5.839   5.124 -0.9401 -1.6688 -0.5057
 4415TIP3   OH213208   4.144   6.095   0.530 -0.2289 -0.2309  0.7301
 4415TIP3    H113209   4.162   6.102   0.623  0.1900 -0.6397  0.6800
 4415TIP3    H213210   4.090   6.171   0.510  2.3943  1.7300  0.6307
 4416TIP3   OH213211   2.404   2.333   5.848  0.3331  0.9341 -0.8139
 4416TIP3    H113212   2.454   2.410   5.875  0.1946  1.0363 -0.8504
 4416TIP3    H213213   2.319   2.343   5.891  1.1108 -0.4084  1.1603
 4417TIP3   OH213214   6.040   6.601   5.183 -0.5231  0.6468 -0.3193
 4417TIP3    H113215   5.978   6.558   5.124 -0.1453  0.5724 -0.6572
 4417TIP3    H213216   5.984   6.649   5.244 -0.9405  0.0243 -0.1989
 4418TIP3   OH213217   1.061   4.931   3.915 -0.4176 -0.7898  0.5434
 4418TIP3    H113218   0.975   4.959   3.945 -0.8689 -1.6773  0.1076
 4418TIP3    H213219   1.121   4.958   3.985 -0.6493  2.1086 -0.2391
 4419TIP3   OH213220   0.315   2.322   5.447 -0.3264  0.1279 -0.8580
 4419TIP3    H113221   0.318   2.383   5.520 -1.2182  0.2305 -0.9016
 4419TIP3    H213222   0.224   2.292   5.444 -0.2858  0.0644 -1.8682
 4420TIP3   OH213223   6.674   0.546   1.532  0.4101  0.4854  0.2704
 4420TIP3    H113224   6.617   0.553   1.455 -0.9163  0.0105  1.1780
 4420TIP3    H213225   6.700   0.636   1.551  0.5124  0.6398 -0.5334
 4421TIP3   OH213226   3.133   3.433   0.129  0.2541 -0.1041  0.1999
 4421TIP3    H113227   3.055   3.487   0.136  1.6216  2.0298 -0.0287
 4421TIP3    H213228   3.171   3.435   0.217 -0.6570 -2.3606  0.6987
 4422TIP3   OH213229   2.489   2.785   2.010 -0.3374 -0.3401 -0.2810
 4422TIP3    H113230   2.574   2.748   1.986 -1.0619 -1.4355 -1.2453
 4422TIP3    H213231   2.482   2.863   1.955 -0.7453 -1.2804 -1.6149
 4423TIP3   OH213232   3.204   1.492   2.451  0.3824  0.7066  0.2905
 4423TIP3    H113233   3.238   1.462   2.367  1.0333 -1.5149  1.2628
 4423TIP3    H213234   3.114   1.518   2.433 -0.2228 -1.8500 -0.7346
 4424TIP3   OH213235   0.088   0.843   3.222 -0.6151  0.0277  0.7031
 4424TIP3    H113236   0.134   0.909   3.273  0.1501 -1.3541  1.8597
 4424TIP3    H213237   0.003   0.882   3.202 -0.3858  1.1350  1.8265
 4425TIP3   OH213238   0.826   0.387   1.561  0.4023 -0.3513 -0.8833
 4425TIP3    H113239   0.799   0.309   1.513 -2.3357  0.0896 -0.1752
 4425TIP3    H213240   0.821   0.458   1.496  1.9192 -0.5500 -1.2620
 4426TIP3   OH213241   5.317   5.676   1.496 -0.2542  0.5888  0.3053
 4426TIP3    H113242   5.362   5.620   1.559  0.7118  0.8434 -0.1514
 4426TIP3    H213243   5.285   5.750   1.548 -3.2571 -1.2305  1.3165
 4427TIP3   OH213244   4.892   0.828   3.596 -0.2487 -0.1350 -0.0335
 4427TIP3    H113245   4.818   0.768   3.581  2.3613 -3.6986 -0.0879
 4427TIP3    H213246   4.885   0.851   3.689 -1.4437 -0.3787 -0.0408
 4428TIP3   OH213247   3.364   2.260   4.509 -0.3025 -0.1414  0.1625
 4428TIP3    H113248   3.280   2.246   4.465 -0.7841  0.1584  0.9658
 4428TIP3    H213249   3.341   2.271   4.601  0.7852 -1.9139  0.6952
 4429TIP3   OH213250   0.938   3.468   0.660  0.4686  0.1786 -0.5790
 4429TIP3    H113251   1.003   3.437   0.722  0.0735 -0.1577 -0.3245
 4429TIP3    H213252   0.866   3.406   0.668  0.3968  0.1553 -1.3481
 4430TIP3   OH213253   3.063   2.253   5.815 -0.2094  0.2746 -0.0836
 4430TIP3    H113254   3.109   2.173   5.790 -3.4142 -1.7799  0.0261
 4430TIP3    H213255   3.057   2.248   5.911  0.2928  1.1326  0.0053
 4431TIP3   OH213256   3.644   1.274   2.730  0.2301 -0.5133  0.3701
 4431TIP3    H113257   3.700   1.331   2.677 -1.4595  0.1047 -0.8415
 4431TIP3    H213258   3.629   1.197   2.674 -1.6725  0.1978 -0.1660
 4432TIP3   OH213259   3.134   3.685   4.720 -0.1725  0.6633  0.6736
 4432TIP3    H113260   3.113   3.723   4.634  0.2422 -0.9513 -0.1887
 4432TIP3    H213261   3.117   3.591   4.709  0.9783  0.2681  2.0176
 4433TIP3   OH213262   3.467   4.839   5.045  0.2388  0.3677  0.0125
 4433TIP3    H113263   3.460   4.922   5.092  0.9739 -0.4372  1.6282
 4433TIP3    H213264   3.552   4.845   5.000  0.9250 -0.0034  1.2099
 4434TIP3   OH213265   5.980   1.457   2.859 -0.1406 -0.2070  0.1894
 4434TIP3    H113266   6.044   1.496   2.799 -0.5735  0.5703  0.2250
 4434TIP3    H213267   6.031   1.393   2.909  0.0534 -1.5131 -1.5876
 4435TIP3   OH213268   4.375   2.778   4.273  0.0775 -0.3201 -0.3248
 4435TIP3    H113269   4.362   2.825   4.356 -0.2682  1.2061 -1.2127
 4435TIP3    H213270   4.348   2.688   4.293  0.2481 -0.0541  1.2831
 4436TIP3   OH213271   4.902   2.398   0.012 -0.3773  0.1546 -0.0829
 4436TIP3    H113272   4.916   2.490   0.034  0.5641  0.0840 -0.3611
 4436TIP3    H213273   4.981   2.353   0.042 -1.5621 -0.8706  1.6761
 4437TIP3   OH213274   0.154   0.641   0.345  0.5688 -0.6657  0.6741
 4437TIP3    H113275   0.079   0.670   0.293  0.3211 -0.1672  1.3079
 4437TIP3    H213276   0.218   0.612   0.279  1.5193  2.8526 -0.1552
 4438TIP3   OH213277   0.796   3.936   5.075  0.9050  0.1025 -0.5092
 4438TIP3    H113278   0.801   3.921   4.980  2.3388 -0.0931 -0.4331
 4438TIP3    H213279   0.870   3.886   5.110  0.1055 -0.2178  0.7711
 4439TIP3   OH213280   4.746   2.244   1.646  0.0666 -0.5570  0.0055
 4439TIP3    H113281   4.815   2.241   1.581  0.4181 -2.7702  0.4311
 4439TIP3    H213282   4.773   2.314   1.706  1.6429 -0.9742 -0.1714
 4440TIP3   OH213283   2.980   6.379   5.592 -0.0841  0.0601 -0.9131
 4440TIP3    H113284   3.056   6.333   5.556  0.1585 -0.2512 -0.0054
 4440TIP3    H213285   3.015   6.463   5.621  0.2950 -0.7456  1.1029
 4441TIP3   OH213286   4.840   4.056   5.667 -0.3429 -0.1219 -0.2494
 4441TIP3    H113287   4.869   3.988   5.728 -1.9922 -0.3967  0.2828
 4441TIP3    H213288   4.817   4.009   5.587 -0.7866 -0.1157 -0.1305
 4442TIP3   OH213289   6.628   1.696   5.678  0.0522 -0.4474  0.0687
 4442TIP3    H113290   6.613   1.606   5.707 -1.5088 -0.3306 -0.2917
 4442TIP3    H213291   6.597   1.750   5.750  0.1389 -0.1921 -0.0838
 4443TIP3   OH213292   1.286   3.257   0.060 -0.3900  0.1785 -0.7580
 4443TIP3    H113293   1.328   3.230  -0.022 -0.1120 -0.9811 -0.2513
 4443TIP3    H213294   1.285   3.353   0.055 -0.1129  0.1399 -1.9808
 4444TIP3   OH213295   3.620   4.363   2.901 -0.1270 -0.3603 -0.8806
 4444TIP3    H113296   3.605   4.430   2.835 -0.5299  0.4596  0.0338
 4444TIP3    H213297   3.697   4.393   2.950  0.5495 -1.2676 -1.3327
 4445TIP3   OH213298   2.542   2.145   5.683  0.0185 -0.4951 -0.6665
 4445TIP3    H113299   2.589   2.208   5.629  0.8597 -1.5554 -1.2163
 4445TIP3    H213300   2.469   2.194   5.720  2.2422  1.6650  1.3187
 4446TIP3   OH213301   4.953   4.569   4.422 -0.2805 -0.3763  0.0989
 4446TIP3    H113302   4.906   4.486   4.431  0.7808 -0.8148  2.0146
 4446TIP3    H213303   4.961   4.582   4.327 -0.0432 -2.7016 -0.2524
 4447TIP3   OH213304   6.633   3.518   4.019  0.2468  0.0958 -0.5046
 4447TIP3    H113305   6.575   3.467   4.075  0.1912  2.6720  2.0045
 4447TIP3    H213306   6.718   3.513   4.063  0.4390  1.3874 -0.7095
 4448TIP3   OH213307   3.984   1.844   1.709 -0.3054 -0.1038 -0.5939
 4448TIP3    H113308   3.959   1.859   1.800 -1.1199 -1.0313 -0.6402
 4448TIP3    H213309   3.974   1.929   1.666 -2.5384 -0.2221 -0.3925
 4449TIP3   OH213310   3.909   5.541   0.666 -0.9603 -0.3496 -0.1263
 4449TIP3    H113311   3.941   5.473   0.726  1.5060 -0.7154 -1.7239
 4449TIP3    H213312   3.815   5.523   0.659 -0.6687 -2.6040  0.7345
 4450TIP3   OH213313   2.292   0.165   4.312 -0.3475  0.1160 -0.1037
 4450TIP3    H113314   2.259   0.075   4.306 -0.0036  0.0640 -1.6326
 4450TIP3    H213315   2.225   0.218   4.268  0.3755  0.3214 -0.9977
 4451TIP3   OH213316   0.492   3.210   3.980  0.3856  0.1092 -0.4557
 4451TIP3    H113317   0.485   3.286   3.923 -1.4491  2.3082  2.4546
 4451TIP3    H213318   0.407   3.167   3.974  0.3287  0.1120  0.2849
 4452TIP3   OH213319   4.098   6.647   5.850 -0.4921 -0.3683  0.1431
 4452TIP3    H113320   4.165   6.604   5.798  0.9795  0.4367  1.3040
 4452TIP3    H213321   4.131   6.645   5.940 -0.9573  1.9537  0.4536
 4453TIP3   OH213322   1.470   1.345   0.048 -0.2763  0.0659 -0.0495
 4453TIP3    H113323   1.543   1.390   0.090  0.5567 -1.4282  0.1663
 4453TIP3    H213324   1.467   1.382  -0.041  0.8381  0.0378 -0.1080
 4454TIP3   OH213325   5.922   0.558   2.188 -0.2882 -0.3907 -0.3241
 4454TIP3    H113326   5.834   0.529   2.212 -0.4218  1.0795  1.1677
 4454TIP3    H213327   5.948   0.618   2.258  1.2185  0.5502 -1.6008
 4455TIP3   OH213328   1.215   3.423   1.521 -0.1864  0.0751  0.2510
 4455TIP3    H113329   1.120   3.418   1.522 -0.1302 -1.2032  0.6049
 4455TIP3    H213330   1.241   3.411   1.612  0.2878  1.5576  0.3397
 4456TIP3   OH213331   0.284   1.630   1.234  0.0932 -0.6626 -0.0325
 4456TIP3    H113332   0.216   1.697   1.241  0.7481 -0.0222  0.4104
 4456TIP3    H213333   0.274   1.576   1.312 -0.5977 -1.2504 -0.5166
 4457TIP3   OH213334   3.264   3.831   3.800  0.4541 -0.0063 -0.5993
 4457TIP3    H113335   3.310   3.912   3.823  0.4832 -0.3553  0.6535
 4457TIP3    H213336   3.329   3.762   3.813 -0.0505 -0.3833 -0.0174
 4458TIP3   OH213337   1.965   1.779   3.771 -0.0709 -0.2694 -0.3281
 4458TIP3    H113338   1.882   1.733   3.764 -0.3219  0.1745 -0.2526
 4458TIP3    H213339   1.942   1.871   3.781  0.3733 -0.3045  1.4524
 4459TIP3   OH213340   3.528   4.416   4.366 -0.0065  0.7406 -0.6571
 4459TIP3    H113341   3.442   4.376   4.352  0.3223 -0.3059  0.2212
 4459TIP3    H213342   3.578   4.392   4.288 -0.9241  2.6386 -1.9226
 4460TIP3   OH213343   4.129   5.159   4.605 -0.8360 -0.1297 -0.2390
 4460TIP3    H113344   4.205   5.190   4.654 -0.5836 -2.9698  1.4030
 4460TIP3    H213345   4.145   5.188   4.515  2.5035 -1.0005 -0.0568
 4461TIP3   OH213346   0.531   3.729   5.103  0.7830  0.3051 -0.6221
 4461TIP3    H113347   0.568   3.801   5.154 -0.1664  0.2934  0.1034
 4461TIP3    H213348   0.492   3.671   5.168  0.0344  0.0089 -1.3232
 4462TIP3   OH213349   3.605   0.974  -0.014  0.3010 -0.3056 -0.0375
 4462TIP3    H113350   3.542   0.912   0.022  0.0637 -0.2965 -0.4353
 4462TIP3    H213351   3.690   0.943   0.016  0.1648 -0.7127 -0.0765
 4463TIP3   OH213352   5.097   0.313   2.889 -0.0928 -0.2966  0.2256
 4463TIP3    H113353   5.020   0.258   2.877 -1.2202  1.2182  0.2701
 4463TIP3    H213354   5.135   0.321   2.801  0.6060 -1.8247  0.3572
 4464TIP3   OH213355   4.189   4.201   1.984 -0.1409 -0.9785 -0.2002
 4464TIP3    H113356   4.213   4.173   2.072  0.8057 -0.0970 -0.1579
 4464TIP3    H213357   4.099   4.233   1.993 -0.8878 -2.9977 -0.0559
 4465TIP3   OH213358   0.058   0.677   1.682  0.1147  0.2918  0.4084
 4465TIP3    H113359   0.057   0.725   1.599 -0.0583 -0.6726 -0.1586
 4465TIP3    H213360   0.140   0.704   1.724  0.3289  0.6034 -0.1923
 4466TIP3   OH213361   6.930   0.448   4.334  0.0818  0.3156 -0.1877
 4466TIP3    H113362   6.947   0.540   4.316  1.0988 -0.1816 -1.9057
 4466TIP3    H213363   6.886   0.449   4.420 -2.0564  2.5604 -1.1704
 4467TIP3   OH213364   6.446   4.657   2.961  0.4089 -0.5410  0.3480
 4467TIP3    H113365   6.378   4.653   2.893 -3.9374 -1.9557  4.2606
 4467TIP3    H213366   6.471   4.749   2.964 -2.1980  0.2858 -0.5861
 4468TIP3   OH213367   5.115   6.584   2.131  0.3624  0.0997 -0.5103
 4468TIP3    H113368   5.089   6.493   2.146 -1.5130  0.5382 -0.8028
 4468TIP3    H213369   5.090   6.629   2.211  0.9533  0.4260 -0.5081
 4469TIP3   OH213370   2.166   5.546   2.396 -0.1919  0.0963  0.7350
 4469TIP3    H113371   2.206   5.626   2.361  0.3937 -0.7248 -0.5382
 4469TIP3    H213372   2.083   5.539   2.349  0.2967 -0.6641 -0.0279
 4470TIP3   OH213373   1.503   4.509   5.265  0.1257  0.8357 -0.3318
 4470TIP3    H113374   1.580   4.491   5.212  0.6844 -0.2132  0.7878
 4470TIP3    H213375   1.430   4.507   5.203  0.4152 -2.9913 -0.7844
 4471TIP3   OH213376   4.937   2.006   1.704  0.2305  0.3533 -0.3091
 4471TIP3    H113377   4.931   2.095   1.670 -0.6290  0.8571  1.0796
 4471TIP3    H213378   4.846   1.976   1.710  0.3544  0.2020  1.2421
 4472TIP3   OH213379   2.643   5.597   4.130 -0.1916 -0.0254  0.3312
 4472TIP3    H113380   2.673   5.531   4.192 -0.0169  0.1375  0.4231
 4472TIP3    H213381   2.566   5.636   4.172  0.5759  0.8533  0.9685
 4473TIP3   OH213382   0.472   2.431   4.501  0.4030  0.1179 -0.1916
 4473TIP3    H113383   0.525   2.352   4.512  0.4153 -0.1212 -1.7683
 4473TIP3    H213384   0.535   2.502   4.491  0.3939  0.4149  1.5374
 4474TIP3   OH213385   3.572   5.987   0.449  0.6734 -0.2951 -0.3248
 4474TIP3    H113386   3.581   5.903   0.494  2.5610  0.1368  0.2229
 4474TIP3    H213387   3.569   5.964   0.356  0.7924 -0.9990 -0.1612
 4475TIP3   OH213388   5.221   6.299   2.840  0.3888  0.0375 -0.5523
 4475TIP3    H113389   5.133   6.308   2.803  0.0956  2.0686  0.4839
 4475TIP3    H213390   5.279   6.336   2.773  0.2356  0.4272 -0.4755
 4476TIP3   OH213391   0.074   1.421   4.678  0.5139  0.1422  0.5944
 4476TIP3    H113392   0.157   1.387   4.711  1.0877  1.8436  1.0122
 4476TIP3    H213393   0.093   1.445   4.587  0.3014 -0.0244  0.5054
 4477TIP3   OH213394   3.453   2.606   0.147  0.2628 -0.1147 -0.1772
 4477TIP3    H113395   3.504   2.583   0.224 -1.7884  2.7303  2.2809
 4477TIP3    H213396   3.362   2.590   0.173 -0.6345  2.7241 -1.1806
 4478TIP3   OH213397   6.226   4.197   5.842  0.1631  0.4054 -0.1379
 4478TIP3    H113398   6.290   4.253   5.797 -1.3731  1.5838 -0.9809
 4478TIP3    H213399   6.211   4.125   5.781  0.0772  0.5695 -0.3125
 4479TIP3   OH213400   5.274   0.192   5.761  0.8082 -0.3564  0.2448
 4479TIP3    H113401   5.208   0.123   5.759  1.3865 -0.9024 -0.5028
 4479TIP3    H213402   5.292   0.211   5.669  0.9207  0.5445  0.4402
 4480TIP3   OH213403   4.474   1.835   4.755  0.6350 -0.3091 -0.0349
 4480TIP3    H113404   4.471   1.855   4.849  1.3613 -0.4562  0.0258
 4480TIP3    H213405   4.382   1.834   4.728  0.4179 -0.2597  0.6734
 4481TIP3   OH213406   5.225   2.516   1.380  0.3131  0.5741 -0.0557
 4481TIP3    H113407   5.203   2.425   1.360  1.2837  0.2837  0.1170
 4481TIP3    H213408   5.162   2.543   1.446  0.0986 -0.0189 -0.0176
 4482TIP3   OH213409   2.305   1.579   2.971 -0.1342 -0.0815 -0.8775
 4482TIP3    H113410   2.400   1.581   2.986 -0.0209 -0.5615 -1.4804
 4482TIP3    H213411   2.278   1.491   2.997 -0.4442  0.1135 -0.5387
 4483TIP3   OH213412   3.518   2.367   0.737 -0.1272 -0.4565 -0.0902
 4483TIP3    H113413   3.488   2.449   0.697  1.3558  1.0598  1.7532
 4483TIP3    H213414   3.609   2.360   0.711 -0.0140 -1.0920  0.4660
 4484TIP3   OH213415   5.964   5.171   2.071 -0.2883  0.2389 -0.0679
 4484TIP3    H113416   6.016   5.248   2.093  0.2312 -0.7103  2.3776
 4484TIP3    H213417   5.876   5.191   2.105 -0.4268  0.1636 -0.3763
 4485TIP3   OH213418   1.294   5.449   0.644  0.7546 -0.0439 -0.3334
 4485TIP3    H113419   1.246   5.369   0.666 -0.6829  1.0374  0.7030
 4485TIP3    H213420   1.276   5.462   0.551 -1.5515  0.6093  0.1203
 4486TIP3   OH213421   2.483   1.734   5.217 -0.4027 -0.1630 -0.3454
 4486TIP3    H113422   2.520   1.814   5.179  2.4997 -0.9160  0.6706
 4486TIP3    H213423   2.475   1.754   5.310 -1.7667 -0.3658 -0.3974
 4487TIP3   OH213424   5.976   1.149   3.997 -0.7309  0.0267 -0.1021
 4487TIP3    H113425   5.998   1.239   4.022  0.9367 -0.6436  1.0170
 4487TIP3    H213426   6.055   1.099   4.015 -1.2893 -1.5255 -1.6294
 4488TIP3   OH213427   5.980   0.218   5.765 -0.4307 -0.2401 -0.2224
 4488TIP3    H113428   5.962   0.312   5.763 -0.4163 -0.0918  2.6607
 4488TIP3    H213429   6.072   0.211   5.791 -0.1616 -1.0956 -1.2923
 4489TIP3   OH213430   2.230   5.725   5.609 -0.9483  0.4102 -0.4863
 4489TIP3    H113431   2.295   5.761   5.549 -0.5362  1.9608  0.8511
 4489TIP3    H213432   2.279   5.663   5.663 -0.9328  0.4005 -0.5113
 4490TIP3   OH213433   0.361   2.420   2.646 -0.7301 -0.0835  0.1911
 4490TIP3    H113434   0.327   2.406   2.558  0.7069 -1.4532 -0.2034
 4490TIP3    H213435   0.355   2.514   2.660 -0.8333  0.1816 -1.4346
 4491TIP3   OH213436   0.297   5.614   2.918 -0.4169 -0.5837 -0.1916
 4491TIP3    H113437   0.268   5.524   2.933  0.1524 -0.4011  2.4684
 4491TIP3    H213438   0.238   5.668   2.972  1.9536  0.1729  1.8165
 4492TIP3   OH213439   1.534   2.320   2.434  0.1570  0.5253  0.2414
 4492TIP3    H113440   1.467   2.307   2.367  1.4169 -1.7826 -0.6758
 4492TIP3    H213441   1.499   2.276   2.511 -0.3595  1.3436  0.4905
 4493TIP3   OH213442   1.591   3.852   0.837  0.0402 -0.4636 -0.6869
 4493TIP3    H113443   1.546   3.932   0.810 -0.5215 -0.4258  0.3033
 4493TIP3    H213444   1.572   3.845   0.930 -1.6013 -2.7991 -1.1116
 4494TIP3   OH213445   5.178   3.551   2.270  0.2717  0.0101  0.3642
 4494TIP3    H113446   5.095   3.596   2.257 -0.8533 -2.2245 -0.6597
 4494TIP3    H213447   5.186   3.543   2.365 -1.1465 -0.5544  0.4585
 4495TIP3   OH213448   3.907   6.184   3.450 -0.3855  0.0033  0.3001
 4495TIP3    H113449   3.938   6.186   3.359  0.8422  1.3761  0.7027
 4495TIP3    H213450   3.960   6.117   3.492 -1.5479 -1.2495 -0.1519
 4496TIP3   OH213451   3.135   3.693   3.574 -0.3724 -0.6179 -0.2002
 4496TIP3    H113452   3.141   3.730   3.663  1.9538 -0.3157 -0.4040
 4496TIP3    H213453   3.106   3.766   3.520 -0.3090 -0.3620  0.1048
 4497TIP3   OH213454   4.812   2.511   4.225 -0.0861  0.2425 -0.2275
 4497TIP3    H113455   4.743   2.539   4.285 -0.2350 -2.6348  1.1516
 4497TIP3    H213456   4.883   2.573   4.238 -0.1268 -0.2330  3.0264
 4498TIP3   OH213457   2.536   5.176   4.539  0.2848  0.4841 -0.1001
 4498TIP3    H113458   2.511   5.232   4.465 -0.1039  0.7007  0.1955
 4498TIP3    H213459   2.602   5.227   4.586  1.3347 -0.0980 -0.8933
 4499TIP3   OH213460   0.816   5.692   1.680 -0.4422 -0.1420  0.2230
 4499TIP3    H113461   0.832   5.633   1.753 -0.1544 -0.4959 -0.1210
 4499TIP3    H213462   0.853   5.776   1.708 -0.8942 -0.1084  0.7316
 4500TIP3   OH213463   5.468   5.657   4.582 -0.2346  0.7408 -0.1449
 4500TIP3    H113464   5.532   5.681   4.649 -1.2598  0.7755  0.8570
 4500TIP3    H213465   5.466   5.561   4.584  1.0070  0.6691 -1.3824
 4501TIP3   OH213466   3.949   2.031   5.159  0.1484  0.6319  0.1118
 4501TIP3    H113467   3.959   2.123   5.136 -2.6396  1.1201  0.5177
 4501TIP3    H213468   3.887   1.997   5.094  2.3369 -1.4498 -1.0352
 4502TIP3   OH213469   3.979   4.382   5.409  0.5764  0.0213  0.4155
 4502TIP3    H113470   3.884   4.380   5.393  0.3745 -1.0105  1.5806
 4502TIP3    H213471   3.997   4.472   5.438 -0.2432 -0.0562  1.2160
 4503TIP3   OH213472   2.771   1.519   3.893 -0.0571  0.2481 -0.3874
 4503TIP3    H113473   2.834   1.461   3.850  0.1099  0.7641 -0.8615
 4503TIP3    H213474   2.781   1.500   3.986  0.1077 -0.3672 -0.5230
 4504TIP3   OH213475   5.009   0.506   0.157 -0.5813  0.3666 -0.0259
 4504TIP3    H113476   5.001   0.565   0.232  1.2802 -1.0097  1.3353
 4504TIP3    H213477   5.095   0.525   0.121 -1.4725  1.0396 -1.9066
 4505TIP3   OH213478   6.546   4.514   4.202  0.3594 -0.2635  0.1239
 4505TIP3    H113479   6.506   4.600   4.187  0.8319 -0.2826 -1.4798
 4505TIP3    H213480   6.594   4.524   4.284  1.7273  1.5521 -0.8185
 4506TIP3   OH213481   0.487   2.750   3.273 -0.3949 -0.0038  0.3279
 4506TIP3    H113482   0.461   2.839   3.297  0.1398  0.3147 -0.2445
 4506TIP3    H213483   0.582   2.754   3.267 -0.4067 -0.4850 -0.2220
 4507TIP3   OH213484   6.844   5.270   0.743 -0.1981 -0.2724  0.2118
 4507TIP3    H113485   6.782   5.266   0.816 -1.6227  0.0236 -0.9252
 4507TIP3    H213486   6.807   5.211   0.677 -0.8517  2.0301 -1.6242
 4508TIP3   OH213487   4.267   0.377   2.333 -0.1422  0.0377 -0.3416
 4508TIP3    H113488   4.225   0.349   2.414  0.8769  2.6030  1.2102
 4508TIP3    H213489   4.340   0.316   2.321  0.0026 -0.0814  1.0119
 4509TIP3   OH213490   0.687   5.813   2.066 -0.4134 -0.0318  0.2120
 4509TIP3    H113491   0.631   5.735   2.064  1.2187 -1.3429  1.6995
 4509TIP3    H213492   0.763   5.789   2.012  1.4556 -0.7058  2.9181
 4510TIP3   OH213493   5.149   6.365   3.929 -0.5836 -0.0229 -0.0665
 4510TIP3    H113494   5.164   6.271   3.937  0.6289  0.1102 -0.6662
 4510TIP3    H213495   5.205   6.393   3.856 -1.0373  1.1403  0.0074
 4511TIP3   OH213496   6.026   6.385   1.809 -0.0206 -0.3059  0.3505
 4511TIP3    H113497   6.068   6.361   1.726 -0.6812 -1.9074  0.4522
 4511TIP3    H213498   6.086   6.353   1.877 -0.8178 -1.6029  0.4847
 4512TIP3   OH213499   2.429   1.126   3.075 -0.7329  0.5705 -0.3633
 4512TIP3    H113500   2.427   1.043   3.121 -1.5478  1.3261  1.0212
 4512TIP3    H213501   2.483   1.183   3.129 -1.6720  1.4634 -0.3210
 4513TIP3   OH213502   1.998   0.411   5.446 -0.5661  0.5406  0.2678
 4513TIP3    H113503   2.006   0.316   5.449  1.1875  0.6389 -0.2838
 4513TIP3    H213504   1.953   0.434   5.527 -0.1546 -0.6913  0.8690
 4514TIP3   OH213505   2.078   4.154   5.553 -0.2024 -0.6399 -0.3770
 4514TIP3    H113506   2.173   4.167   5.555  0.0078 -1.4556 -2.3541
 4514TIP3    H213507   2.043   4.216   5.617  1.5656  0.5636 -0.5201
 4515TIP3   OH213508   3.842   3.580   3.082  0.1627 -0.3545  0.2520
 4515TIP3    H113509   3.828   3.504   3.139 -0.3442 -0.0858  0.4944
 4515TIP3    H213510   3.922   3.621   3.115  0.0027 -0.3378  0.6212
 4516TIP3   OH213511   3.858   3.312   4.651  0.2450 -0.4665  0.1273
 4516TIP3    H113512   3.850   3.344   4.561 -0.5612  0.0906  0.3849
 4516TIP3    H213513   3.934   3.254   4.649  1.0142  0.5280 -0.6285
 4517TIP3   OH213514   5.649   1.765   3.351  0.1644  0.7613 -0.2892
 4517TIP3    H113515   5.688   1.783   3.266 -1.2832 -1.1303 -1.4401
 4517TIP3    H213516   5.567   1.720   3.331 -0.8832  1.4207  2.0940
 4518TIP3   OH213517   3.523   4.587   2.727  0.0653  0.0504  0.3462
 4518TIP3    H113518   3.492   4.615   2.813 -1.8647  2.1056 -0.9091
 4518TIP3    H213519   3.540   4.669   2.680  0.4095 -1.0065 -1.4640
 4519TIP3   OH213520   3.901   3.003   3.374 -0.0182  0.0513 -0.2002
 4519TIP3    H113521   3.948   2.921   3.388  0.2412  0.2384  0.0312
 4519TIP3    H213522   3.852   3.016   3.456 -2.3162 -1.3242 -1.2358
 4520TIP3   OH213523   3.592   5.924   4.367  0.1754  0.6040  0.4468
 4520TIP3    H113524   3.639   5.920   4.283  1.0392 -1.1783  0.9577
 4520TIP3    H213525   3.591   6.017   4.390  1.5623  0.9262 -0.6462
 4521TIP3   OH213526   0.954   5.267   3.788 -0.5548  0.1981 -0.3668
 4521TIP3    H113527   0.867   5.241   3.818 -1.3451  1.2379 -1.6614
 4521TIP3    H213528   0.940   5.351   3.743  1.1171  0.3952 -0.5759
 4522TIP3   OH213529   0.219   1.885   4.958  0.4313 -0.0808 -0.2237
 4522TIP3    H113530   0.216   1.879   5.053 -3.3127  0.3142 -0.1582
 4522TIP3    H213531   0.214   1.794   4.928  0.6335 -0.1558 -0.0279
 4523TIP3   OH213532   1.650   6.227   5.744 -0.2421  0.2866 -0.2381
 4523TIP3    H113533   1.670   6.212   5.837 -0.6034  0.6366 -0.1008
 4523TIP3    H213534   1.622   6.142   5.711  0.9694 -0.0956 -0.3065
 4524TIP3   OH213535   0.530   6.679   4.988  0.3773 -0.2281 -0.1867
 4524TIP3    H113536   0.507   6.770   5.004 -0.8925 -0.6663  0.6303
 4524TIP3    H213537   0.592   6.682   4.915  1.4329  1.3750  0.7320
 4525TIP3   OH213538   2.395   5.572   0.440 -0.2540  0.1266 -0.3722
 4525TIP3    H113539   2.413   5.661   0.467 -0.1345 -0.0878  0.2761
 4525TIP3    H213540   2.481   5.536   0.416 -0.0934 -0.2289  0.6723
 4526TIP3   OH213541   4.888   2.131   0.740  0.5590 -0.2584 -0.1399
 4526TIP3    H113542   4.915   2.050   0.784  0.0687  0.1757  0.9954
 4526TIP3    H213543   4.917   2.201   0.798  0.4340  0.3682 -0.8134
 4527TIP3   OH213544   5.064   5.396   0.391 -0.5391  0.4506  0.2136
 4527TIP3    H113545   5.127   5.341   0.438 -1.0472  0.8204  1.3407
 4527TIP3    H213546   5.034   5.341   0.319  0.2854 -0.1025  0.2725
 4528TIP3   OH213547   0.325   4.548   4.606  0.3665 -0.0496  0.5570
 4528TIP3    H113548   0.256   4.556   4.671  0.4693 -0.0886  0.6705
 4528TIP3    H213549   0.322   4.455   4.580  0.6965 -0.1591  0.9134
 4529TIP3   OH213550   3.541   5.061   0.930  0.2137  0.1904  0.1406
 4529TIP3    H113551   3.634   5.047   0.915  1.2627  3.0839  2.8247
 4529TIP3    H213552   3.518   5.133   0.870  0.4229  1.1534  1.1718
 4530TIP3   OH213553   0.296   2.400   4.713 -0.5287  0.0705 -0.4044
 4530TIP3    H113554   0.291   2.305   4.706 -2.3700  0.2223 -2.0057
 4530TIP3    H213555   0.348   2.427   4.637  1.1429  0.3238  0.7653
 4531TIP3   OH213556   6.340   6.481   1.079 -0.3533 -0.4902  0.1085
 4531TIP3    H113557   6.341   6.478   0.983 -0.1662 -0.7463  0.1179
 4531TIP3    H213558   6.261   6.531   1.100 -1.2747 -1.7769 -0.1576
 4532TIP3   OH213559   7.054   0.378   2.840  0.5688  0.0819 -0.4664
 4532TIP3    H113560   7.082   0.460   2.799 -0.2870  0.6952  0.1355
 4532TIP3    H213561   7.126   0.355   2.899  0.7082  0.5331 -0.4600
 4533TIP3   OH213562   3.282   5.346   1.239  0.0767 -0.3367 -0.2481
 4533TIP3    H113563   3.229   5.403   1.184 -0.7171 -1.8093 -1.0530
 4533TIP3    H213564   3.369   5.347   1.199  0.5913  1.6379  0.7564
 4534TIP3   OH213565   1.033   3.223   4.404  0.3833 -0.0866  0.7079
 4534TIP3    H113566   1.013   3.162   4.334 -2.2626 -0.2433  1.5163
 4534TIP3    H213567   1.127   3.213   4.418  0.3151 -2.7924 -0.2571
 4535TIP3   OH213568   6.797   4.858   0.423 -0.7460 -0.4658  0.0794
 4535TIP3    H113569   6.787   4.819   0.510 -0.1930 -0.7426  0.0219
 4535TIP3    H213570   6.721   4.826   0.374 -0.1264 -1.7682 -0.0748
 4536TIP3   OH213571   4.809   3.877   5.475  0.6748  0.3824  0.3600
 4536TIP3    H113572   4.861   3.819   5.419 -0.8012 -1.4304  0.7251
 4536TIP3    H213573   4.718   3.848   5.461  0.1763  0.2202  3.2120
 4537TIP3   OH213574   4.463   1.982   4.979 -0.2634  0.1559 -0.4341
 4537TIP3    H113575   4.523   1.953   5.048 -0.0487  1.2805 -0.1409
 4537TIP3    H213576   4.376   1.979   5.020 -0.1348  0.8381 -0.1013
 4538TIP3   OH213577   1.783   2.298   2.622 -0.0839 -0.5438  0.2178
 4538TIP3    H113578   1.794   2.348   2.541  2.2316  0.9199  1.3220
 4538TIP3    H213579   1.716   2.233   2.601 -0.2371  0.3682 -2.5699
 4539TIP3   OH213580   4.140   6.480   2.650 -0.4081 -0.4575 -0.6600
 4539TIP3    H113581   4.045   6.470   2.650 -0.6165  0.2492  2.5294
 4539TIP3    H213582   4.168   6.440   2.732  1.8532  0.7262 -0.7601
 4540TIP3   OH213583   1.827   6.359   1.590 -0.1901 -0.1760 -0.3299
 4540TIP3    H113584   1.818   6.265   1.573  0.5187 -0.2713 -0.2062
 4540TIP3    H213585   1.911   6.383   1.550  0.6568 -0.0403  1.4441
 4541TIP3   OH213586   5.990   1.829   3.433  0.1603  0.0508 -0.1594
 4541TIP3    H113587   6.024   1.776   3.361 -1.1843 -2.6772  1.1005
 4541TIP3    H213588   5.932   1.893   3.391  0.9786 -0.1345 -1.6313
 4542TIP3   OH213589   4.499   4.342   4.703  0.4538  0.0431  0.4407
 4542TIP3    H113590   4.580   4.393   4.705 -0.5552  1.7470  0.3401
 4542TIP3    H213591   4.505   4.285   4.779  1.9394 -0.2103  0.1753
 4543TIP3   OH213592   2.145   0.747   2.638 -0.0170  0.2880 -0.3734
 4543TIP3    H113593   2.212   0.678   2.638 -0.5777 -0.3374  1.8139
 4543TIP3    H213594   2.064   0.701   2.659 -0.5662  1.4847  0.1971
 4544TIP3   OH213595   6.067   3.651   3.722 -0.2380 -0.0180  0.3872
 4544TIP3    H113596   6.017   3.700   3.787 -0.3879 -0.8515  0.9258
 4544TIP3    H213597   6.065   3.561   3.754 -1.1972 -0.6413 -1.3136
 4545TIP3   OH213598   4.680   1.844   5.146  0.2473 -0.2571  0.1623
 4545TIP3    H113599   4.724   1.886   5.072 -1.3457  0.0540 -0.6451
 4545TIP3    H213600   4.731   1.765   5.163  0.8125 -0.1678 -1.0538
 4546TIP3   OH213601   0.701   2.528   3.088  0.4068 -0.2461 -0.0278
 4546TIP3    H113602   0.723   2.446   3.133  1.9812 -0.7367 -1.5901
 4546TIP3    H213603   0.735   2.597   3.146 -0.5382 -0.6932  1.0839
 4547TIP3   OH213604   0.967   2.503   3.369  0.5619 -0.0156 -0.0649
 4547TIP3    H113605   1.042   2.497   3.310  2.9714  0.1682  2.7427
 4547TIP3    H213606   0.961   2.416   3.408 -0.2493  0.1717  0.2403
 4548TIP3   OH213607   2.998   1.886   1.595 -0.3744 -0.3327 -0.0504
 4548TIP3    H113608   2.951   1.959   1.555 -0.6941 -0.6982 -0.3428
 4548TIP3    H213609   3.026   1.832   1.521 -1.4824 -1.3285  0.2268
 4549TIP3   OH213610   0.472   4.942   1.375  0.0551 -0.1026 -0.9390
 4549TIP3    H113611   0.469   4.940   1.470 -2.6530 -0.6041 -0.9496
 4549TIP3    H213612   0.546   4.886   1.352  0.7972  0.0887  0.8636
 4550TIP3   OH213613   4.308   1.233   0.381 -0.0462  0.1474  0.5759
 4550TIP3    H113614   4.241   1.300   0.371 -1.7817 -1.3351  1.4810
 4550TIP3    H213615   4.339   1.215   0.292 -2.0738 -0.2756 -0.0835
 4551TIP3   OH213616   0.724   4.706   2.181 -0.3936 -0.3349 -0.3810
 4551TIP3    H113617   0.806   4.755   2.182  0.5315 -1.7527  1.8966
 4551TIP3    H213618   0.657   4.770   2.203  0.4729  0.3835  0.2478
 4552TIP3   OH213619   5.432   0.571   3.995  0.3117  0.0218  0.0411
 4552TIP3    H113620   5.338   0.555   3.988  0.6419 -1.9133 -0.5227
 4552TIP3    H213621   5.465   0.558   3.907  0.9930  1.9044 -0.0323
 4553TIP3   OH213622   0.638   5.930   3.870 -0.2959  0.0830 -0.4962
 4553TIP3    H113623   0.732   5.929   3.883 -0.2863  0.7515 -0.4509
 4553TIP3    H213624   0.603   5.871   3.938 -0.0388  1.3462  0.7978
 4554TIP3   OH213625   4.526   6.579   2.433 -1.0394  0.7253 -0.3199
 4554TIP3    H113626   4.567   6.617   2.355  0.8112 -0.4513  0.0246
 4554TIP3    H213627   4.496   6.492   2.404  0.9910 -0.3495  0.5602
 4555TIP3   OH213628   1.355   3.328   3.850 -0.2657  0.6373  0.0962
 4555TIP3    H113629   1.393   3.347   3.764  0.2164  1.8444  0.5480
 4555TIP3    H213630   1.312   3.243   3.840  2.0757 -0.5697 -0.6221
 4556TIP3   OH213631   3.431   1.172   3.191  0.0817 -0.2782 -0.4183
 4556TIP3    H113632   3.452   1.245   3.251 -1.2509  0.9411 -1.3600
 4556TIP3    H213633   3.485   1.188   3.114 -1.0429  0.3932 -1.0882
 4557TIP3   OH213634   3.299   6.677   1.418  0.1953  0.2419  0.3695
 4557TIP3    H113635   3.330   6.718   1.338 -0.1435 -0.5017 -0.1594
 4557TIP3    H213636   3.266   6.749   1.472 -2.9427  0.5299 -1.6641
 4558TIP3   OH213637   0.919   4.425   2.518  0.7407 -0.5714 -0.2098
 4558TIP3    H113638   0.866   4.365   2.466 -0.4294  0.6607 -0.5257
 4558TIP3    H213639   0.958   4.485   2.454  0.4198  0.1028  0.2075
 4559TIP3   OH213640   5.971   3.404   5.309 -0.4544  0.3209  0.1915
 4559TIP3    H113641   6.045   3.436   5.257 -0.2976  1.1667  0.8935
 4559TIP3    H213642   5.973   3.309   5.299 -0.0818  0.4296 -0.8642
 4560TIP3   OH213643   6.433   4.284   5.004 -0.3032 -0.3413  0.5724
 4560TIP3    H113644   6.429   4.368   5.049 -0.5185  0.1691 -0.3881
 4560TIP3    H213645   6.342   4.257   4.995 -0.2710 -0.3617  0.2997
 4561TIP3   OH213646   3.973   4.970   3.817 -0.0341 -0.6704  0.2064
 4561TIP3    H113647   4.041   4.961   3.884 -0.0441 -1.1968  0.1494
 4561TIP3    H213648   3.891   4.968   3.865 -0.0082  0.0771  0.2862
 4562TIP3   OH213649   5.973   2.281   1.010 -0.3459  0.1766  0.4388
 4562TIP3    H113650   5.921   2.308   1.086  1.5487  0.9876  1.5123
 4562TIP3    H213651   6.063   2.304   1.033  0.7704 -2.6718 -0.6403
 4563TIP3   OH213652   2.126   3.543   4.504  0.4579 -0.0725  0.0510
 4563TIP3    H113653   2.220   3.556   4.493  0.8222 -1.6250  1.0014
 4563TIP3    H213654   2.088   3.630   4.494  1.7533  0.2678 -2.4791
 4564TIP3   OH213655   2.589   4.514   4.462 -0.1676  0.0921  0.6770
 4564TIP3    H113656   2.527   4.481   4.527 -0.3888  2.2184  1.6111
 4564TIP3    H213657   2.561   4.604   4.445  2.4103  1.0064  0.8503
 4565TIP3   OH213658   5.863   0.909   5.820  0.1020  0.0388  0.0488
 4565TIP3    H113659   5.912   0.962   5.757 -0.6378 -0.1757 -0.7273
 4565TIP3    H213660   5.793   0.868   5.768 -0.0273 -0.7992  0.8478
 4566TIP3   OH213661   3.592   1.682   4.452  0.3335 -0.1921  0.1315
 4566TIP3    H113662   3.539   1.604   4.471  0.9923 -0.7205 -0.1898
 4566TIP3    H213663   3.531   1.755   4.466 -0.5026 -0.7872 -0.2556
 4567TIP3   OH213664   0.272   2.518   5.656  0.2049  0.6530  0.1229
 4567TIP3    H113665   0.219   2.466   5.717 -0.0323 -0.5163 -1.0493
 4567TIP3    H213666   0.348   2.546   5.708 -0.5944  0.7213  1.2800
 4568TIP3   OH213667   0.375   5.125   4.615 -0.2950  0.2314 -0.4517
 4568TIP3    H113668   0.406   5.059   4.553 -0.7250 -0.9395  0.5147
 4568TIP3    H213669   0.450   5.140   4.673 -0.2012  0.5834 -0.6649
 4569TIP3   OH213670   0.513   5.647   1.084  0.0884 -0.0707 -0.3096
 4569TIP3    H113671   0.580   5.689   1.138  1.6568 -1.0506 -1.4095
 4569TIP3    H213672   0.499   5.707   1.011 -0.3704  0.2002 -0.0075
 4570TIP3   OH213673   6.857   6.171   5.434 -0.1789 -0.5579  0.1728
 4570TIP3    H113674   6.832   6.226   5.360 -0.4644 -2.1137 -0.9587
 4570TIP3    H213675   6.804   6.092   5.423 -0.3167 -0.7769  2.1329
 4571TIP3   OH213676   3.215   1.554   5.049  0.3835  0.0058 -0.2468
 4571TIP3    H113677   3.296   1.538   5.002  0.1106  0.5469 -0.9092
 4571TIP3    H213678   3.151   1.574   4.981  0.2227  1.8321  0.3964
 4572TIP3   OH213679   3.252   6.264   3.040 -0.2522  0.5274 -0.4272
 4572TIP3    H113680   3.243   6.215   3.122 -1.0071 -0.3048 -0.9855
 4572TIP3    H213681   3.346   6.275   3.028 -0.0779 -0.6215 -0.1822
 4573TIP3   OH213682   1.138   5.689   0.661 -0.2024  0.0422  0.3567
 4573TIP3    H113683   1.190   5.610   0.645 -1.4541 -0.5765 -0.7932
 4573TIP3    H213684   1.134   5.733   0.576  0.0219  1.0804  0.8628
 4574TIP3   OH213685   6.745   4.313   0.170 -0.4110  0.2216 -0.4334
 4574TIP3    H113686   6.699   4.232   0.188 -0.0105  0.0938  0.0439
 4574TIP3    H213687   6.805   4.291   0.099  0.0672 -0.0433  0.0457
 4575TIP3   OH213688   4.961   5.351   2.754  0.0104 -0.3314  0.4304
 4575TIP3    H113689   4.933   5.337   2.664  0.0036 -0.3668  0.4381
 4575TIP3    H213690   4.925   5.277   2.803  0.5784 -0.6737  0.3397
 4576TIP3   OH213691   5.031   1.066   4.906 -0.3607  0.6293 -0.2172
 4576TIP3    H113692   5.109   1.011   4.914 -0.4559  0.4184 -0.6457
 4576TIP3    H213693   5.003   1.054   4.815  0.5665  2.6909 -0.8267
 4577TIP3   OH213694   3.002   6.281   4.824 -0.3279  0.1683 -0.0952
 4577TIP3    H113695   3.063   6.302   4.895 -0.7366 -0.3787  0.4221
 4577TIP3    H213696   2.920   6.321   4.850 -0.4413  0.0944 -0.3381
 4578TIP3   OH213697   4.948   2.013   2.234  1.1632 -0.0373  0.0135
 4578TIP3    H113698   4.945   1.919   2.255  0.3099  0.0288  0.2090
 4578TIP3    H213699   5.024   2.022   2.176  1.2939 -0.8366  0.0480
 4579TIP3   OH213700   0.389   4.664   5.769 -0.0170  0.0640 -0.1317
 4579TIP3    H113701   0.436   4.721   5.708  0.3024  0.4826  0.4979
 4579TIP3    H213702   0.433   4.678   5.853  0.2177 -1.2849 -0.0165
 4580TIP3   OH213703   3.701   1.842   0.834 -0.3811  0.1713  0.4528
 4580TIP3    H113704   3.667   1.753   0.838  0.5277 -0.3283 -1.5573
 4580TIP3    H213705   3.781   1.840   0.886 -0.7041 -0.0090  0.9460
 4581TIP3   OH213706   2.473   4.423   4.728  0.3800  0.0733 -0.0042
 4581TIP3    H113707   2.384   4.447   4.755  0.7127  0.0004  1.2187
 4581TIP3    H213708   2.530   4.480   4.780  1.0594 -0.2755 -0.3566
 4582TIP3   OH213709   1.701   2.997   1.128  0.4674  0.1059  0.1798
 4582TIP3    H113710   1.753   2.933   1.079  0.3590 -0.9351  1.3743
 4582TIP3    H213711   1.761   3.071   1.142  0.4579  0.5026 -1.5944
 4583TIP3   OH213712   3.846   0.658   3.646  0.3991 -0.1259 -0.2799
 4583TIP3    H113713   3.773   0.615   3.601  1.6687 -2.5419 -0.2064
 4583TIP3    H213714   3.880   0.721   3.582 -2.7297  2.4341  0.2994
 4584TIP3   OH213715   6.339   5.188   4.767 -0.0835  0.0246  0.3283
 4584TIP3    H113716   6.417   5.232   4.801  0.7457 -1.9552  1.1247
 4584TIP3    H213717   6.282   5.260   4.738 -0.0840  1.8262  4.1834
 4585TIP3   OH213718   4.081   5.923   2.516 -0.4133  0.3182 -0.3032
 4585TIP3    H113719   4.036   5.850   2.473  0.4632  0.0576 -0.7988
 4585TIP3    H213720   4.010   5.981   2.543 -1.0672 -0.1937 -0.8535
 4586TIP3   OH213721   3.577   5.389   1.466  0.2368  0.3651  0.1210
 4586TIP3    H113722   3.610   5.478   1.475 -1.2298  0.8064  1.3034
 4586TIP3    H213723   3.585   5.351   1.553  2.0712 -1.1607 -0.6173
 4587TIP3   OH213724   1.087   2.741   5.587  0.0870  0.2874  0.2450
 4587TIP3    H113725   1.162   2.684   5.575 -1.2551 -1.2651 -1.2147
 4587TIP3    H213726   1.034   2.697   5.654  0.1459  1.0434  0.8034
 4588TIP3   OH213727   2.872   4.607   4.336  0.1335 -0.1575  0.0600
 4588TIP3    H113728   2.885   4.661   4.258  0.3167  0.2201  0.3438
 4588TIP3    H213729   2.869   4.670   4.408  1.5473 -0.5996  0.5401
 4589TIP3   OH213730   2.668   3.197   5.712  0.2344 -0.3923 -0.0601
 4589TIP3    H113731   2.705   3.281   5.738  2.0230 -0.4480 -2.1546
 4589TIP3    H213732   2.718   3.133   5.762 -0.0601 -0.2751  0.3847
 4590TIP3   OH213733   1.342   3.259   2.261 -0.2521 -0.4724 -0.1132
 4590TIP3    H113734   1.299   3.345   2.268  2.2442  0.7156  1.8396
 4590TIP3    H213735   1.339   3.239   2.167 -2.5523  0.7896 -0.3919
 4591TIP3   OH213736   2.533   3.345   1.266  0.1189 -0.2030  0.1839
 4591TIP3    H113737   2.610   3.388   1.304  0.5862 -0.7590 -0.1035
 4591TIP3    H213738   2.486   3.415   1.220  0.9063 -0.0010 -0.3412
 4592TIP3   OH213739   5.693   5.510   3.942 -0.4228 -0.5126 -0.0412
 4592TIP3    H113740   5.695   5.566   3.864 -1.2273 -1.2493 -0.6106
 4592TIP3    H213741   5.780   5.468   3.944 -0.1741 -0.0072 -0.1756
 4593TIP3   OH213742   6.241   3.754   4.857  0.1864 -0.0537 -0.6533
 4593TIP3    H113743   6.228   3.740   4.764  0.4714 -0.3288 -0.6509
 4593TIP3    H213744   6.317   3.812   4.863 -1.0923  1.7278 -0.6745
 4594TIP3   OH213745   1.979   6.256   5.503 -0.0341 -0.4364  0.0169
 4594TIP3    H113746   2.052   6.238   5.561  0.1630 -0.4773 -0.2402
 4594TIP3    H213747   2.007   6.223   5.417 -1.5734 -3.3783  0.5185
 4595TIP3   OH213748   4.614   4.851   0.718  0.1515  0.1497  0.1279
 4595TIP3    H113749   4.700   4.816   0.737 -0.8512 -1.8398  1.2894
 4595TIP3    H213750   4.588   4.895   0.800  0.3628  1.4527 -0.4829
 4596TIP3   OH213751   0.564   0.880   4.751 -0.5366 -0.2379  0.5168
 4596TIP3    H113752   0.495   0.855   4.812  0.0834 -1.5414  0.7424
 4596TIP3    H213753   0.643   0.883   4.805 -0.2612  0.2568  0.0903
 4597TIP3   OH213754   0.796   5.010   3.951 -0.1929 -0.5066  0.0339
 4597TIP3    H113755   0.754   5.095   3.943  0.9345  0.1208  0.6206
 4597TIP3    H213756   0.774   4.980   4.039  2.4157  0.8807  1.2516
 4598TIP3   OH213757   2.124   3.826   2.435  0.3475  0.0904 -0.1331
 4598TIP3    H113758   2.138   3.735   2.406 -0.4584 -0.0080 -0.2491
 4598TIP3    H213759   2.181   3.836   2.512 -0.2652 -0.8200  0.4596
 4599TIP3   OH213760   7.190   2.989   3.029  0.0794  0.7563  0.2208
 4599TIP3    H113761   7.246   3.004   3.106 -1.9846  0.3312  1.8803
 4599TIP3    H213762   7.123   3.057   3.034 -1.0453 -0.2805 -0.2770
 4600TIP3   OH213763   1.884   6.496   4.392  0.2879 -0.3057 -0.3975
 4600TIP3    H113764   1.977   6.487   4.370  0.7202  3.8709 -1.0036
 4600TIP3    H213765   1.838   6.470   4.312  0.8823 -1.8027 -0.2955
 4601TIP3   OH213766   0.444   6.575   0.367 -0.1994  0.1924 -0.0732
 4601TIP3    H113767   0.526   6.623   0.357 -0.4805  0.3259 -2.1536
 4601TIP3    H213768   0.382   6.639   0.402  0.4081  0.2609  0.8975
 4602TIP3   OH213769   1.718   3.360   0.692 -0.7722 -0.1264  0.6513
 4602TIP3    H113770   1.690   3.398   0.609  0.8529  1.4086  0.7545
 4602TIP3    H213771   1.741   3.269   0.670  0.0347  0.3738 -0.6870
 4603TIP3   OH213772   3.982   2.988   1.395 -0.1486  0.0092 -0.1170
 4603TIP3    H113773   4.077   2.972   1.396 -0.2531 -0.6631  0.8939
 4603TIP3    H213774   3.973   3.075   1.356  0.8716 -0.0071 -0.4225
 4604TIP3   OH213775   4.786   0.401   2.902  0.5825  0.6038 -0.3498
 4604TIP3    H113776   4.692   0.416   2.894  0.6576  1.5015  0.2956
 4604TIP3    H213777   4.798   0.309   2.876 -0.4096  0.5954 -0.8225
 4605TIP3   OH213778   0.205   0.020   0.134 -0.1657 -0.8216  0.1163
 4605TIP3    H113779   0.214   0.033   0.229 -0.9095 -3.3840  0.6407
 4605TIP3    H213780   0.294   0.010   0.103  0.0830 -0.0916  0.5759
 4606TIP3   OH213781   3.551   5.821   5.672  0.3411 -0.1973  0.4594
 4606TIP3    H113782   3.601   5.899   5.649 -0.8931  0.6584  0.5704
 4606TIP3    H213783   3.487   5.852   5.736 -1.6075 -0.7936 -1.1109
 4607TIP3   OH213784   5.168   4.763   3.146  0.1349 -0.1625  0.0472
 4607TIP3    H113785   5.231   4.804   3.204 -0.3295 -1.3639  1.4783
 4607TIP3    H213786   5.201   4.674   3.134 -0.6733 -0.4504 -0.1275
 4608TIP3   OH213787   6.772   6.196   5.148  0.6049 -0.2040 -0.0762
 4608TIP3    H113788   6.706   6.238   5.092  0.5513  0.1768  0.2664
 4608TIP3    H213789   6.855   6.210   5.102  0.5145 -0.2124 -0.2420
 4609TIP3   OH213790   0.991   3.064   3.363 -0.4267  0.3553  0.1864
 4609TIP3    H113791   0.964   2.980   3.400  0.8136  0.1076  0.5863
 4609TIP3    H213792   1.050   3.041   3.292 -1.6652  0.8709 -1.0634
 4610TIP3   OH213793   5.455   6.644   1.678 -0.5707  0.1869  0.1268
 4610TIP3    H113794   5.393   6.685   1.739 -0.3902  0.4270  0.1523
 4610TIP3    H213795   5.520   6.712   1.662 -0.0062 -0.2544  0.5327
 4611TIP3   OH213796   5.962   1.093   5.570  0.4405 -0.1808 -0.0678
 4611TIP3    H113797   6.037   1.074   5.514  1.6331  0.6542  1.1606
 4611TIP3    H213798   6.001   1.125   5.652 -1.2394  3.5397 -0.5043
 4612TIP3   OH213799   5.120   5.877   3.189 -0.2862 -0.4327 -0.3249
 4612TIP3    H113800   5.079   5.791   3.199  0.4728 -0.8255 -0.5632
 4612TIP3    H213801   5.058   5.926   3.136 -0.3840 -1.0760 -0.8207
 4613TIP3   OH213802   2.832   2.500   4.303 -0.3729  0.1233  0.0852
 4613TIP3    H113803   2.832   2.404   4.296  1.6284  0.0149  0.7814
 4613TIP3    H213804   2.911   2.527   4.255 -1.0658  1.4674 -0.3460
 4614TIP3   OH213805   6.304   2.929   0.374 -0.0471 -0.4446 -0.1960
 4614TIP3    H113806   6.312   3.017   0.336 -0.6250  0.2546  1.2584
 4614TIP3    H213807   6.218   2.928   0.415  0.3488 -1.3620  0.6479
 4615TIP3   OH213808   0.645   0.755   5.383 -0.8057  0.3352 -0.4258
 4615TIP3    H113809   0.626   0.836   5.432 -0.8853  0.7569 -1.1372
 4615TIP3    H213810   0.721   0.718   5.427  0.2133  1.6185 -1.0317
 4616TIP3   OH213811   0.088   3.654   1.628 -0.0539 -0.3119  0.0607
 4616TIP3    H113812   0.030   3.702   1.570 -0.7634  2.2013  2.6158
 4616TIP3    H213813   0.159   3.715   1.646  0.4945 -1.2743  1.2852
 4617TIP3   OH213814   3.318   5.360   0.795  0.1592  0.0904 -0.2629
 4617TIP3    H113815   3.377   5.385   0.724  0.1139  0.0016 -0.3314
 4617TIP3    H213816   3.252   5.305   0.753 -0.1681  0.4673 -0.2499
 4618TIP3   OH213817   6.108   2.413   2.702  0.2945  0.3430  0.2263
 4618TIP3    H113818   6.070   2.391   2.787 -0.2244  0.0639 -0.0717
 4618TIP3    H213819   6.118   2.329   2.658 -1.2070  0.6066 -0.7125
 4619TIP3   OH213820   3.601   1.924   0.468 -0.5232 -0.2557  0.5634
 4619TIP3    H113821   3.598   1.975   0.549  0.4512  0.7078  0.0111
 4619TIP3    H213822   3.519   1.946   0.423 -0.8324 -0.4092  1.0398
 4620TIP3   OH213823   4.668   0.875   1.055  0.4400 -0.0544  0.5390
 4620TIP3    H113824   4.646   0.798   1.108 -0.1183  0.1952  0.6793
 4620TIP3    H213825   4.744   0.914   1.099  0.8170 -0.6042  0.3835
 4621TIP3   OH213826   5.742   1.004   2.051  0.5444 -0.2056 -0.0754
 4621TIP3    H113827   5.752   0.977   2.142 -1.2907 -0.6490  0.0345
 4621TIP3    H213828   5.811   0.956   2.004 -0.3979 -2.4346  0.6489
 4622TIP3   OH213829   2.186   0.213   1.767  0.3088  0.1712 -0.4959
 4622TIP3    H113830   2.171   0.190   1.675 -1.0531 -0.5222 -0.1228
 4622TIP3    H213831   2.133   0.151   1.817  2.2526 -0.5001  0.8543
 4623TIP3   OH213832   5.578   3.973   5.496 -0.0463  0.3660 -0.0949
 4623TIP3    H113833   5.497   3.931   5.469  0.4398 -0.2791 -0.5924
 4623TIP3    H213834   5.639   3.956   5.424  0.5327  0.8192  0.2800
 4624TIP3   OH213835   3.640   3.207   1.075  0.2763  0.6037 -1.2332
 4624TIP3    H113836   3.629   3.149   1.000  1.0702  1.3107 -1.9181
 4624TIP3    H213837   3.714   3.263   1.051  0.5185  0.8622  0.0652
 4625TIP3   OH213838  -0.019   5.573   0.262 -0.0855 -0.0430 -0.0383
 4625TIP3    H113839   0.015   5.500   0.210  1.2490  0.2330  0.4137
 4625TIP3    H213840   0.059   5.621   0.290 -0.6124 -0.9246  3.3258
 4626TIP3   OH213841   1.924   4.325   0.306 -0.6582  0.4095  0.0028
 4626TIP3    H113842   1.830   4.316   0.322 -0.2664 -3.2535  1.1184
 4626TIP3    H213843   1.965   4.293   0.387  1.5214 -0.5825 -1.4064
 4627TIP3   OH213844   0.674   3.948   1.614 -0.5096  0.4315 -0.0315
 4627TIP3    H113845   0.717   3.923   1.696 -0.2626  0.3069 -0.1990
 4627TIP3    H213846   0.583   3.964   1.639 -0.6840 -0.6541  0.0846
 4628TIP3   OH213847   2.565   1.071   0.642  0.2081  0.2631  0.3046
 4628TIP3    H113848   2.487   1.078   0.587  0.2496 -1.2977 -0.0020
 4628TIP3    H213849   2.531   1.070   0.731  0.1051  2.3243  0.3299
 4629TIP3   OH213850   1.160   3.597   2.540  0.3670 -0.6763  0.1133
 4629TIP3    H113851   1.251   3.611   2.564  0.4433 -1.2757  0.1983
 4629TIP3    H213852   1.125   3.540   2.609 -0.3768  0.4231  0.6776
 4630TIP3   OH213853   3.279   6.150   2.265 -0.1545  0.1750 -0.3828
 4630TIP3    H113854   3.185   6.133   2.276 -0.1136 -0.7092 -1.2832
 4630TIP3    H213855   3.310   6.080   2.208  1.8151 -1.7025  2.7279
 4631TIP3   OH213856   0.577   5.473   5.066 -0.3141  0.0119  0.0994
 4631TIP3    H113857   0.537   5.476   4.979  0.3336  0.7252 -0.1901
 4631TIP3    H213858   0.653   5.415   5.055 -0.6506 -0.4873  0.3786
 4632TIP3   OH213859   0.757   0.335   2.919  0.1516  0.1761  0.1812
 4632TIP3    H113860   0.780   0.248   2.887 -0.2039  0.3650 -0.5957
 4632TIP3    H213861   0.835   0.388   2.904 -0.1278  0.3469 -0.6918
 4633TIP3   OH213862   0.050   0.179   0.512 -0.0728 -0.1633 -0.1462
 4633TIP3    H113863   0.125   0.194   0.455  1.3927 -1.8687  1.2141
 4633TIP3    H213864   0.076   0.105   0.567 -2.1578  0.1749  1.4175
 4634TIP3   OH213865   0.216   1.597   0.040  0.0470 -0.1017  0.0642
 4634TIP3    H113866   0.178   1.538  -0.026  1.4851 -1.2749  0.2204
 4634TIP3    H213867   0.282   1.647  -0.008  0.6728 -0.5250  0.4739
 4635TIP3   OH213868   1.006   4.519   1.007 -0.2359  0.2076 -0.3309
 4635TIP3    H113869   1.048   4.499   1.090  1.2239 -0.6510 -1.2301
 4635TIP3    H213870   0.921   4.476   1.012  0.6439 -1.5752 -0.0518
 4636TIP3   OH213871   0.474   5.906   2.528 -0.4099 -0.4220 -0.4760
 4636TIP3    H113872   0.490   5.926   2.436  3.1896 -3.0514 -0.6411
 4636TIP3    H213873   0.421   5.826   2.526 -0.5623 -0.3255 -0.2700
 4637TIP3   OH213874   5.431   1.907   3.130 -0.2325 -0.1721  0.2127
 4637TIP3    H113875   5.464   1.821   3.104 -0.3823 -0.2301  0.2124
 4637TIP3    H213876   5.456   1.965   3.057 -0.1163 -0.2106  0.2216
 4638TIP3   OH213877   2.452   3.483   2.295 -0.7427  0.0787 -0.1013
 4638TIP3    H113878   2.413   3.427   2.228 -0.6809 -1.5575  1.1600
 4638TIP3    H213879   2.533   3.515   2.256 -0.8456 -0.6257 -0.9104
 4639TIP3   OH213880   2.126   3.354   1.215 -0.9071  0.0837 -0.4452
 4639TIP3    H113881   2.090   3.437   1.245 -0.8367  0.0667 -0.3122
 4639TIP3    H213882   2.182   3.377   1.142 -1.3856  0.0830 -0.8185
 4640TIP3   OH213883   5.493   1.066   4.784 -0.6684 -0.4930 -0.0958
 4640TIP3    H113884   5.463   1.134   4.723 -1.0268 -0.8310 -0.3050
 4640TIP3    H213885   5.557   1.110   4.839 -0.3989 -0.1556 -0.6642
 4641TIP3   OH213886   0.232   3.085   1.475  0.6597 -0.1060 -0.6805
 4641TIP3    H113887   0.176   3.029   1.421 -0.5280 -0.6231  1.0054
 4641TIP3    H213888   0.178   3.162   1.493  0.8263 -0.1899  0.2157
 4642TIP3   OH213889   2.238   3.853   1.192  0.0045  0.3625  0.6400
 4642TIP3    H113890   2.162   3.911   1.196 -1.2678 -1.2077  0.1998
 4642TIP3    H213891   2.242   3.825   1.101  0.3604 -0.5433  0.9259
 4643TIP3   OH213892   2.053   0.893   1.096  0.2529 -0.2725  0.1932
 4643TIP3    H113893   1.963   0.865   1.081  0.4475 -0.3474 -0.9263
 4643TIP3    H213894   2.075   0.857   1.182 -1.1280  0.6688  0.9862
 4644TIP3   OH213895   0.996   0.165   2.660  0.2091  0.3246 -0.6626
 4644TIP3    H113896   1.059   0.097   2.635 -0.8083 -0.2499 -1.7146
 4644TIP3    H213897   1.043   0.247   2.646  1.6917 -0.1060  1.2566
 4645TIP3   OH213898   5.230   4.096   0.234  0.4458 -0.2788  0.2626
 4645TIP3    H113899   5.237   4.124   0.143 -2.6923 -0.8519 -0.2686
 4645TIP3    H213900   5.251   4.174   0.285 -1.8095  1.3586 -1.0981
 4646TIP3   OH213901   4.214   4.106   0.363  0.4272 -0.1402  0.8506
 4646TIP3    H113902   4.225   4.105   0.268  0.0219 -2.1995  0.7954
 4646TIP3    H213903   4.123   4.078   0.377 -0.4137  2.6943  1.8084
 4647TIP3   OH213904   6.885   1.227   1.836  0.6839 -0.1189  0.6897
 4647TIP3    H113905   6.842   1.282   1.901  1.3110 -0.0426  1.0442
 4647TIP3    H213906   6.943   1.286   1.789  0.8988 -0.3523  0.6590
 4648TIP3   OH213907   2.139   3.937   2.956 -0.2586 -0.4305  0.1063
 4648TIP3    H113908   2.159   3.893   3.039  0.2263 -1.0363 -0.3134
 4648TIP3    H213909   2.046   3.959   2.961 -0.1501 -0.1538  0.9485
 4649TIP3   OH213910   0.964   5.258   0.079  0.5348 -0.0049  0.3710
 4649TIP3    H113911   0.895   5.227   0.020 -0.5417 -0.4119  1.7819
 4649TIP3    H213912   1.021   5.312   0.023 -0.4500 -0.3292 -1.0099
 4650TIP3   OH213913   6.036   0.182   0.795 -0.5419 -0.5019 -0.3099
 4650TIP3    H113914   6.051   0.112   0.858 -0.2636 -0.4574 -0.3254
 4650TIP3    H213915   5.940   0.192   0.792 -0.5295  0.8411  1.6048
 4651TIP3   OH213916   6.224   3.978   4.079 -0.2658 -0.0485 -0.2412
 4651TIP3    H113917   6.238   3.883   4.076 -1.2626 -0.2406  0.6046
 4651TIP3    H213918   6.130   3.988   4.062 -0.1333  0.8024 -0.5049
 4652TIP3   OH213919   1.764   6.643   5.787 -0.1977 -0.9225  0.5198
 4652TIP3    H113920   1.828   6.713   5.778  0.3499 -0.9746  3.0735
 4652TIP3    H213921   1.684   6.678   5.749  1.2093 -0.8327 -2.7065
 4653TIP3   OH213922   6.226   2.357   1.141  0.1015 -0.1156  0.0853
 4653TIP3    H113923   6.299   2.397   1.095 -0.3393  1.0678  0.3789
 4653TIP3    H213924   6.262   2.276   1.177  0.5864 -0.8432 -1.8908
 4654TIP3   OH213925   0.854   2.936   4.727  0.0015  0.3839 -0.4591
 4654TIP3    H113926   0.829   2.845   4.737 -0.2092  0.5992  1.3710
 4654TIP3    H213927   0.947   2.938   4.751 -0.2008  0.7619  0.3287
 4655TIP3   OH213928   6.840   5.580   3.563  0.0348  0.3173  0.2198
 4655TIP3    H113929   6.862   5.533   3.643 -2.5337 -1.8362 -0.1809
 4655TIP3    H213930   6.921   5.581   3.512  0.9827 -0.8375  1.6329
 4656TIP3   OH213931   7.062   2.637   3.931  0.1843 -0.0332 -0.6842
 4656TIP3    H113932   7.155   2.633   3.912  0.7281  0.8482  1.4885
 4656TIP3    H213933   7.055   2.618   4.024 -1.9301 -1.0478 -0.9803
 4657TIP3   OH213934   5.599   5.149   0.708  0.4521  0.2396  0.1805
 4657TIP3    H113935   5.534   5.095   0.663 -0.2204  1.0549  0.1733
 4657TIP3    H213936   5.669   5.160   0.643 -0.4448  1.2787 -0.6332
 4658TIP3   OH213937   2.544   5.125   2.936 -0.2520  0.1884 -0.1943
 4658TIP3    H113938   2.634   5.108   2.908 -0.2116  1.4383 -0.9003
 4658TIP3    H213939   2.523   5.053   2.996  1.7244  0.6633  1.1448
 4659TIP3   OH213940   2.427   2.179   2.534 -0.0088  0.5916  0.2462
 4659TIP3    H113941   2.414   2.103   2.591  0.8526 -1.0964 -1.6668
 4659TIP3    H213942   2.352   2.235   2.552  0.8997  0.8955  3.9998
 4660TIP3   OH213943   3.726   6.312   2.417  0.1538 -0.2884  0.4814
 4660TIP3    H113944   3.750   6.220   2.423  0.2937 -0.2421  0.6535
 4660TIP3    H213945   3.766   6.342   2.336 -0.4066 -0.5279  0.1082
 4661TIP3   OH213946   5.435   4.941   0.553  0.9243 -0.2009  0.2255
 4661TIP3    H113947   5.444   4.985   0.468  2.0761 -1.0732 -0.1327
 4661TIP3    H213948   5.341   4.938   0.568  0.5833 -1.3251 -1.7530
 4662TIP3   OH213949   3.265   4.677   5.135  0.2005 -0.2394 -0.0270
 4662TIP3    H113950   3.290   4.613   5.201  1.3992  0.0534 -0.1734
 4662TIP3    H213951   3.340   4.736   5.129 -0.3814  0.4493 -0.7820
 4663TIP3   OH213952   6.766   6.036   1.246 -0.4543 -0.0200  0.0340
 4663TIP3    H113953   6.679   5.997   1.241 -0.0203 -0.9659 -0.4130
 4663TIP3    H213954   6.806   5.995   1.323 -0.5589  0.7440  0.4988
 4664TIP3   OH213955   2.668   6.742   1.680 -0.4352 -0.3672 -0.0925
 4664TIP3    H113956   2.654   6.749   1.585  0.4302  0.4539 -0.1716
 4664TIP3    H213957   2.599   6.683   1.710 -2.2147  1.1934 -0.8886
 4665TIP3   OH213958   1.292   3.418   0.379  0.1877  0.1024  0.2371
 4665TIP3    H113959   1.245   3.484   0.431 -0.5878  0.7499 -1.2413
 4665TIP3    H213960   1.316   3.463   0.298  0.1576 -1.2741 -0.5686
 4666TIP3   OH213961   5.120   3.804   0.097 -0.1725  0.4336 -0.8412
 4666TIP3    H113962   5.094   3.784   0.187  0.2471  1.0433 -0.5795
 4666TIP3    H213963   5.053   3.863   0.065 -0.2898  0.2634 -0.9124
 4667TIP3   OH213964   4.104   1.873   0.319 -0.0047 -0.2059  0.4765
 4667TIP3    H113965   4.044   1.940   0.352 -1.0858 -0.7220 -0.3830
 4667TIP3    H213966   4.190   1.901   0.350 -0.4142  1.6146  0.0914
 4668TIP3   OH213967   6.946   6.738   0.102  0.4289  0.4190 -0.1613
 4668TIP3    H113968   7.034   6.764   0.074  0.0257  1.0126 -0.9129
 4668TIP3    H213969   6.922   6.667   0.042  0.3135  0.3842 -0.0753
 4669TIP3   OH213970   2.603   1.320   3.175 -0.6550 -0.1177  0.1020
 4669TIP3    H113971   2.581   1.405   3.139  2.0943  0.8892  0.5469
 4669TIP3    H213972   2.665   1.339   3.245 -0.4197 -2.4437  0.6014
 4670TIP3   OH213973   4.080   2.787   0.608 -0.2999  0.5631  0.8491
 4670TIP3    H113974   4.145   2.718   0.624 -1.0324 -0.2228  0.5199
 4670TIP3    H213975   4.095   2.812   0.517 -1.6266 -0.9239  0.1744
 4671TIP3   OH213976   2.108   1.808   1.384 -0.0990 -0.3183 -0.2857
 4671TIP3    H113977   2.118   1.718   1.413 -1.0277 -0.4421 -0.3230
 4671TIP3    H213978   2.194   1.831   1.347 -0.7029 -2.2324 -3.2139
 4672TIP3   OH213979   3.036   5.649   4.885  0.0599 -0.2494 -0.1340
 4672TIP3    H113980   2.967   5.679   4.945 -0.7489  0.4940 -1.3920
 4672TIP3    H213981   3.043   5.555   4.901 -0.1473 -0.0692  1.1096
 4673TIP3   OH213982   7.172   3.289   2.361  0.0700  0.4763  0.5784
 4673TIP3    H113983   7.181   3.358   2.427 -0.1541  1.1502 -0.0728
 4673TIP3    H213984   7.100   3.319   2.305  0.4161  0.0487 -0.1112
 4674TIP3   OH213985   4.009   1.333   5.773 -0.5205 -0.2704 -0.2283
 4674TIP3    H113986   4.097   1.300   5.791 -0.0307  0.9638 -0.2930
 4674TIP3    H213987   4.006   1.341   5.677 -1.6158 -2.6954 -0.4908
 4675TIP3   OH213988   1.857   3.945   5.731  0.0075 -0.1736 -0.2065
 4675TIP3    H113989   1.835   3.902   5.814  0.1154 -2.0206 -1.0683
 4675TIP3    H213990   1.785   3.923   5.673  0.6981 -0.2826 -1.0497
 4676TIP3   OH213991   2.555   3.575   5.798 -0.6597  0.1958  0.5035
 4676TIP3    H113992   2.623   3.635   5.828 -0.5329 -0.0078  0.6192
 4676TIP3    H213993   2.553   3.506   5.863  0.8857 -1.2359 -0.8726
 4677TIP3   OH213994   4.882   4.053   2.019  0.2643 -0.0109 -0.4640
 4677TIP3    H113995   4.813   4.082   1.959  1.2926  1.8349 -0.8070
 4677TIP3    H213996   4.927   3.983   1.973  0.3372  0.6354 -1.3864
 4678TIP3   OH213997   0.301   0.269   4.849 -0.8364 -0.0234 -0.2368
 4678TIP3    H113998   0.236   0.338   4.862 -0.0202  0.9890 -1.3424
 4678TIP3    H213999   0.364   0.282   4.920 -0.4714  0.6261 -0.6780
 4679TIP3   OH214000   5.262   1.860   0.625 -0.1311 -0.2133  0.3181
 4679TIP3    H114001   5.282   1.873   0.532  0.3739  0.6307  0.5380
 4679TIP3    H214002   5.167   1.869   0.631 -0.2170 -0.7449 -0.1877
 4680TIP3   OH214003   2.639   5.603   0.310  0.6287 -0.2323  0.4123
 4680TIP3    H114004   2.673   5.556   0.234 -0.7837 -1.1840  0.3362
 4680TIP3    H214005   2.698   5.578   0.382  1.2904 -0.2266 -0.1143
 4681TIP3   OH214006   2.677   6.612   3.440 -0.5169 -0.0860 -0.6448
 4681TIP3    H114007   2.666   6.696   3.486 -1.1695  0.1773 -1.2526
 4681TIP3    H214008   2.760   6.621   3.394 -0.2947 -0.0086 -0.2407
 4682TIP3   OH214009   7.140   5.243   1.322 -0.3538 -0.1423  0.1222
 4682TIP3    H114010   7.075   5.313   1.327  0.0696  0.2190  0.7081
 4682TIP3    H214011   7.171   5.233   1.412  1.1460  0.4137 -0.2957
 4683TIP3   OH214012   3.275   3.774   5.056 -0.2942 -0.0758 -0.8649
 4683TIP3    H114013   3.337   3.752   5.125 -0.5622 -1.2638 -0.9711
 4683TIP3    H214014   3.219   3.696   5.049 -1.5515  0.8145 -1.0275
 4684TIP3   OH214015   1.942   3.868   0.675  0.1623  0.3922 -0.0049
 4684TIP3    H114016   1.940   3.827   0.761  0.6043  0.0663 -0.1475
 4684TIP3    H214017   1.895   3.807   0.618  0.3012  0.3739 -0.0989
 4685TIP3   OH214018   0.152   5.431   0.763 -0.2461  0.3363  0.0253
 4685TIP3    H114019   0.060   5.405   0.756 -0.2387  0.6627 -2.7980
 4685TIP3    H214020   0.149   5.519   0.802 -0.9522 -0.3593  1.6035
 4686TIP3   OH214021   3.440   0.033   0.284 -0.2646  0.2435 -0.3718
 4686TIP3    H114022   3.448   0.113   0.232  0.1455  0.4856  0.0606
 4686TIP3    H214023   3.447  -0.038   0.220 -0.4152  0.5496 -0.7290
 4687TIP3   OH214024   3.300   0.163   0.620  0.4662  0.4808 -0.0411
 4687TIP3    H114025   3.294   0.180   0.526 -0.3381 -0.6879 -0.2156
 4687TIP3    H214026   3.392   0.139   0.634  0.6471  0.9141 -0.4811
 4688TIP3   OH214027   0.753   4.397   1.039  0.4891  0.1791 -0.2880
 4688TIP3    H114028   0.767   4.310   1.003 -1.2785  0.3024 -1.3821
 4688TIP3    H214029   0.763   4.386   1.134  0.3200 -1.1950 -0.4146
 4689TIP3   OH214030   3.642   2.059   2.376 -0.7171  0.1244 -0.0694
 4689TIP3    H114031   3.563   2.027   2.420 -1.3626  1.5709 -0.1142
 4689TIP3    H214032   3.621   2.149   2.351  1.2668  0.8861  0.7367
 4690TIP3   OH214033   1.309   1.196   1.857  0.1047  0.1447 -1.0960
 4690TIP3    H114034   1.391   1.240   1.837  1.5183 -1.1795  1.3791
 4690TIP3    H214035   1.318   1.109   1.818 -0.1839  0.0466 -0.9517
 4691TIP3   OH214036   3.031   6.363   1.076  0.2179  0.1328 -0.2149
 4691TIP3    H114037   3.098   6.374   1.144  0.6579 -0.0139 -0.6229
 4691TIP3    H214038   3.076   6.320   1.004 -0.2057  0.4471 -0.6740
 4692TIP3   OH214039   6.193   0.131   3.402  0.5077  0.0832  0.4421
 4692TIP3    H114040   6.150   0.149   3.486 -0.8731  0.7537 -0.3808
 4692TIP3    H214041   6.166   0.043   3.379 -0.0640  0.3241  0.1624
 4693TIP3   OH214042   5.763   2.067   2.939  0.3577 -0.5168 -0.6051
 4693TIP3    H114043   5.802   2.075   2.852  0.1934 -0.5861 -0.6842
 4693TIP3    H214044   5.669   2.082   2.926  0.2824 -0.8915 -0.4959
 4694TIP3   OH214045   3.402   1.212   3.664  0.6060 -0.1168 -0.3704
 4694TIP3    H114046   3.437   1.180   3.747 -0.3838 -2.6259 -0.8308
 4694TIP3    H214047   3.308   1.198   3.670 -0.3067  4.4877 -0.0023
 4695TIP3   OH214048   0.653   2.721   2.599 -0.9111  0.4183  0.1591
 4695TIP3    H114049   0.710   2.793   2.627 -1.3966 -0.0509  2.6387
 4695TIP3    H214050   0.607   2.754   2.522 -0.9837  2.7254  1.1171
 4696TIP3   OH214051   0.798   1.451   1.091  0.5413 -0.2255  0.3207
 4696TIP3    H114052   0.779   1.535   1.133  1.7955  0.6756 -0.8216
 4696TIP3    H214053   0.713   1.408   1.084  0.0047  0.5112  1.7883
 4697TIP3   OH214054   0.427   3.737   1.699 -0.0613  0.0231 -0.9116
 4697TIP3    H114055   0.481   3.684   1.757  0.7937  0.0060 -1.7048
 4697TIP3    H214056   0.428   3.824   1.738  3.3136  0.9042 -2.5739
 4698TIP3   OH214057   6.864   0.289   4.122  0.1917 -0.1261  0.0118
 4698TIP3    H114058   6.915   0.313   4.044  0.9687  1.0438  0.8393
 4698TIP3    H214059   6.897   0.348   4.190 -1.6797  0.0767  0.7915
 4699TIP3   OH214060   1.794   5.018   1.711 -0.0935  0.3516  0.3873
 4699TIP3    H114061   1.878   4.978   1.686  0.3904  1.5547  0.0482
 4699TIP3    H214062   1.746   4.947   1.753  0.7323 -0.6065 -0.2317
 4700TIP3   OH214063   6.002   4.775   1.075 -0.7071 -0.0716  0.3004
 4700TIP3    H114064   5.989   4.697   1.128 -1.9896  1.9066  3.1328
 4700TIP3    H214065   5.930   4.772   1.011 -1.1945 -0.8386  0.8639
 4701TIP3   OH214066   4.321   5.155   0.389  0.1711 -0.4801 -0.3944
 4701TIP3    H114067   4.264   5.205   0.331 -0.9467 -0.7694  0.4203
 4701TIP3    H214068   4.410   5.180   0.364 -0.3427  1.1295 -0.6908
 4702TIP3   OH214069   1.378   1.551   3.916 -0.2451  0.5595 -0.0883
 4702TIP3    H114070   1.443   1.561   3.985  2.4625  0.3563 -2.3915
 4702TIP3    H214071   1.338   1.637   3.907 -0.3691  0.6765  1.4378
 4703TIP3   OH214072   5.583   2.915   0.686  0.1324 -0.0661  0.2732
 4703TIP3    H114073   5.543   2.931   0.771 -2.1064 -1.0684 -0.5100
 4703TIP3    H214074   5.613   2.824   0.690  0.0186 -0.1165 -0.0067
 4704TIP3   OH214075   0.161   4.341   0.651  0.0660  0.7288  0.1948
 4704TIP3    H114076   0.075   4.312   0.622  0.6267 -1.0156  0.1801
 4704TIP3    H214077   0.186   4.408   0.588  0.0200 -0.9259 -1.6841
 4705TIP3   OH214078   0.874   5.687   0.757  0.3508  0.4159  0.7281
 4705TIP3    H114079   0.961   5.697   0.716  0.1478 -0.1021  0.1648
 4705TIP3    H214080   0.820   5.648   0.689 -0.1623  0.1293  1.2943
 4706TIP3   OH214081   0.738   2.405   4.145  0.6765  0.1705  0.3996
 4706TIP3    H114082   0.772   2.446   4.066 -0.1427  1.1028  0.5192
 4706TIP3    H214083   0.813   2.402   4.205  1.6933 -1.8204 -0.8564
 4707TIP3   OH214084   6.706   6.283   3.103 -0.0414  0.8742  0.5957
 4707TIP3    H114085   6.643   6.220   3.067  1.8893 -1.1507  0.5180
 4707TIP3    H214086   6.758   6.310   3.028  0.9917  0.2698  1.0638
 4708TIP3   OH214087   4.953   4.403   3.648 -0.0592  0.8509 -0.2540
 4708TIP3    H114088   4.958   4.424   3.555  2.3441 -0.2873 -0.4384
 4708TIP3    H214089   5.043   4.403   3.679 -0.7430  0.6205  1.9752
 4709TIP3   OH214090   4.045   2.503   4.253 -0.4741 -0.1597 -0.1635
 4709TIP3    H114091   4.002   2.565   4.193 -1.1539 -1.6125 -1.2462
 4709TIP3    H214092   3.974   2.471   4.309  0.0943  0.9194  1.2348
 4710TIP3   OH214093   1.784   1.794   5.271 -0.0041 -0.8668 -0.1351
 4710TIP3    H114094   1.850   1.852   5.234 -0.7987  0.0267 -0.1999
 4710TIP3    H214095   1.797   1.801   5.366  0.0138 -0.7169 -0.1483
 4711TIP3   OH214096   1.687   1.658   3.987 -0.0701  0.9732  0.2575
 4711TIP3    H114097   1.726   1.578   4.021 -0.7810  0.8857  0.9109
 4711TIP3    H214098   1.693   1.650   3.892 -2.4399 -1.0783  0.1739
 4712TIP3   OH214099   2.410   0.518   4.350 -0.5557  0.2613 -0.1292
 4712TIP3    H114100   2.440   0.517   4.259 -0.6253  0.8596 -0.1654
 4712TIP3    H214101   2.486   0.548   4.400  0.3805 -2.6028  0.3852
 4713TIP3   OH214102   6.067   6.192   2.995 -0.0469 -0.1922 -0.0900
 4713TIP3    H114103   6.139   6.179   2.934 -0.7780 -0.4991 -0.9136
 4713TIP3    H214104   6.002   6.242   2.945 -0.3726  0.1588  0.6630
 4714TIP3   OH214105   2.116   3.288   4.393 -0.4838 -0.9667  0.1802
 4714TIP3    H114106   2.201   3.278   4.351 -0.1960  0.6105  0.2998
 4714TIP3    H214107   2.120   3.374   4.435 -1.9627 -1.0642  0.5971
 4715TIP3   OH214108   3.916   2.992   5.604  0.4411 -0.1599 -0.5800
 4715TIP3    H114109   3.978   3.030   5.542  1.1035  1.0567  0.7763
 4715TIP3    H214110   3.922   2.898   5.588 -0.5188  0.1432 -3.3595
 4716TIP3   OH214111   1.114   2.230   1.146  0.0337 -0.1476 -0.2530
 4716TIP3    H114112   1.079   2.235   1.057 -0.8745  1.1093  0.1471
 4716TIP3    H214113   1.142   2.139   1.156  0.2665 -0.2774 -1.8582
 4717TIP3   OH214114   6.744   6.502   4.810  0.5787  0.1447 -0.5373
 4717TIP3    H114115   6.744   6.475   4.719  0.7902 -0.6377 -0.3067
 4717TIP3    H214116   6.795   6.583   4.811 -0.2944  0.7284 -1.2678
 4718TIP3   OH214117   7.183   6.498   5.020  0.3674  0.1214 -0.2102
 4718TIP3    H114118   7.142   6.539   5.096 -0.1006 -2.7983  1.2516
 4718TIP3    H214119   7.272   6.476   5.050  0.6076  0.0854 -0.9344
 4719TIP3   OH214120   3.541   3.636   2.040 -0.1679 -0.4201  0.0095
 4719TIP3    H114121   3.540   3.567   2.107  1.2054  0.4175  0.9502
 4719TIP3    H214122   3.595   3.600   1.970 -1.2119 -1.1087 -0.4740
 4720TIP3   OH214123   6.779   6.464   5.432  0.4517 -0.2072  0.0538
 4720TIP3    H114124   6.764   6.510   5.514  0.5294 -0.9355  0.4857
 4720TIP3    H214125   6.717   6.391   5.433  0.9934 -0.6859 -0.1511
 4721TIP3   OH214126   7.013   3.628   2.424  0.5187 -0.4430  0.0199
 4721TIP3    H114127   7.012   3.653   2.332 -0.1759  0.6095  0.3069
 4721TIP3    H214128   6.965   3.697   2.469 -0.4628 -1.6990  0.9882
 4722TIP3   OH214129   0.776   6.264   3.496 -0.2756 -0.1774  0.4149
 4722TIP3    H114130   0.723   6.298   3.568  1.9358 -0.6355  2.3795
 4722TIP3    H214131   0.825   6.340   3.464 -0.2894 -0.2170  0.3015
 4723TIP3   OH214132   0.599   2.391   0.914 -0.8736  0.2280  0.3683
 4723TIP3    H114133   0.601   2.313   0.971 -0.5125 -0.4555 -0.5558
 4723TIP3    H214134   0.620   2.463   0.973  1.6612 -0.7093  0.7428
 4724TIP3   OH214135   1.843   2.803   4.687 -0.6665 -0.5124 -0.2261
 4724TIP3    H114136   1.815   2.870   4.748  0.0933 -2.0187  1.9087
 4724TIP3    H214137   1.766   2.784   4.634 -1.3914  0.7619  0.3433
 4725TIP3   OH214138   0.980   0.380   0.138 -0.5080 -0.3712 -0.0310
 4725TIP3    H114139   0.897   0.332   0.137  0.1776 -1.6037 -0.2720
 4725TIP3    H214140   1.031   0.340   0.067  0.9029 -0.7982  1.1763
 4726TIP3   OH214141   0.207   1.609   4.952 -0.0744 -0.1764  0.6140
 4726TIP3    H114142   0.250   1.598   5.036 -0.0766 -0.7946  0.5392
 4726TIP3    H214143   0.123   1.565   4.961 -0.0473 -0.3082  0.2712
 4727TIP3   OH214144   2.523   3.337   1.893  0.1202  0.2111 -0.1538
 4727TIP3    H114145   2.561   3.286   1.821 -0.3669 -1.5341  0.7598
 4727TIP3    H214146   2.504   3.422   1.855  2.0535  0.1256 -1.4546
 4728TIP3   OH214147   1.462   1.749   1.860 -0.1398 -0.4117 -0.5502
 4728TIP3    H114148   1.368   1.769   1.852  0.0229  1.2896  1.0361
 4728TIP3    H214149   1.490   1.730   1.771 -2.4818 -3.6906 -0.7652
 4729TIP3   OH214150   2.630   6.732   5.092  0.1802  0.7029 -0.0558
 4729TIP3    H114151   2.559   6.681   5.053  0.6874 -0.3567  0.3561
 4729TIP3    H214152   2.665   6.676   5.161  0.3138  1.9000  0.8927
 4730TIP3   OH214153   4.900   2.261   3.272  0.8916 -0.1419 -0.2173
 4730TIP3    H114154   4.980   2.268   3.220  0.8268 -2.2723 -0.7070
 4730TIP3    H214155   4.850   2.340   3.252  2.8678  1.2467  0.1309
 4731TIP3   OH214156   3.979   2.997   0.380 -0.5608  0.0311  0.0678
 4731TIP3    H114157   4.065   2.955   0.387  0.0023  1.4194  2.4369
 4731TIP3    H214158   3.917   2.924   0.387  0.4034 -0.6465  3.1424
 4732TIP3   OH214159   4.913   3.546   4.402  0.0084  0.1063 -0.5842
 4732TIP3    H114160   4.863   3.624   4.424 -0.2715 -0.2915  0.2501
 4732TIP3    H214161   4.847   3.483   4.373  0.4418  0.9597 -3.8463
 4733TIP3   OH214162   5.357   1.201   1.091 -0.0739 -0.2635  0.3023
 4733TIP3    H114163   5.396   1.115   1.102  1.5884  0.4546  0.3896
 4733TIP3    H214164   5.429   1.256   1.060 -1.0649  1.1197  0.3530
 4734TIP3   OH214165   2.294   4.491   4.131  0.2248  0.6193  0.2054
 4734TIP3    H114166   2.295   4.549   4.207 -1.0514  1.8853 -0.7013
 4734TIP3    H214167   2.202   4.476   4.113  0.5120 -1.2994  0.0705
 4735TIP3   OH214168   5.432   4.233   2.783  0.0721  0.0509 -0.1359
 4735TIP3    H114169   5.456   4.182   2.705  1.2807  0.0545  0.2262
 4735TIP3    H214170   5.474   4.318   2.770 -0.1913  0.2428  0.2618
 4736TIP3   OH214171   4.510   2.787   3.755  0.1757  0.1080  0.3908
 4736TIP3    H114172   4.430   2.803   3.706 -0.8165  0.8885  2.1926
 4736TIP3    H214173   4.489   2.811   3.845  2.7698  1.3922  0.7389
 4737TIP3   OH214174   5.804   2.768   1.947  0.0893 -0.3284  0.0957
 4737TIP3    H114175   5.802   2.863   1.954 -0.6984 -0.0591 -2.6703
 4737TIP3    H214176   5.836   2.751   1.859  0.1327 -2.6462  0.4905
 4738TIP3   OH214177   0.886   6.621   2.680 -0.3107 -0.6305  1.3126
 4738TIP3    H114178   0.969   6.622   2.631  0.0023  0.9143  1.8045
 4738TIP3    H214179   0.818   6.618   2.613  0.0881  2.3536  0.6148
 4739TIP3   OH214180   2.233   2.006   5.043  0.3474 -0.1327 -0.3526
 4739TIP3    H114181   2.221   2.067   4.970  2.8012 -0.2129 -0.8961
 4739TIP3    H214182   2.276   2.058   5.111 -1.8378 -0.0793  1.0928
 4740TIP3   OH214183   2.328   2.408   1.103  0.8996 -0.1900  0.4559
 4740TIP3    H114184   2.314   2.500   1.084 -1.1269 -0.3525  0.9185
 4740TIP3    H214185   2.347   2.368   1.018 -0.5429  0.2873 -0.1095
 4741TIP3   OH214186   2.418   3.077   5.561 -0.0916  0.2919 -0.6131
 4741TIP3    H114187   2.470   3.090   5.641  2.0627  1.3054 -2.0902
 4741TIP3    H214188   2.377   2.992   5.574  0.4596  0.2661  1.4323
 4742TIP3   OH214189   3.095   1.150   5.255 -0.5187  0.1256 -0.4938
 4742TIP3    H114190   3.182   1.160   5.294 -0.5194  1.3820 -0.7742
 4742TIP3    H214191   3.042   1.218   5.296 -1.6289 -1.1841  0.3273
 4743TIP3   OH214192   1.134   0.510   2.312  0.1108  0.1229  0.3536
 4743TIP3    H114193   1.050   0.525   2.268  0.3423  0.4881  0.0299
 4743TIP3    H214194   1.111   0.478   2.399 -0.3590 -0.5751 -0.0178
 4744TIP3   OH214195   0.987   1.625   3.023  0.1057 -0.2115 -0.4864
 4744TIP3    H114196   1.072   1.625   3.067  0.1534 -1.1138 -0.5503
 4744TIP3    H214197   0.980   1.537   2.986 -0.3724  0.2060 -1.4268
 4745TIP3   OH214198   6.308   5.571   4.779  0.5391 -0.6170  0.8269
 4745TIP3    H114199   6.287   5.647   4.833  0.9149  0.0291  0.0980
 4745TIP3    H214200   6.379   5.528   4.825  1.2231  0.2307  0.5974
 4746TIP3   OH214201   0.340   0.684   1.313  0.3072  0.1893 -0.1425
 4746TIP3    H114202   0.310   0.690   1.223 -1.1111 -1.3223  0.1900
 4746TIP3    H214203   0.270   0.723   1.365  0.1525 -0.8318  0.4391
 4747TIP3   OH214204   1.069   3.326   3.399 -0.2848 -0.2060 -0.2674
 4747TIP3    H114205   1.062   3.341   3.493 -0.5812  1.4415 -0.5369
 4747TIP3    H214206   1.071   3.230   3.390 -1.2940 -0.4021  1.3336
 4748TIP3   OH214207   5.790   5.262   0.055 -0.9816 -0.1960  0.5519
 4748TIP3    H114208   5.769   5.209   0.132  0.1443 -2.0268 -0.3430
 4748TIP3    H214209   5.885   5.274   0.059 -0.9160 -0.2802 -0.5407
 4749TIP3   OH214210   1.732   4.675   1.170  0.1183  0.4566  0.2321
 4749TIP3    H114211   1.827   4.674   1.185  0.6210  0.1594 -2.4616
 4749TIP3    H214212   1.715   4.759   1.128 -0.4475 -0.2236 -0.9861
 4750TIP3   OH214213   1.930   4.043   3.377 -0.0227  0.3253 -0.1132
 4750TIP3    H114214   1.936   4.001   3.462  0.5960  2.4167  0.9448
 4750TIP3    H214215   2.017   4.032   3.338  0.1156  0.5493  0.1299
 4751TIP3   OH214216   3.233   3.525   3.975 -0.5414 -0.1888 -0.2063
 4751TIP3    H114217   3.197   3.456   4.030 -1.0701 -0.9795 -1.4991
 4751TIP3    H214218   3.297   3.570   4.031 -1.9680 -0.1115  1.4571
 4752TIP3   OH214219   5.912   4.680   3.008  0.1310 -0.6965 -0.1327
 4752TIP3    H114220   5.892   4.655   3.098 -1.5798  0.4570 -0.1424
 4752TIP3    H214221   6.007   4.676   3.003  0.2901 -0.5262  1.8150
 4753TIP3   OH214222   0.523   4.211   1.370  0.6103  0.1628 -0.4429
 4753TIP3    H114223   0.542   4.118   1.356  1.7509  0.6367 -2.5360
 4753TIP3    H214224   0.450   4.230   1.311  1.3888  0.9027 -1.2013
 4754TIP3   OH214225   4.350   1.452   0.861 -0.0822  0.3898 -0.4437
 4754TIP3    H114226   4.284   1.435   0.794  1.4825 -0.2506 -1.9191
 4754TIP3    H214227   4.347   1.375   0.918 -0.0487 -0.0320 -0.9994
 4755TIP3   OH214228   0.514   0.309   1.088  0.4492  0.3548 -0.2062
 4755TIP3    H114229   0.520   0.254   1.010 -0.9744 -0.6304  0.3338
 4755TIP3    H214230   0.421   0.307   1.112  1.2447 -2.2881  3.5379
 4756TIP3   OH214231   4.723   4.938   5.052  0.0491 -0.0748  0.1518
 4756TIP3    H114232   4.779   4.935   5.130  2.0351  0.2134 -1.1898
 4756TIP3    H214233   4.765   5.002   4.995 -1.8772  0.3994 -0.7994
 4757TIP3   OH214234   5.178   3.966   2.235 -0.2510 -0.6129  0.3215
 4757TIP3    H114235   5.117   3.907   2.192  0.4371 -0.6125 -0.6862
 4757TIP3    H214236   5.194   4.035   2.171 -1.6303  1.1158  1.7457
 4758TIP3   OH214237   0.289   0.258   3.642 -0.7226  0.1111 -0.6818
 4758TIP3    H114238   0.334   0.305   3.571  1.6611  0.3626  0.8878
 4758TIP3    H214239   0.302   0.165   3.621 -1.0308  0.1660 -1.1422
 4759TIP3   OH214240   3.094   6.573   3.133 -0.2067  0.3761 -0.4100
 4759TIP3    H114241   3.132   6.535   3.053 -1.3223  2.7092 -2.1756
 4759TIP3    H214242   3.170   6.591   3.189  0.5233 -2.2087 -0.4445
 4760TIP3   OH214243   4.130   0.798   1.662  0.1197  0.2563 -0.0601
 4760TIP3    H114244   4.122   0.889   1.692  1.3980  0.0977  0.8486
 4760TIP3    H214245   4.152   0.749   1.741 -2.6404 -1.2400 -0.0961
 4761TIP3   OH214246   6.466   1.637   1.471  0.0829 -0.3276  0.4209
 4761TIP3    H114247   6.450   1.543   1.466 -1.9282  0.0359 -2.0881
 4761TIP3    H214248   6.487   1.653   1.563 -5.0494 -2.5099  2.3280
 4762TIP3   OH214249   0.110   2.973   5.410 -0.2104  0.3115  0.4471
 4762TIP3    H114250   0.148   2.989   5.323 -0.0320 -0.1713  0.4299
 4762TIP3    H214251   0.115   2.878   5.420 -0.5316  0.3375  0.8518
 4763TIP3   OH214252   2.753   6.660   4.363  0.5475  0.3608 -0.3076
 4763TIP3    H114253   2.746   6.742   4.315  2.6491  1.7781  1.6045
 4763TIP3    H214254   2.713   6.679   4.448  1.2837 -0.5136  0.2536
 4764TIP3   OH214255   5.074   2.926   4.871  0.0094  0.2606  0.2495
 4764TIP3    H114256   5.139   2.981   4.913 -1.4142  2.1620  0.0974
 4764TIP3    H214257   4.998   2.930   4.930 -0.9216  0.3932 -0.9130
 4765TIP3   OH214258   3.941   6.150   3.788 -0.3962 -0.1905  0.4383
 4765TIP3    H114259   3.891   6.073   3.762 -0.6732  0.2111 -0.2155
 4765TIP3    H214260   3.876   6.214   3.815 -0.1957  0.0645  0.3195
 4766TIP3   OH214261   0.908   5.378   5.431  0.3629  0.7834  0.4640
 4766TIP3    H114262   0.863   5.367   5.515  0.5061  0.1988  0.4699
 4766TIP3    H214263   0.854   5.440   5.382 -0.6670 -0.1872  0.3248
 4767TIP3   OH214264   5.825   1.858   0.027  0.6458 -0.3885 -0.2885
 4767TIP3    H114265   5.741   1.813   0.016 -0.1948  1.0735 -0.1501
 4767TIP3    H214266   5.820   1.897   0.114  1.5639 -0.4598 -0.1950
 4768TIP3   OH214267   4.674   0.758   2.832 -0.8631  0.0665 -0.2839
 4768TIP3    H114268   4.719   0.835   2.866 -0.2884 -0.6209  0.5522
 4768TIP3    H214269   4.742   0.709   2.785 -1.3684  0.3681 -1.3834
 4769TIP3   OH214270   6.639   1.536   3.629  0.2982 -0.0665 -0.2985
 4769TIP3    H114271   6.673   1.452   3.600 -0.2744 -0.5864  0.4939
 4769TIP3    H214272   6.639   1.590   3.550  1.5787 -0.4908 -0.6218
 4770TIP3   OH214273   4.832   3.905   1.025  0.6770  0.0042  0.3048
 4770TIP3    H114274   4.792   3.827   1.062 -0.1843  0.4063  0.2332
 4770TIP3    H214275   4.841   3.966   1.098  0.0959  0.3411  0.1042
 4771TIP3   OH214276   3.139   5.288   2.358  0.0008 -0.1236 -0.3997
 4771TIP3    H114277   3.182   5.360   2.404 -1.4665  0.0414  0.7626
 4771TIP3    H214278   3.198   5.213   2.369 -0.1404 -0.0038  1.4785
 4772TIP3   OH214279   6.719   0.807   1.604  0.1035 -0.3569 -0.8496
 4772TIP3    H114280   6.788   0.873   1.614 -0.6471  0.4383 -0.8284
 4772TIP3    H214281   6.645   0.854   1.567 -1.0455 -0.8034  0.7587
 4773TIP3   OH214282   6.526   2.487   5.823  0.0010  0.8015  0.1089
 4773TIP3    H114283   6.480   2.434   5.888 -1.0480  0.2459 -1.0593
 4773TIP3    H214284   6.458   2.541   5.782  0.2122 -0.4889 -2.0835
 4774TIP3   OH214285   4.407   5.366   1.973  0.1066 -0.1215 -0.2882
 4774TIP3    H114286   4.397   5.361   1.878  1.4742 -1.1800 -0.4217
 4774TIP3    H214287   4.498   5.341   1.989  0.1718  0.9076  1.2502
 4775TIP3   OH214288   3.436   3.435   2.568 -0.3557  0.4365 -0.1453
 4775TIP3    H114289   3.343   3.455   2.556 -0.1806  1.6011  0.2792
 4775TIP3    H214290   3.449   3.438   2.662  0.0254 -0.1769 -0.1772
 4776TIP3   OH214291   0.123   2.024   1.884 -0.3282 -0.4761 -0.1842
 4776TIP3    H114292   0.044   1.970   1.893 -0.6059  0.0964  0.9594
 4776TIP3    H214293   0.093   2.113   1.901  0.2324 -0.0110 -1.5124
 4777TIP3   OH214294   6.218   5.902   4.413 -0.2662 -0.1222 -0.2295
 4777TIP3    H114295   6.142   5.930   4.362  0.4311  0.2848 -1.0825
 4777TIP3    H214296   6.279   5.976   4.407 -0.4696  0.2943  1.8992
 4778TIP3   OH214297   4.281   5.345   3.848 -0.3690 -0.5153 -0.0938
 4778TIP3    H114298   4.330   5.397   3.910 -0.1222  0.1593 -0.8407
 4778TIP3    H214299   4.260   5.405   3.776 -3.6483 -0.2923  0.8640
 4779TIP3   OH214300   6.017   4.899   5.176 -0.2108  0.2416 -0.5547
 4779TIP3    H114301   5.977   4.855   5.252  0.3977  1.3853  0.4686
 4779TIP3    H214302   5.970   4.864   5.101 -1.9922  0.2794  0.4748
 4780TIP3   OH214303   3.849   6.723   1.484  0.7371  0.3663  0.7105
 4780TIP3    H114304   3.886   6.794   1.432 -0.0133  0.0666 -0.2649
 4780TIP3    H214305   3.756   6.747   1.494  0.8641  0.4193  1.9300
 4781TIP3   OH214306   3.808   5.914   3.794  0.5882 -0.5054 -0.4083
 4781TIP3    H114307   3.730   5.926   3.848  1.1700 -0.1624  0.3831
 4781TIP3    H214308   3.829   5.821   3.802  2.1856 -0.0207  2.1753
 4782TIP3   OH214309   2.483   0.395   3.700  0.1233 -0.1595  0.0870
 4782TIP3    H114310   2.490   0.467   3.637  0.3742  0.5742  0.9349
 4782TIP3    H214311   2.407   0.344   3.670  0.6442 -0.2248 -1.1952
 4783TIP3   OH214312   0.131   0.609   3.864  0.1057  0.2240  0.1985
 4783TIP3    H114313   0.070   0.641   3.930 -0.5683 -0.6105 -0.0028
 4783TIP3    H214314   0.183   0.686   3.840 -0.9675  0.9841  0.2528
 4784TIP3   OH214315   6.878   4.558   5.096 -0.0164  0.2113 -0.2520
 4784TIP3    H114316   6.822   4.540   5.020  0.3690  0.6773 -0.6484
 4784TIP3    H214317   6.923   4.474   5.113  0.5586  0.3366 -1.0933
 4785TIP3   OH214318   1.537   2.586   0.951 -0.1694 -0.0779  0.3186
 4785TIP3    H114319   1.628   2.608   0.972  0.1700  0.4371 -1.5235
 4785TIP3    H214320   1.532   2.491   0.962  0.5118 -0.0808  0.6794
 4786TIP3   OH214321   5.209   4.425   4.343  0.3496  0.4119 -0.1622
 4786TIP3    H114322   5.180   4.514   4.363 -1.1498 -0.0412 -0.2106
 4786TIP3    H214323   5.257   4.435   4.260  0.0712  1.1566 -0.2495
 4787TIP3   OH214324   1.587   4.601   0.742  0.7522 -0.1312  0.3110
 4787TIP3    H114325   1.598   4.510   0.772  1.2747  0.1420  0.9570
 4787TIP3    H214326   1.556   4.648   0.820  1.4872  0.4530  0.2578
 4788TIP3   OH214327   4.858   6.330   3.948  0.2195  0.3428  0.2580
 4788TIP3    H114328   4.808   6.316   3.867  0.8801  3.6501 -0.8689
 4788TIP3    H214329   4.938   6.280   3.935 -0.2981 -0.3274 -0.5015
 4789TIP3   OH214330   0.325   0.384   1.527  0.4813  0.2398  0.1591
 4789TIP3    H114331   0.297   0.312   1.470  0.4920  0.5609 -0.2514
 4789TIP3    H214332   0.417   0.397   1.506  0.3011  0.8377 -0.2676
 4790TIP3   OH214333   6.470   4.902   3.400  0.0691  0.0660 -0.1793
 4790TIP3    H114334   6.535   4.904   3.330 -0.1185 -1.5013 -0.4298
 4790TIP3    H214335   6.519   4.879   3.479 -0.1828 -1.4599 -0.4296
 4791TIP3   OH214336   1.396   5.933   3.927  0.2253  0.5700  0.3831
 4791TIP3    H114337   1.374   5.858   3.983  1.0617  0.4067  0.5037
 4791TIP3    H214338   1.316   5.985   3.925 -0.5730 -0.6300 -0.1847
 4792TIP3   OH214339   5.772   4.616   3.985  0.3717  0.0033  0.8236
 4792TIP3    H114340   5.853   4.648   3.947  0.6128  1.0741  2.2069
 4792TIP3    H214341   5.765   4.525   3.954  1.1009  0.4891 -0.8507
 4793TIP3   OH214342   4.481   3.654   0.514  0.0847  0.8794  0.5203
 4793TIP3    H114343   4.425   3.620   0.444 -1.5465  0.8050  1.8013
 4793TIP3    H214344   4.478   3.749   0.503 -2.6657  1.0837  2.2114
 4794TIP3   OH214345   6.950   1.809   5.466 -0.3355 -0.5585  0.3409
 4794TIP3    H114346   6.936   1.714   5.456  1.2528 -1.2304  3.3147
 4794TIP3    H214347   6.895   1.833   5.541 -1.3590  1.1405 -0.8687
 4795TIP3   OH214348   0.954   5.862   1.457  0.0647 -0.2525 -0.0837
 4795TIP3    H114349   0.908   5.899   1.532  2.1801  2.7800 -0.1316
 4795TIP3    H214350   1.009   5.793   1.493 -0.7377 -0.4822  0.7291
 4796TIP3   OH214351   6.834   5.426   3.097  0.2882  0.1428 -0.2929
 4796TIP3    H114352   6.757   5.483   3.098 -0.0297 -0.2673 -0.8196
 4796TIP3    H214353   6.908   5.486   3.102 -0.0573  0.5422  0.2439
 4797TIP3   OH214354   3.594   6.543   0.252  0.1179 -0.4431 -0.0756
 4797TIP3    H114355   3.544   6.589   0.321  0.4395 -1.1844  0.6698
 4797TIP3    H214356   3.530   6.483   0.214 -0.1854  0.2926 -0.7529
 4798TIP3   OH214357   0.776   0.259   5.102 -0.1799  0.5256 -0.5715
 4798TIP3    H114358   0.754   0.252   5.009  0.7588  0.6525 -0.8210
 4798TIP3    H214359   0.734   0.184   5.143  1.1811 -0.7990 -1.4734
 4799TIP3   OH214360   4.997   4.715   1.159 -0.1425  0.2363 -1.1555
 4799TIP3    H114361   4.935   4.665   1.213  0.4113 -0.3504 -1.0498
 4799TIP3    H214362   4.966   4.805   1.164 -1.1778 -0.1003 -1.3774
 4800TIP3   OH214363   1.498   0.711   3.433  0.2222  0.4863 -0.2061
 4800TIP3    H114364   1.420   0.762   3.456  0.8157  2.0191 -1.3664
 4800TIP3    H214365   1.471   0.620   3.443 -0.7843  0.9649  2.3364
 4801TIP3   OH214366   4.166   1.661   0.900 -0.2392 -0.1967 -0.3772
 4801TIP3    H114367   4.239   1.634   0.846 -0.2284  0.1010 -0.5138
 4801TIP3    H214368   4.112   1.582   0.909  0.5989 -0.6963  0.5515
 4802TIP3   OH214369   6.435   2.252   3.820  0.2048 -0.3931  0.1647
 4802TIP3    H114370   6.512   2.206   3.786  0.2484 -0.0934 -0.1402
 4802TIP3    H214371   6.360   2.207   3.781  0.2615  0.1512 -0.5945
 4803TIP3   OH214372   6.577   6.275   2.685  0.6190  0.2963  0.4265
 4803TIP3    H114373   6.583   6.198   2.742  0.1848 -1.7361 -2.1174
 4803TIP3    H214374   6.667   6.303   2.672  0.8817 -0.5042  0.4705
 4804TIP3   OH214375   0.089   1.870   0.506  0.3322  0.2039 -0.0246
 4804TIP3    H114376   0.134   1.822   0.438  0.2499 -2.6449  1.7714
 4804TIP3    H214377   0.134   1.955   0.510  2.9472 -1.0421 -0.9397
 4805TIP3   OH214378   1.000   6.434   2.333 -0.3340  0.3392 -0.1788
 4805TIP3    H114379   0.989   6.493   2.258 -1.3204 -0.7308 -0.9328
 4805TIP3    H214380   0.954   6.354   2.306  0.9955 -0.8023  0.7646
 4806TIP3   OH214381   5.936   0.797   4.269 -0.3517  0.6616 -0.2040
 4806TIP3    H114382   5.941   0.710   4.229 -0.6210 -0.4488  2.0065
 4806TIP3    H214383   6.026   0.827   4.275 -0.3175  0.9774 -1.7777
 4807TIP3   OH214384   3.042   6.427   4.565  1.3052 -0.0869  0.0383
 4807TIP3    H114385   3.024   6.382   4.648  0.0740  2.7805  1.4657
 4807TIP3    H214386   3.138   6.426   4.557  1.5681  0.9647  2.3864
 4808TIP3   OH214387   1.809   3.204   0.211 -0.1452 -0.1144  0.2989
 4808TIP3    H114388   1.737   3.143   0.227 -0.4624  0.1405 -0.1063
 4808TIP3    H214389   1.888   3.157   0.238 -0.4255 -0.5514  0.3665
 4809TIP3   OH214390   0.952   5.577   2.646 -0.1181  0.0803  0.2885
 4809TIP3    H114391   0.936   5.669   2.668  1.0097  0.2731  0.3750
 4809TIP3    H214392   1.005   5.543   2.718 -1.4285 -0.9627  0.7992
 4810TIP3   OH214393   4.583   2.489   4.876 -0.4850 -0.2087  0.4894
 4810TIP3    H114394   4.583   2.572   4.827 -0.5620  0.2111  1.1869
 4810TIP3    H214395   4.494   2.483   4.912 -0.5839 -0.7709  0.1554
 4811TIP3   OH214396   6.851   2.399   1.430  0.6030 -0.3112 -0.1361
 4811TIP3    H114397   6.781   2.462   1.442 -0.5618 -1.4061 -0.9086
 4811TIP3    H214398   6.810   2.314   1.449  1.4296 -1.0700 -1.6022
 4812TIP3   OH214399   3.262   0.451   5.231 -0.1701 -0.2773  0.7008
 4812TIP3    H114400   3.293   0.542   5.235 -1.1330  0.0384  2.2208
 4812TIP3    H214401   3.297   0.411   5.310 -0.7615 -0.8722  0.6694
 4813TIP3   OH214402   4.979   4.351   2.843  0.6977  0.0761  0.4428
 4813TIP3    H114403   4.964   4.409   2.918  0.8439 -0.5513  0.9734
 4813TIP3    H214404   4.930   4.272   2.864  0.8416 -0.1519 -0.0684
 4814TIP3   OH214405   5.904   3.962   0.206  0.2826  0.4080 -0.1848
 4814TIP3    H114406   5.934   3.982   0.295 -0.7645  1.9244 -0.1362
 4814TIP3    H214407   5.912   4.045   0.160 -1.6974  0.3210 -0.7665
 4815TIP3   OH214408   3.641   2.957   1.773  0.5638  0.0634  0.0819
 4815TIP3    H114409   3.720   2.941   1.722  0.5690  0.5200 -0.0598
 4815TIP3    H214410   3.670   3.012   1.846  0.8073 -1.6234  1.3221
 4816TIP3   OH214411   0.599   3.563   4.629  0.1553 -0.6996  0.6243
 4816TIP3    H114412   0.557   3.479   4.611  1.3838 -0.9588 -1.3022
 4816TIP3    H214413   0.637   3.590   4.545  1.6545  0.7285  1.6894
 4817TIP3   OH214414   5.753   1.284   4.324  0.5932 -0.1159 -0.1969
 4817TIP3    H114415   5.760   1.379   4.332 -0.9088 -0.1196  2.1289
 4817TIP3    H214416   5.773   1.250   4.411  2.9050 -2.1392 -1.3973
 4818TIP3   OH214417   4.841   0.196   5.553  0.2027  0.4154 -0.4365
 4818TIP3    H114418   4.798   0.158   5.629  1.2931 -1.1575 -0.5745
 4818TIP3    H214419   4.857   0.123   5.494 -0.6829  1.5992 -2.2613
 4819TIP3   OH214420   3.253   0.344   1.906 -0.1048 -0.2083  0.1786
 4819TIP3    H114421   3.318   0.339   1.836  0.4958  1.1855  0.6030
 4819TIP3    H214422   3.169   0.335   1.861  0.1711  2.3189 -1.0048
 4820TIP3   OH214423   6.720   0.561   0.720  0.2695 -0.3058  0.0470
 4820TIP3    H114424   6.783   0.558   0.648  0.8357  0.1202  0.5147
 4820TIP3    H214425   6.664   0.637   0.700 -1.1117 -1.5789 -1.1750
 4821TIP3   OH214426   5.335   2.375   0.918 -1.0298  0.0076 -0.1711
 4821TIP3    H114427   5.387   2.408   0.991 -0.9872 -0.1839 -0.1126
 4821TIP3    H214428   5.322   2.282   0.939 -1.9402  0.1998  0.1285
 4822TIP3   OH214429   5.864   5.585   1.323 -0.1954  1.4749 -0.6214
 4822TIP3    H114430   5.774   5.553   1.325  0.2212  0.1909 -0.9884
 4822TIP3    H214431   5.876   5.629   1.406 -0.5140 -0.2524  0.3962
 4823TIP3   OH214432   5.141   1.317   3.580  0.3410  0.5593  0.1816
 4823TIP3    H114433   5.209   1.274   3.528 -1.2389 -0.4985 -1.1238
 4823TIP3    H214434   5.072   1.251   3.589 -0.2496  1.3684  2.0370
 4824TIP3   OH214435   2.548   3.136   0.054 -0.6423 -0.2408  0.2975
 4824TIP3    H114436   2.561   3.171  -0.034 -2.3320 -2.3491 -0.8924
 4824TIP3    H214437   2.633   3.100   0.078 -0.0279  0.8038 -0.2355
 4825TIP3   OH214438   5.011   3.585   1.853 -0.2406  0.2197 -0.2929
 4825TIP3    H114439   4.963   3.634   1.920  0.0524  0.8289 -0.5201
 4825TIP3    H214440   5.054   3.514   1.901 -1.5717 -0.5031 -0.1219
 4826TIP3   OH214441   2.969   3.725   4.209  0.0020 -0.5388  0.5120
 4826TIP3    H114442   2.875   3.743   4.213 -0.1764 -1.5799  1.8170
 4826TIP3    H214443   2.991   3.730   4.116 -1.5615 -1.2868  0.0658
 4827TIP3   OH214444   5.174   5.845   5.781  0.2980 -0.5132  0.4490
 4827TIP3    H114445   5.152   5.779   5.715  1.6432 -0.0435 -0.5230
 4827TIP3    H214446   5.125   5.923   5.755 -1.3573 -1.1058  1.6461
 4828TIP3   OH214447   4.233   3.445   5.046  0.0231  0.7504 -1.2055
 4828TIP3    H114448   4.278   3.415   5.126  0.7557  0.1939 -1.8096
 4828TIP3    H214449   4.208   3.536   5.066  1.2439  1.0124 -0.7611
 4829TIP3   OH214450   5.247   6.569   0.667 -0.0450  0.2238  0.4644
 4829TIP3    H114451   5.188   6.563   0.591  0.3342  1.3080  0.0694
 4829TIP3    H214452   5.332   6.588   0.629  0.2126  0.4491  1.1529
 4830TIP3   OH214453   5.929   6.586   4.554 -0.5192 -0.0191  0.3696
 4830TIP3    H114454   5.958   6.676   4.539  0.1780 -0.5066 -1.4187
 4830TIP3    H214455   5.834   6.593   4.564 -0.4130  0.9670  0.7547
 4831TIP3   OH214456   6.010   5.497   2.852 -0.1038  0.1582 -0.0782
 4831TIP3    H114457   6.083   5.436   2.861  1.9441  2.7226  2.4531
 4831TIP3    H214458   5.945   5.466   2.915 -0.1659 -0.7172 -0.5505
 4832TIP3   OH214459   2.376   0.739   3.173  0.1959  0.0137 -0.3444
 4832TIP3    H114460   2.354   0.666   3.231  0.7879  0.4432  0.4568
 4832TIP3    H214461   2.465   0.763   3.199 -0.1046  1.2175 -0.3676
 4833TIP3   OH214462   2.052   3.121   0.363  0.2723 -0.1530  0.1997
 4833TIP3    H114463   2.031   3.090   0.451 -2.7617  0.3202 -0.2508
 4833TIP3    H214464   2.024   3.049   0.305 -1.2246  0.9345 -0.5076
 4834TIP3   OH214465   0.020   2.097   3.779 -0.0459 -0.1705  0.4423
 4834TIP3    H114466   0.028   2.002   3.783 -1.2478 -0.2759  0.7001
 4834TIP3    H214467  -0.046   2.113   3.711  2.5200  0.6419 -2.0481
 4835TIP3   OH214468   3.318   1.037   0.290 -0.3686  0.1255 -0.3652
 4835TIP3    H114469   3.407   1.063   0.267 -0.6650  1.3429 -0.1892
 4835TIP3    H214470   3.283   0.999   0.209 -0.0199  0.5522 -0.7249
 4836TIP3   OH214471   3.381   2.905   3.388  0.3569 -0.3685  0.5209
 4836TIP3    H114472   3.309   2.855   3.349  0.5138 -0.9676  0.9904
 4836TIP3    H214473   3.451   2.899   3.323 -0.6253  1.9245 -0.9054
 4837TIP3   OH214474   1.138   1.379   4.038  0.9115 -0.5145  0.1053
 4837TIP3    H114475   1.198   1.434   4.089  1.6678 -1.3478  0.1400
 4837TIP3    H214476   1.195   1.328   3.981  0.1422 -0.4635 -0.7245
 4838TIP3   OH214477   3.130   6.485   0.447 -0.4215  0.3971 -0.1519
 4838TIP3    H114478   3.220   6.499   0.477 -0.8365 -2.1027  2.6946
 4838TIP3    H214479   3.101   6.571   0.418  2.1410  1.7607  0.9973
 4839TIP3   OH214480   2.668   3.635   2.169  0.0473 -0.1474 -0.3922
 4839TIP3    H114481   2.651   3.725   2.139  0.7938  0.7572  1.7127
 4839TIP3    H214482   2.742   3.605   2.116 -1.4415 -0.3282 -2.5086
 4840TIP3   OH214483   0.042   2.457   5.414 -0.4539 -0.4765  0.9007
 4840TIP3    H114484   0.003   2.492   5.494 -0.5475  2.0075 -0.1340
 4840TIP3    H214485   0.093   2.530   5.378 -0.3554 -1.5243 -1.2693
 4841TIP3   OH214486   3.082   6.002   4.816  0.0873  0.0713  0.2180
 4841TIP3    H114487   3.154   5.995   4.753 -0.1803  1.0092 -0.2015
 4841TIP3    H214488   3.050   6.091   4.806 -1.4813 -0.4957  0.0353
 4842TIP3   OH214489   3.322   0.757   5.213  0.1476 -0.0214  0.5734
 4842TIP3    H114490   3.347   0.847   5.193 -3.0873  0.6618 -0.9596
 4842TIP3    H214491   3.232   0.762   5.243 -0.6002 -2.8222 -0.8026
 4843TIP3   OH214492   2.647   5.986   4.021 -0.0363 -0.0904 -0.1326
 4843TIP3    H114493   2.576   5.995   4.085 -0.9176 -2.0829 -0.7550
 4843TIP3    H214494   2.701   5.915   4.055 -0.2939 -0.9051 -1.3543
 4844TIP3   OH214495   2.767   1.665   1.616 -0.1387  0.2967  0.2621
 4844TIP3    H114496   2.794   1.697   1.530 -0.7481  0.6158  0.1845
 4844TIP3    H214497   2.745   1.744   1.665 -1.8881  0.0124 -0.0136
 4845TIP3   OH214498   6.537   1.630   4.830 -0.2142 -0.5163 -0.4502
 4845TIP3    H114499   6.503   1.590   4.910 -1.3642  0.5164 -0.3941
 4845TIP3    H214500   6.631   1.633   4.842 -0.2657 -1.6382  0.2662
 4846TIP3   OH214501   4.689   6.460   4.610  0.7819 -0.1706 -0.0335
 4846TIP3    H114502   4.666   6.528   4.673 -1.7435  1.4011 -2.4185
 4846TIP3    H214503   4.709   6.508   4.530  0.9891 -2.1774 -1.2390
 4847TIP3   OH214504   5.815   2.842   0.237 -0.6182 -0.4163 -0.3161
 4847TIP3    H114505   5.821   2.904   0.165 -1.0073 -0.5317 -0.4535
 4847TIP3    H214506   5.794   2.759   0.195 -1.7762 -0.3029 -0.0134
 4848TIP3   OH214507   2.061   3.325   2.155 -0.2855 -0.0019 -0.3215
 4848TIP3    H114508   2.150   3.308   2.124 -0.4517  0.1656 -0.9119
 4848TIP3    H214509   2.022   3.239   2.166  0.2831 -0.1144  0.9696
 4849TIP3   OH214510   1.966   2.969   0.606  0.0680 -0.2401  0.2428
 4849TIP3    H114511   1.973   2.897   0.669  0.1207  1.1433  1.8692
 4849TIP3    H214512   1.923   3.039   0.654 -0.9535  0.4933 -1.6374
 4850TIP3   OH214513   2.945   3.372   2.805  0.1007 -0.2148  0.0502
 4850TIP3    H114514   2.883   3.393   2.734 -0.2372 -1.7489 -0.1483
 4850TIP3    H214515   2.953   3.454   2.854 -0.5181  0.5799 -1.1057
 4851TIP3   OH214516   0.820   3.589   4.979  0.1221  0.2674  0.1178
 4851TIP3    H114517   0.732   3.605   5.014  0.4652  1.9048  0.3003
 4851TIP3    H214518   0.805   3.539   4.899 -0.9696  0.4770  0.1768
 4852TIP3   OH214519   1.661   0.560   2.965  0.0175 -0.4808 -0.2268
 4852TIP3    H114520   1.744   0.608   2.966 -0.2160 -0.0732 -0.1368
 4852TIP3    H214521   1.594   0.628   2.956 -0.3233 -0.7780  0.0188
 4853TIP3   OH214522   6.322   3.888   1.289 -0.2244  0.0779  0.3433
 4853TIP3    H114523   6.384   3.940   1.237 -0.1717  0.2680  0.5948
 4853TIP3    H214524   6.360   3.886   1.377 -0.1094 -0.5788  0.2856
 4854TIP3   OH214525   1.488   0.878   1.328  0.2739  0.1866  0.2642
 4854TIP3    H114526   1.457   0.816   1.394  1.2335  0.3553  0.8905
 4854TIP3    H214527   1.503   0.825   1.250 -0.5623 -0.0692  0.2738
 4855TIP3   OH214528   2.327   3.462   1.057 -0.4313  0.5442 -0.2576
 4855TIP3    H114529   2.308   3.555   1.069  2.9168  1.3739 -0.2994
 4855TIP3    H214530   2.335   3.451   0.963  1.7825  0.9198 -0.1640
 4856TIP3   OH214531   0.406   6.047   3.365 -0.1450  0.6249  0.0418
 4856TIP3    H114532   0.352   6.066   3.288  0.2216  0.4585 -0.2616
 4856TIP3    H214533   0.375   5.962   3.395 -1.0067  1.1586  0.7161
 4857TIP3   OH214534   2.325   5.676   2.157 -1.0351 -0.1511  0.1079
 4857TIP3    H114535   2.366   5.591   2.144 -1.8674 -0.7268  1.1068
 4857TIP3    H214536   2.396   5.734   2.185 -0.3987 -0.4069 -0.9061
 4858TIP3   OH214537   5.251   3.666   3.689  0.1798  0.4512  1.0026
 4858TIP3    H114538   5.183   3.698   3.748 -0.2616 -1.6572  1.7030
 4858TIP3    H214539   5.274   3.743   3.636 -1.9891  1.4806  1.4331
 4859TIP3   OH214540   3.594   3.963   0.697 -0.0017  0.0267 -0.0512
 4859TIP3    H114541   3.618   3.873   0.717  0.0733 -0.1133 -0.7602
 4859TIP3    H214542   3.499   3.965   0.705 -0.1851 -0.5609 -1.7610
 4860TIP3   OH214543   1.298   5.838   2.807 -0.2698 -0.8502 -0.0898
 4860TIP3    H114544   1.209   5.805   2.813 -2.0323  3.0936 -1.1868
 4860TIP3    H214545   1.318   5.871   2.894 -0.9252  0.3798 -0.3724
 4861TIP3   OH214546   3.477   3.185   3.011 -0.5135 -0.1845  0.1166
 4861TIP3    H114547   3.544   3.179   3.079 -0.2335 -0.7875 -0.2090
 4861TIP3    H214548   3.526   3.207   2.931 -0.5937 -1.3263 -0.2712
 4862TIP3   OH214549   3.423   4.473   5.329  0.4225 -0.0189 -0.1767
 4862TIP3    H114550   3.391   4.392   5.287 -0.2210  0.0428  0.1858
 4862TIP3    H214551   3.372   4.480   5.410  1.4492  0.0182  0.4850
 4863TIP3   OH214552   6.530   5.450   3.180  0.9531 -0.3865  0.2323
 4863TIP3    H114553   6.490   5.493   3.105 -1.1341  0.4151  1.7052
 4863TIP3    H214554   6.505   5.358   3.171  0.6436 -0.2811 -0.0251
 4864TIP3   OH214555   6.734   1.202   0.564  0.1579 -0.4266  0.1547
 4864TIP3    H114556   6.734   1.109   0.544 -0.5882 -0.0604 -1.7150
 4864TIP3    H214557   6.814   1.236   0.522  0.9546 -0.3468  1.6517
 4865TIP3   OH214558   3.433   1.232   4.068 -0.5905  0.1344 -0.4214
 4865TIP3    H114559   3.368   1.175   4.026  0.0038 -0.3434 -0.7252
 4865TIP3    H214560   3.512   1.222   4.013  0.3421 -0.8363  1.0245
 4866TIP3   OH214561   0.077   5.254   4.173 -0.2438  0.2885 -0.6567
 4866TIP3    H114562  -0.010   5.285   4.200  0.3307  2.1108 -0.7617
 4866TIP3    H214563   0.060   5.172   4.127 -1.6279 -0.8984  1.7526
 4867TIP3   OH214564   2.247   3.161   0.662  0.0044  0.1713  0.0477
 4867TIP3    H114565   2.304   3.162   0.740 -1.9832  0.4024  1.5633
 4867TIP3    H214566   2.177   3.223   0.683 -1.1419 -0.5525 -1.5075
 4868TIP3   OH214567   3.787   6.649   0.670  0.1202 -0.0709 -0.6975
 4868TIP3    H114568   3.785   6.682   0.580  2.7416  0.2182 -0.7187
 4868TIP3    H214569   3.840   6.569   0.665  0.7984  0.2706  0.6798
 4869TIP3   OH214570   5.543   2.479   5.331  0.2649  0.2600 -0.4768
 4869TIP3    H114571   5.566   2.467   5.239 -1.7513 -1.8668 -0.8017
 4869TIP3    H214572   5.450   2.454   5.336  0.0170  1.3837  1.9443
 4870TIP3   OH214573   0.863   4.235   5.081 -0.0879  0.8226 -0.2079
 4870TIP3    H114574   0.779   4.270   5.110  0.2283  1.0901  0.3965
 4870TIP3    H214575   0.848   4.140   5.073 -0.9578  1.0722 -1.9102
 4871TIP3   OH214576   6.944   2.667   5.110  0.4934 -0.3984 -0.0502
 4871TIP3    H114577   7.007   2.599   5.084  1.3849  1.3154 -2.8631
 4871TIP3    H214578   6.994   2.748   5.108 -1.3191  0.7715 -0.2380
 4872TIP3   OH214579   6.171   6.107   0.098  0.1972 -0.1132 -0.7451
 4872TIP3    H114580   6.098   6.070   0.048  1.3917 -1.3551 -1.6592
 4872TIP3    H214581   6.139   6.192   0.126 -1.4089 -0.3811 -1.5775
 4873TIP3   OH214582   2.167   3.070   2.058  0.1057 -0.7173  0.8956
 4873TIP3    H114583   2.188   3.130   1.987 -0.9923  1.1263  2.0678
 4873TIP3    H214584   2.200   2.985   2.028  1.4379  0.3840 -0.9384
 4874TIP3   OH214585   5.103   4.790   3.493  0.0513 -0.0920 -0.1658
 4874TIP3    H114586   5.025   4.765   3.445 -0.0147  0.0294 -0.1210
 4874TIP3    H214587   5.070   4.834   3.572  0.1637 -0.0434 -0.1454
 4875TIP3   OH214588   6.556   6.336   2.198 -0.3093 -0.4291  0.0748
 4875TIP3    H114589   6.618   6.276   2.156 -1.1849  0.0060 -1.9523
 4875TIP3    H214590   6.501   6.367   2.127 -0.8468  1.6373  1.3067
 4876TIP3   OH214591   4.702   2.181   0.327  0.0423 -0.1188  0.2789
 4876TIP3    H114592   4.670   2.117   0.390 -0.8804  1.0817  1.0705
 4876TIP3    H214593   4.759   2.239   0.378 -0.8802  0.9930  0.0817
 4877TIP3   OH214594   3.651   1.076   3.416 -0.3280 -0.0774 -0.0970
 4877TIP3    H114595   3.638   1.026   3.335  1.1936  1.2127 -1.1956
 4877TIP3    H214596   3.563   1.091   3.450 -1.1355  0.8187 -2.4366
 4878TIP3   OH214597   5.742   4.578   3.234 -0.2961  0.2535  0.2014
 4878TIP3    H114598   5.800   4.510   3.203 -0.3280 -0.2253  1.1508
 4878TIP3    H214599   5.715   4.549   3.321 -1.5480  0.7138 -0.0115
 4879TIP3   OH214600   3.902   3.435   1.956 -0.4326  0.3894  0.3570
 4879TIP3    H114601   3.830   3.490   1.925  0.5335  1.1315 -0.6629
 4879TIP3    H214602   3.893   3.435   2.051 -1.6639  0.6082  0.2557
 4880TIP3   OH214603   0.076   5.481   1.956  0.8471  0.0180 -0.0028
 4880TIP3    H114604   0.080   5.547   2.025  0.9274  1.3719 -1.2434
 4880TIP3    H214605  -0.017   5.475   1.933  0.8473 -0.2638  0.0616
 4881TIP3   OH214606   5.290   6.716   2.312  0.2426  0.4026  0.0463
 4881TIP3    H114607   5.304   6.660   2.235  0.8948 -0.7864  1.0042
 4881TIP3    H214608   5.252   6.796   2.276 -1.3606 -0.8847 -1.3102
 4882TIP3   OH214609   0.728   3.289   3.762 -0.3459 -0.1650 -0.2077
 4882TIP3    H114610   0.645   3.304   3.806  0.0350  0.4636  0.3146
 4882TIP3    H214611   0.709   3.223   3.695 -0.6315 -2.2959  1.8640
 4883TIP3   OH214612   0.409   0.387   0.407 -0.0567 -0.1000  0.2059
 4883TIP3    H114613   0.489   0.382   0.459 -0.1636  1.9780  0.6605
 4883TIP3    H214614   0.421   0.464   0.351 -1.3020 -0.3803 -0.4901
 4884TIP3   OH214615   1.329   6.197   1.458  0.3726 -0.5108  0.1276
 4884TIP3    H114616   1.390   6.260   1.498 -0.4601  0.5359 -0.1827
 4884TIP3    H214617   1.299   6.143   1.531  0.9615 -0.4300  0.4381
 4885TIP3   OH214618   6.695   6.545   1.712  0.3038  0.2142 -0.6853
 4885TIP3    H114619   6.735   6.547   1.799 -0.4823 -0.5300 -0.2862
 4885TIP3    H214620   6.768   6.527   1.652  0.8959  1.0161 -0.2201
 4886TIP3   OH214621   6.152   0.916   3.608  0.0971  0.2255  0.6883
 4886TIP3    H114622   6.119   0.913   3.518 -0.4663 -0.1631  0.9066
 4886TIP3    H214623   6.078   0.945   3.660  0.0558 -0.7478  1.1944
 4887TIP3   OH214624   1.355   3.035   3.249  0.1929  1.2638  0.1739
 4887TIP3    H114625   1.323   2.992   3.169  0.7615  0.5356  0.3184
 4887TIP3    H214626   1.328   2.976   3.320 -0.5528  2.0461  0.5531
 4888TIP3   OH214627   6.392   5.540   5.844  0.0721 -0.0389 -0.2999
 4888TIP3    H114628   6.431   5.623   5.871 -1.0453  0.6420 -0.7320
 4888TIP3    H214629   6.468   5.484   5.826  0.8516  0.9913 -0.3546
 4889TIP3   OH214630   2.676   3.890   5.574 -0.1512  0.0105  0.0935
 4889TIP3    H114631   2.720   3.936   5.502  1.7503 -1.8833 -0.0702
 4889TIP3    H214632   2.607   3.839   5.532 -0.5116  0.6366 -0.0764
 4890TIP3   OH214633   6.642   2.302   5.609  0.1194  0.3796  0.4484
 4890TIP3    H114634   6.626   2.315   5.703  0.9738  1.2944  0.4850
 4890TIP3    H214635   6.578   2.358   5.566 -0.1144  0.1402  0.4757
 4891TIP3   OH214636   0.427   6.336   2.946  0.3360 -0.4780  0.0553
 4891TIP3    H114637   0.421   6.377   2.860 -1.5471 -2.4154 -0.8436
 4891TIP3    H214638   0.519   6.310   2.954  0.5864 -0.0682 -1.2821
 4892TIP3   OH214639   3.706   6.655   5.511 -0.0396  0.2822 -0.0125
 4892TIP3    H114640   3.748   6.599   5.576 -0.3936 -0.0024 -0.0278
 4892TIP3    H214641   3.761   6.646   5.433  0.0434  0.1497  0.0607
 4893TIP3   OH214642   3.208   1.577   0.207  0.0413 -0.1434  0.1218
 4893TIP3    H114643   3.118   1.575   0.240  0.3644 -1.3148  1.0217
 4893TIP3    H214644   3.235   1.485   0.204  0.7600  0.0810 -1.4516
 4894TIP3   OH214645   4.764   2.845   5.458  0.3755  0.2406  0.0582
 4894TIP3    H114646   4.752   2.786   5.384 -0.9403  1.7943 -1.0447
 4894TIP3    H214647   4.845   2.893   5.438  1.4220 -1.0762  0.9342
 4895TIP3   OH214648   4.528   4.905   1.432 -0.4357  0.1044  1.0135
 4895TIP3    H114649   4.506   4.963   1.359  0.3409  0.7360  1.2686
 4895TIP3    H214650   4.605   4.945   1.473 -0.3061 -0.7306  1.6250
 4896TIP3   OH214651   1.937   1.121   5.358  0.4890 -0.2609  0.0401
 4896TIP3    H114652   1.895   1.060   5.298 -0.5281  1.8976 -1.6114
 4896TIP3    H214653   1.949   1.072   5.439 -2.3518 -1.9794 -0.4597
 4897TIP3   OH214654   1.006   4.650   5.371 -0.5508  0.8347 -0.4795
 4897TIP3    H114655   0.980   4.591   5.301  1.7315 -1.7342  0.6407
 4897TIP3    H214656   1.099   4.669   5.354  0.5350 -1.0735  2.4465
 4898TIP3   OH214657   5.813   6.367   0.984 -0.7847 -0.1695  0.1666
 4898TIP3    H114658   5.755   6.432   0.944 -1.5114 -0.5176  0.6198
 4898TIP3    H214659   5.894   6.372   0.933 -0.1688  2.3013  1.2445
 4899TIP3   OH214660   6.471   5.184   4.258 -0.3847 -0.2825  0.8436
 4899TIP3    H114661   6.523   5.152   4.332 -0.8828 -1.0963  0.8455
 4899TIP3    H214662   6.511   5.142   4.182  0.2262  0.6755  0.6150
 4900TIP3   OH214663   7.090   0.980   0.444 -0.1812 -0.0605  0.0187
 4900TIP3    H114664   7.139   1.001   0.365 -0.4205 -1.1549 -0.4374
 4900TIP3    H214665   7.068   1.065   0.482  0.3575  0.4698 -0.8184
 4901TIP3   OH214666   4.122   5.731   1.392 -0.4066 -0.3419 -0.4184
 4901TIP3    H114667   4.052   5.691   1.340 -1.2051  0.6895 -0.1740
 4901TIP3    H214668   4.090   5.727   1.482  0.5841 -1.3228 -0.0969
 4902TIP3   OH214669   0.797   2.659   4.019 -0.3070 -0.3300  0.0317
 4902TIP3    H114670   0.889   2.658   3.992 -0.2742 -0.0763  0.1266
 4902TIP3    H214671   0.776   2.752   4.028 -0.0359 -0.3934  1.7838
 4903TIP3   OH214672   3.710   6.654   3.382 -0.2362  0.4145  0.6323
 4903TIP3    H114673   3.708   6.607   3.466  0.0724 -0.8540 -0.0309
 4903TIP3    H214674   3.769   6.601   3.328 -0.4894  1.1789 -0.4099
 4904TIP3   OH214675   3.965   6.433   1.056  0.4660 -0.0660 -0.1137
 4904TIP3    H114676   3.901   6.468   1.119  0.4902 -0.1783 -0.0270
 4904TIP3    H214677   3.973   6.340   1.078 -0.3284 -0.3539 -0.9591
 4905TIP3   OH214678   0.662   2.027   0.251  0.0862  0.1720  0.3797
 4905TIP3    H114679   0.688   2.076   0.329 -2.2497 -0.2030  1.4715
 4905TIP3    H214680   0.573   1.997   0.269  0.1619 -1.5731 -1.6632
 4906TIP3   OH214681   0.870   1.558   4.699  0.3016  0.3540 -0.1768
 4906TIP3    H114682   0.958   1.594   4.699 -0.9894  3.9051 -0.2687
 4906TIP3    H214683   0.855   1.531   4.608  0.5859  1.7538 -0.6576
 4907TIP3   OH214684   3.916   3.473   1.604 -0.5434  0.4705  0.0104
 4907TIP3    H114685   3.975   3.508   1.670 -0.4062 -0.3797  0.3624
 4907TIP3    H214686   3.879   3.394   1.645 -1.2482  0.5060 -0.5361
 4908TIP3   OH214687   5.046   0.131   1.124  0.0890  0.0301  0.3270
 4908TIP3    H114688   5.024   0.071   1.053  1.0220  2.3438 -2.0993
 4908TIP3    H214689   4.965   0.138   1.175 -0.8094 -1.2393 -0.8520
 4909TIP3   OH214690   6.362   4.468   1.233  0.3219  0.2343  0.1052
 4909TIP3    H114691   6.429   4.475   1.301 -1.7323 -0.7679  2.3763
 4909TIP3    H214692   6.288   4.519   1.267 -0.9310 -0.6800 -1.1617
 4910TIP3   OH214693   7.052   6.149   5.074  0.2216  0.3747 -0.0070
 4910TIP3    H114694   7.072   6.219   5.012  1.2532 -1.0368 -1.3528
 4910TIP3    H214695   7.101   6.172   5.153 -0.6225  1.8916  0.1132
 4911TIP3   OH214696   2.466   2.419   2.168  0.6430  0.1522 -0.1532
 4911TIP3    H114697   2.381   2.456   2.145  0.4663 -1.1289 -1.6921
 4911TIP3    H214698   2.484   2.453   2.256 -2.2616 -0.9000  0.9511
 4912TIP3   OH214699   4.219   2.265   4.945  0.2877 -0.2559 -0.4007
 4912TIP3    H114700   4.142   2.270   5.001  1.2019 -3.1087  1.3549
 4912TIP3    H214701   4.259   2.352   4.950 -1.7871  0.7263  0.1188
 4913TIP3   OH214702   7.139   1.982   5.381  0.8989 -0.2949 -0.4766
 4913TIP3    H114703   7.212   1.927   5.351  2.1783  0.2656  1.4429
 4913TIP3    H214704   7.071   1.919   5.407  1.2019 -0.8673 -1.0378
 4914TIP3   OH214705   6.102   3.297   0.601 -0.2137 -0.0012 -0.2911
 4914TIP3    H114706   6.062   3.263   0.681 -0.9556 -0.9835 -1.0413
 4914TIP3    H214707   6.047   3.371   0.577  0.4437  0.7575  0.4814
 4915TIP3   OH214708   2.076   3.489   0.090 -0.0488 -0.3674 -0.0424
 4915TIP3    H114709   2.159   3.494   0.042 -0.5278  0.6231 -0.8038
 4915TIP3    H214710   2.093   3.426   0.160  1.1660 -0.6208 -0.5353
 4916TIP3   OH214711   2.863   4.106   3.892  0.0275 -0.2997  0.3040
 4916TIP3    H114712   2.828   4.061   3.815  0.9786 -1.1263  0.3367
 4916TIP3    H214713   2.808   4.075   3.965 -1.0585  0.7057 -0.0621
 4917TIP3   OH214714   6.084   1.763   0.188 -0.4403 -0.1723  0.5450
 4917TIP3    H114715   6.076   1.722   0.102 -0.4227 -0.1486  0.5320
 4917TIP3    H214716   5.999   1.749   0.230  0.0990 -1.6782  1.1844
 4918TIP3   OH214717   6.769   6.555   5.182 -0.5347 -0.0753  0.3462
 4918TIP3    H114718   6.797   6.531   5.270 -1.2113 -0.0388  0.5780
 4918TIP3    H214719   6.760   6.471   5.136  1.6616 -0.0302 -0.2971
 4919TIP3   OH214720   6.045   5.960   4.190 -0.4391 -0.2214 -0.7917
 4919TIP3    H114721   6.015   5.871   4.210 -0.8680  0.4509  2.0590
 4919TIP3    H214722   5.968   6.004   4.154 -2.2174  0.5243  3.3117
 4920TIP3   OH214723   0.830   0.408   3.825  0.1438  0.2661  0.1762
 4920TIP3    H114724   0.888   0.481   3.800  2.1070 -0.4123  2.3835
 4920TIP3    H214725   0.882   0.329   3.806 -0.5542 -0.4228  1.0553
 4921TIP3   OH214726   2.570   1.154   4.416 -0.0991 -0.3387 -0.0332
 4921TIP3    H114727   2.648   1.148   4.471 -1.2144 -1.2290  1.5168
 4921TIP3    H214728   2.576   1.240   4.374  2.2533 -0.8228 -0.8324
 4922TIP3   OH214729   7.027   0.289   3.462 -0.0648 -0.0435  0.0180
 4922TIP3    H114730   7.007   0.381   3.477  1.3940  0.1421  1.0091
 4922TIP3    H214731   6.949   0.242   3.492 -0.3574  0.7993  0.5971
 4923TIP3   OH214732   3.071   4.833   3.353 -0.2136  0.0686 -0.2328
 4923TIP3    H114733   3.078   4.788   3.268 -0.8555  1.5824 -1.1308
 4923TIP3    H214734   2.978   4.856   3.360  0.2459  2.0647 -0.2649
 4924TIP3   OH214735   0.174   5.065   5.725 -0.1109  0.7997 -0.5549
 4924TIP3    H114736   0.143   5.155   5.740 -0.1216  0.9845 -1.6070
 4924TIP3    H214737   0.144   5.016   5.801 -1.9607  1.2310 -0.9638
 4925TIP3   OH214738   5.963   6.817   3.965 -0.0089 -0.0145  0.3029
 4925TIP3    H114739   5.938   6.725   3.960  0.0573 -0.0085 -0.1943
 4925TIP3    H214740   5.999   6.828   4.053  0.0846 -0.4867  0.3244
 4926TIP3   OH214741   5.059   2.834   4.034 -0.2693 -0.0029  0.2267
 4926TIP3    H114742   5.094   2.844   3.945 -2.4145 -1.3267 -0.8364
 4926TIP3    H214743   4.987   2.897   4.038  0.7840  1.1739  1.6277
 4927TIP3   OH214744   2.450   3.009   1.858 -0.5217 -0.2688 -0.0941
 4927TIP3    H114745   2.376   3.070   1.854 -1.5578 -1.4722 -0.1870
 4927TIP3    H214746   2.499   3.024   1.778 -0.8682  0.3177 -0.1973
 4928TIP3   OH214747   6.836   5.640   2.156 -0.2050 -0.1184  0.2713
 4928TIP3    H114748   6.864   5.725   2.191 -0.5176  0.4328 -0.7732
 4928TIP3    H214749   6.741   5.641   2.163 -0.3211  0.2645 -1.1351
 4929TIP3   OH214750   0.895   2.617   1.258  0.1233 -0.4127  0.0145
 4929TIP3    H114751   0.984   2.626   1.224  0.0352 -0.5364 -0.2532
 4929TIP3    H214752   0.890   2.679   1.331  0.1580  0.2222 -0.5211
 4930TIP3   OH214753   3.878   3.629   4.996  0.3445  0.1472  0.0443
 4930TIP3    H114754   3.846   3.694   4.934 -0.6264 -0.0158  0.3596
 4930TIP3    H214755   3.937   3.574   4.944  0.1964  0.5181 -0.5258
 4931TIP3   OH214756   1.451   6.171   0.627  0.2442 -0.3135 -0.0541
 4931TIP3    H114757   1.451   6.102   0.560 -0.1057  0.0629 -0.4478
 4931TIP3    H214758   1.397   6.135   0.697  1.2047 -1.0082  0.3500
 4932TIP3   OH214759   1.307   3.221   5.692 -0.4470  0.1574  0.0143
 4932TIP3    H114760   1.287   3.279   5.766 -0.5213 -1.5741  1.4276
 4932TIP3    H214761   1.235   3.158   5.691  1.4557 -2.1955  0.9916
 4933TIP3   OH214762   5.390   3.909   1.024 -0.6744  0.2113 -0.1497
 4933TIP3    H114763   5.456   3.840   1.025  0.0218  0.8437  1.6457
 4933TIP3    H214764   5.308   3.864   1.043 -0.5446 -0.3860 -0.9761
 4934TIP3   OH214765   0.983   2.675   0.047  0.6108 -0.0934  0.2954
 4934TIP3    H114766   0.972   2.705   0.137  0.5563  0.7090  0.0373
 4934TIP3    H214767   1.069   2.635   0.044 -0.1793 -1.9815  1.1815
 4935TIP3   OH214768   6.339   6.498   3.866  0.1031  0.3762 -0.2259
 4935TIP3    H114769   6.410   6.435   3.862  0.6927  0.9695  0.5199
 4935TIP3    H214770   6.371   6.574   3.818  0.1125  0.7634  0.3742
 4936TIP3   OH214771   2.148   4.892   4.718  0.0368  0.1900 -0.4695
 4936TIP3    H114772   2.197   4.878   4.798  0.8457  0.6867 -0.8614
 4936TIP3    H214773   2.182   4.975   4.683 -1.6184  0.9666 -0.3569
 4937TIP3   OH214774   3.788   6.687   0.401 -0.1417 -0.2793 -0.2215
 4937TIP3    H114775   3.731   6.620   0.365 -0.8981  1.2918 -2.1651
 4937TIP3    H214776   3.859   6.695   0.337 -0.3420  1.0930 -0.3155
 4938TIP3   OH214777   4.144   5.603   5.800 -0.0798 -0.5084  0.3951
 4938TIP3    H114778   4.101   5.684   5.772  1.1695  0.0106 -0.0805
 4938TIP3    H214779   4.076   5.556   5.848 -1.3374  0.0506 -0.7522
 4939TIP3   OH214780   3.398   1.339   3.422  0.2870  0.3021 -0.1123
 4939TIP3    H114781   3.388   1.282   3.499 -0.8609  0.4800 -0.1133
 4939TIP3    H214782   3.446   1.415   3.456 -0.1547  0.3520  0.4140
 4940TIP3   OH214783   4.503   2.059   5.543 -0.3506  0.6503  0.0211
 4940TIP3    H114784   4.482   1.975   5.585  0.6757 -0.5828 -1.7750
 4940TIP3    H214785   4.561   2.103   5.605 -0.6712 -0.0977  0.8765
 4941TIP3   OH214786   3.936   5.356   1.562  0.8486  0.2438 -0.1897
 4941TIP3    H114787   3.874   5.356   1.489  0.2542 -1.5510  0.2715
 4941TIP3    H214788   3.950   5.264   1.583  0.1612  0.6713  2.6235
 4942TIP3   OH214789   5.227   1.452   0.666 -0.0923  0.3378  0.0839
 4942TIP3    H114790   5.149   1.397   0.662  0.0710 -0.0791  1.8443
 4942TIP3    H214791   5.284   1.418   0.597 -1.0974  0.0909 -0.6426
 4943TIP3   OH214792   2.351   0.833   1.074  0.2783 -0.4273  0.3304
 4943TIP3    H114793   2.340   0.770   1.146 -1.7875 -1.5343 -0.8521
 4943TIP3    H214794   2.263   0.870   1.061  0.8220  0.4907 -0.9620
 4944TIP3   OH214795   1.603   3.445   5.846 -0.4094 -0.1211 -0.2157
 4944TIP3    H114796   1.559   3.397   5.917  0.1296  0.6754  0.6753
 4944TIP3    H214797   1.551   3.525   5.835  0.7513  0.8178  0.8289
 4945TIP3   OH214798   4.347   5.657   1.242  0.3755 -0.0038 -0.2579
 4945TIP3    H114799   4.379   5.687   1.157  1.3950 -0.5212 -0.0773
 4945TIP3    H214800   4.254   5.678   1.242  1.0003  3.4715 -0.0216
 4946TIP3   OH214801   4.217   5.498   5.067 -0.0578  0.6741  0.6596
 4946TIP3    H114802   4.312   5.489   5.063 -0.1545  0.0547 -1.1425
 4946TIP3    H214803   4.201   5.591   5.054  0.2876  0.6949  0.3814
 4947TIP3   OH214804   4.211   4.827   2.767 -0.1105 -0.0141  0.4886
 4947TIP3    H114805   4.304   4.809   2.782 -0.0962  0.5023  1.0613
 4947TIP3    H214806   4.194   4.796   2.678  0.5022 -0.5251  0.5480
 4948TIP3   OH214807   0.017   2.460   4.367  0.2789  0.0309 -0.4607
 4948TIP3    H114808   0.083   2.509   4.318  1.0494 -1.4024 -0.9098
 4948TIP3    H214809   0.019   2.498   4.454  0.1560  1.4321 -1.0328
 4949TIP3   OH214810   0.877   1.227   5.600 -0.2331 -0.3991 -0.4810
 4949TIP3    H114811   0.818   1.266   5.665 -1.3595  1.1382 -2.3049
 4949TIP3    H214812   0.961   1.269   5.616 -0.2360 -0.7482  0.5557
 4950TIP3   OH214813   6.428   1.415   3.430 -0.2845 -0.4754  0.0091
 4950TIP3    H114814   6.466   1.347   3.485  0.6852 -0.1080 -0.1915
 4950TIP3    H214815   6.377   1.470   3.490 -1.2775 -1.5039  0.1351
 4951TIP3   OH214816   6.790   2.491   4.436 -0.0252  0.5486  0.1984
 4951TIP3    H114817   6.757   2.416   4.387  1.2192 -0.2170  0.4921
 4951TIP3    H214818   6.759   2.568   4.388  2.1552 -0.1390 -2.5316
 4952TIP3   OH214819   2.804   4.528   0.571  0.0024 -0.1159 -0.2242
 4952TIP3    H114820   2.855   4.608   0.589  1.0550 -0.8907  0.3614
 4952TIP3    H214821   2.728   4.535   0.630  0.2617  0.2895  0.0722
 4953TIP3   OH214822   3.579   4.463   1.563 -0.2114  0.6774 -0.3527
 4953TIP3    H114823   3.484   4.474   1.567 -0.1435  1.4213 -0.6080
 4953TIP3    H214824   3.602   4.423   1.647 -0.9300 -1.0764 -0.9421
 4954TIP3   OH214825   4.484   2.041   3.532 -0.1058  0.0705 -0.5055
 4954TIP3    H114826   4.560   2.055   3.588 -0.4262 -1.0049  0.2354
 4954TIP3    H214827   4.408   2.054   3.589 -0.4853  0.7861 -1.1499
 4955TIP3   OH214828   0.448   0.223   4.485 -0.2859  0.3223  0.4754
 4955TIP3    H114829   0.379   0.238   4.550 -0.4859  1.0109  0.1236
 4955TIP3    H214830   0.414   0.263   4.405  0.8303  1.3528  0.4853
 4956TIP3   OH214831   6.912   0.816   0.781 -0.8062  0.1489 -0.0076
 4956TIP3    H114832   6.998   0.781   0.756  0.8655  2.2527  2.2899
 4956TIP3    H214833   6.893   0.775   0.866 -0.4692  2.0785  1.0422
 4957TIP3   OH214834   5.920   5.982   3.637 -0.1408 -0.4569 -0.4142
 4957TIP3    H114835   5.854   5.939   3.582 -0.7373 -0.6796  0.4363
 4957TIP3    H214836   5.946   5.914   3.700 -0.5653  0.2009  0.5011
 4958TIP3   OH214837   1.633   3.680   0.128 -0.1855 -0.1623  0.1903
 4958TIP3    H114838   1.705   3.743   0.125 -1.1506  0.9374 -1.0364
 4958TIP3    H214839   1.600   3.686   0.218 -0.9848  1.9995 -0.1853
 4959TIP3   OH214840   0.101   0.239   5.604 -0.1028 -0.3800  0.0942
 4959TIP3    H114841   0.021   0.285   5.628 -0.7582 -1.5609  0.2345
 4959TIP3    H214842   0.081   0.198   5.520 -0.2590 -2.0767  0.9115
 4960TIP3   OH214843   5.486   0.215   3.618 -0.4070 -0.7533 -0.4386
 4960TIP3    H114844   5.453   0.126   3.618  0.9872 -1.3127 -1.6394
 4960TIP3    H214845   5.519   0.228   3.529  2.3264 -0.1654  0.5840
 4961TIP3   OH214846   5.581   3.924   2.290 -0.0569  0.1883  0.0797
 4961TIP3    H114847   5.534   3.903   2.370  0.4545 -0.0462  0.3276
 4961TIP3    H214848   5.660   3.870   2.295  1.2398  2.0677  0.6514
 4962TIP3   OH214849   1.390   3.903   2.650  0.4157  0.0728  0.3013
 4962TIP3    H114850   1.432   3.988   2.660 -0.7764  0.7337 -0.0237
 4962TIP3    H214851   1.362   3.901   2.558 -0.3673 -0.2776  0.5360
 4963TIP3   OH214852   1.137   2.988   5.722  0.0066 -0.1124 -0.5877
 4963TIP3    H114853   1.179   2.944   5.796 -0.1899 -0.8492 -0.8964
 4963TIP3    H214854   1.110   2.916   5.664  0.6654  0.4812 -1.6524
 4964TIP3   OH214855   3.046   6.743   2.454  0.1468  0.7602 -0.4488
 4964TIP3    H114856   3.118   6.702   2.407 -0.9335 -0.3416 -1.2180
 4964TIP3    H214857   3.014   6.674   2.513 -1.0188  0.8135 -0.9924
 4965TIP3   OH214858   1.219   3.607   0.561  0.6648 -0.5905 -0.3604
 4965TIP3    H114859   1.190   3.559   0.639  0.4311  0.3024  0.1101
 4965TIP3    H214860   1.311   3.627   0.578  0.7986 -0.9803 -0.6157
 4966TIP3   OH214861   0.161   4.821   1.988  0.1056 -0.1367  0.4468
 4966TIP3    H114862   0.165   4.739   2.037  0.7460 -1.1451 -1.2377
 4966TIP3    H214863   0.106   4.878   2.042  2.0188 -0.6392  3.1194
 4967TIP3   OH214864   2.095   6.635   4.843  0.4106 -0.7313 -0.1977
 4967TIP3    H114865   2.162   6.661   4.780  0.3952 -0.2876 -0.0364
 4967TIP3    H214866   2.144   6.607   4.920  0.4045  0.3100  0.1963
 4968TIP3   OH214867   1.129   5.113   0.256 -0.5378 -0.0244  0.4190
 4968TIP3    H114868   1.078   5.155   0.325 -1.8787 -0.8445 -0.0424
 4968TIP3    H214869   1.075   5.121   0.177  0.3055 -0.4115 -0.2141
 4969TIP3   OH214870   0.517   2.622   1.741  0.2793  0.1902  0.6294
 4969TIP3    H114871   0.467   2.574   1.675  1.1715  3.0510 -2.3516
 4969TIP3    H214872   0.452   2.645   1.807 -0.5948 -2.9573  1.0620
 4970TIP3   OH214873   1.542   1.992   0.646 -0.4705  0.7007 -0.4155
 4970TIP3    H114874   1.586   1.919   0.690 -0.9306  0.3856 -0.4629
 4970TIP3    H214875   1.450   1.984   0.673 -0.6215  0.9463 -0.8414
 4971TIP3   OH214876   3.958   6.617   4.753 -0.1616 -0.5933 -0.1672
 4971TIP3    H114877   3.986   6.560   4.681 -0.4086 -1.1185  0.1462
 4971TIP3    H214878   4.031   6.677   4.765 -0.4544  0.0570 -1.4172
 4972TIP3   OH214879   2.045   5.737   2.202  0.3482 -0.3627  0.2048
 4972TIP3    H114880   2.133   5.720   2.169  0.4308 -0.4300  0.4577
 4972TIP3    H214881   1.989   5.678   2.152  0.5299 -0.7981  0.5053
 4973TIP3   OH214882   6.176   1.089   5.391 -0.5759  0.7662 -0.5291
 4973TIP3    H114883   6.221   1.169   5.420 -0.3209  0.4648 -0.0732
 4973TIP3    H214884   6.199   1.080   5.299 -0.5198  1.1609 -0.5550
 4974TIP3   OH214885   5.770   1.640   1.601  0.0618  0.7692  0.3091
 4974TIP3    H114886   5.720   1.710   1.558 -0.9705  0.5881  1.1897
 4974TIP3    H214887   5.781   1.670   1.691  0.1323  0.0596  0.5408
 4975TIP3   OH214888   3.195   1.385   3.242  0.1325 -0.1956  0.0262
 4975TIP3    H114889   3.246   1.372   3.162 -1.5273 -1.4596 -0.8869
 4975TIP3    H214890   3.259   1.375   3.313  1.3252 -0.7924 -1.0931
 4976TIP3   OH214891   5.949   5.691   4.116  0.4281  0.2734 -0.1751
 4976TIP3    H114892   5.865   5.730   4.142  0.7056  0.3112  0.6704
 4976TIP3    H214893   5.941   5.599   4.139  0.2816  0.0871 -0.9420
 4977TIP3   OH214894   3.998   3.202   5.139 -0.3963 -0.1309  0.3779
 4977TIP3    H114895   4.030   3.293   5.136 -0.2151 -0.1913  0.4789
 4977TIP3    H214896   3.949   3.192   5.058  0.9694 -0.4607 -0.4328
 4978TIP3   OH214897   1.840   5.191   1.925 -0.1920 -0.0511  0.3365
 4978TIP3    H114898   1.820   5.143   1.845  1.6713  0.8162 -0.7023
 4978TIP3    H214899   1.928   5.161   1.950  0.1192  1.2168  0.8568
 4979TIP3   OH214900   6.953   3.959   0.124  0.1389  0.0792  0.4655
 4979TIP3    H114901   6.925   3.870   0.103  1.2697 -0.5135  1.3913
 4979TIP3    H214902   6.883   4.014   0.090 -1.1045 -1.2227  0.7991
 4980TIP3   OH214903   1.604   0.697   2.394 -0.4547  0.3472 -0.0497
 4980TIP3    H114904   1.652   0.622   2.360  0.5247  0.5059  0.9204
 4980TIP3    H214905   1.638   0.710   2.482 -0.7487  1.8045 -0.1138
 4981TIP3   OH214906   7.060   5.300   2.773 -0.6101 -0.6199 -0.3474
 4981TIP3    H114907   6.991   5.239   2.749 -0.3843 -1.0834  0.1554
 4981TIP3    H214908   7.027   5.344   2.852 -0.9047  0.1396 -0.8826
 4982TIP3   OH214909   4.315   2.050   3.852  0.3939  0.1940  0.4812
 4982TIP3    H114910   4.255   2.122   3.833 -0.1860  0.1803  2.0824
 4982TIP3    H214911   4.398   2.093   3.873 -0.2060  0.5288  2.4135
 4983TIP3   OH214912   6.965   2.100   0.005  0.1454 -0.2966  0.1442
 4983TIP3    H114913   6.954   2.194  -0.003  0.6897 -0.2464 -0.0320
 4983TIP3    H214914   6.879   2.068   0.036 -1.7528 -0.3363 -4.3902
 4984TIP3   OH214915   2.302   2.909   1.163  0.0445 -0.0183 -0.4533
 4984TIP3    H114916   2.338   2.912   1.252  0.3711 -0.7266 -0.5523
 4984TIP3    H214917   2.350   2.976   1.115 -0.4710  0.6997  0.0216
 4985TIP3   OH214918   1.961   1.265   1.350  0.0723 -0.1915  0.0440
 4985TIP3    H114919   1.904   1.209   1.298 -0.9215  0.2352  0.6569
 4985TIP3    H214920   1.996   1.208   1.418  0.2945 -0.4241 -0.2626
 4986TIP3   OH214921   2.683   6.459   0.563 -0.1363  0.2798  0.0061
 4986TIP3    H114922   2.659   6.448   0.471  2.0085  2.2130 -0.8762
 4986TIP3    H214923   2.759   6.401   0.575  1.7505  2.5034 -0.4974
 4987TIP3   OH214924   6.460   2.608   3.885 -0.1145  0.3357  0.1015
 4987TIP3    H114925   6.543   2.595   3.931 -1.3188 -0.3777  2.1952
 4987TIP3    H214926   6.395   2.567   3.941 -1.7390 -0.3817 -2.1789
 4988TIP3   OH214927   3.110   2.533   3.124  0.2565  0.5374  0.2684
 4988TIP3    H114928   3.032   2.513   3.073  1.1097 -0.4369 -0.7073
 4988TIP3    H214929   3.136   2.449   3.162  0.9789  0.8024  0.3722
 4989TIP3   OH214930   6.084   1.560   0.007  0.5302 -0.0938  0.6914
 4989TIP3    H114931   6.172   1.552  -0.032  0.2430 -0.8153  0.1498
 4989TIP3    H214932   6.089   1.507   0.086  0.8277  0.5711  1.1281
 4990TIP3   OH214933   0.757   4.860   4.174  0.2765 -0.7921  0.0800
 4990TIP3    H114934   0.677   4.807   4.173 -0.0237 -0.3434 -0.9597
 4990TIP3    H214935   0.828   4.796   4.190 -0.4266 -0.8920  3.8041
 4991TIP3   OH214936   1.461   1.092   0.159  0.1467  0.3448 -0.0030
 4991TIP3    H114937   1.382   1.094   0.212  0.7801 -0.2334  1.0063
 4991TIP3    H214938   1.468   1.180   0.122 -0.5953  0.6067  0.4569
 4992TIP3   OH214939   5.934   3.108   0.366 -0.4017 -0.0933  0.8287
 4992TIP3    H114940   6.012   3.075   0.410 -1.2669 -2.0813  1.0173
 4992TIP3    H214941   5.862   3.057   0.404 -1.4170 -0.5229 -1.4884
 4993TIP3   OH214942   6.582   2.294   3.515  0.4302  0.3793  0.0140
 4993TIP3    H114943   6.520   2.338   3.573 -0.0194 -1.2853  0.8339
 4993TIP3    H214944   6.543   2.302   3.428 -0.5240  0.0878  0.4042
 4994TIP3   OH214945   1.029   6.420   3.730 -0.0635  0.3014 -0.6985
 4994TIP3    H114946   1.057   6.465   3.650 -0.8479 -0.3519 -1.3500
 4994TIP3    H214947   0.933   6.423   3.727 -0.1403  1.9418  1.1777
 4995TIP3   OH214948   7.218   4.754   2.497  0.1501 -0.0997 -0.1479
 4995TIP3    H114949   7.146   4.691   2.497  0.3531 -0.3680 -1.8110
 4995TIP3    H214950   7.199   4.812   2.571 -1.1946 -0.7988  0.0856
 4996TIP3   OH214951   5.494   3.404   4.737 -0.4050 -0.1401 -0.0489
 4996TIP3    H114952   5.554   3.407   4.812 -0.3956  3.3299 -0.0205
 4996TIP3    H214953   5.416   3.450   4.767 -1.3162 -0.6973 -1.4857
 4997TIP3   OH214954   6.647   1.855   5.459  0.6184 -0.5559 -0.2019
 4997TIP3    H114955   6.712   1.916   5.495  1.8100 -2.5074  1.1363
 4997TIP3    H214956   6.631   1.792   5.529 -1.4651 -1.1407 -1.1183
 4998TIP3   OH214957   5.077   3.350   0.760  0.6617  0.4311  0.2222
 4998TIP3    H114958   5.103   3.333   0.851 -1.2121 -1.5062  0.4741
 4998TIP3    H214959   5.007   3.287   0.743  0.5573  1.1503 -2.4034
 4999TIP3   OH214960   7.169   3.595   3.839  0.0851  1.0280  0.1727
 4999TIP3    H114961   7.189   3.658   3.908  0.3884  0.8988  0.2022
 4999TIP3    H214962   7.177   3.645   3.758  0.1550  1.0702  0.2056
 5000TIP3   OH214963   3.698   5.197   2.563  0.1621  0.0701 -0.2876
 5000TIP3    H114964   3.704   5.103   2.543  0.0145 -0.3478  1.4322
 5000TIP3    H214965   3.650   5.234   2.490 -0.6823 -1.3830 -0.5126
 5001TIP3   OH214966   2.426   1.889   4.876 -0.0808 -0.2794  0.4912
 5001TIP3    H114967   2.344   1.897   4.925  0.0622 -0.0807  0.6969
 5001TIP3    H214968   2.417   1.950   4.804 -0.2009 -0.4117  0.3930
 5002TIP3   OH214969   4.332   4.932   4.256  0.7386 -0.0871  0.0174
 5002TIP3    H114970   4.329   5.024   4.283  0.5722 -0.7706  2.5607
 5002TIP3    H214971   4.363   4.885   4.333  0.0410 -2.2768 -0.9569
 5003TIP3   OH214972   2.384   1.837   0.795 -0.2083  0.4594  1.0074
 5003TIP3    H114973   2.403   1.898   0.866 -0.3401  1.2733  0.3700
 5003TIP3    H214974   2.289   1.826   0.797 -0.0719 -0.7581  1.9237
 5004TIP3   OH214975   1.239   5.832   0.414 -0.4370 -0.3517 -0.5839
 5004TIP3    H114976   1.306   5.775   0.375  0.4264 -0.8163  1.4435
 5004TIP3    H214977   1.276   5.920   0.406 -0.0582 -0.4915 -0.3927
 5005TIP3   OH214978   1.626   1.447   2.888  0.2517  0.2422  0.0274
 5005TIP3    H114979   1.649   1.501   2.965 -1.4961  0.7541  0.2442
 5005TIP3    H214980   1.557   1.497   2.845 -1.4297 -1.7972  0.2152
 5006TIP3   OH214981   3.266   2.221   1.495 -0.2791  0.4527  0.0919
 5006TIP3    H114982   3.323   2.148   1.522  0.4154  0.3245 -1.5650
 5006TIP3    H214983   3.241   2.199   1.405 -3.3193  0.3230  0.8792
 5007TIP3   OH214984   1.759  -0.006   2.350 -0.6990  0.0607  0.1639
 5007TIP3    H114985   1.759   0.052   2.426  0.0807  0.4236 -0.0971
 5007TIP3    H214986   1.688   0.027   2.295 -1.5504 -0.4693  0.9157
 5008TIP3   OH214987   3.598   0.424   4.538  0.0320  0.0543 -0.0770
 5008TIP3    H114988   3.537   0.432   4.464  0.4753 -0.5653 -0.5179
 5008TIP3    H214989   3.670   0.483   4.515 -0.7803  1.4656  0.8565
 5009TIP3   OH214990   1.707   2.339   3.884 -0.7227  0.7769 -0.1363
 5009TIP3    H114991   1.720   2.339   3.979 -0.4409  0.2466 -0.1713
 5009TIP3    H214992   1.648   2.265   3.869 -0.8849  0.9532 -0.3577
 5010TIP3   OH214993   3.191   4.062   0.123  0.0642  0.1697  0.3378
 5010TIP3    H114994   3.150   4.072   0.208 -0.5344  0.3032  0.0354
 5010TIP3    H214995   3.266   4.121   0.125  0.2935 -0.1358  0.9184
 5011TIP3   OH214996   3.398   1.135   1.293 -0.5577  0.2544 -0.3390
 5011TIP3    H114997   3.356   1.221   1.286 -2.6277 -0.7195 -0.6431
 5011TIP3    H214998   3.359   1.083   1.223  0.8862 -0.8572 -0.3607
 5012TIP3   OH214999   2.547   1.032   2.829  0.1334 -0.7723  0.0913
 5012TIP3    H115000   2.599   1.003   2.904  0.4158 -0.7543 -0.0952
 5012TIP3    H215001   2.470   1.073   2.868 -0.8099 -2.6698  0.3839
 5013TIP3   OH215002   6.004   0.746   3.940  0.0965 -0.2036 -0.0292
 5013TIP3    H115003   6.069   0.817   3.950 -0.3676  0.5703 -2.1047
 5013TIP3    H215004   5.926   0.779   3.984  0.5883 -0.4793  1.1031
 5014TIP3   OH215005   0.836   2.008   3.284  1.4684 -0.1964  0.2415
 5014TIP3    H115006   0.872   2.090   3.316  1.9204 -0.0593 -0.5947
 5014TIP3    H215007   0.881   1.940   3.335  1.8491  0.0371  0.2177
 5015TIP3   OH215008   5.239   2.000   4.565 -0.1377 -0.9235 -0.4627
 5015TIP3    H115009   5.312   2.037   4.516 -0.1205 -0.0464  0.2100
 5015TIP3    H215010   5.176   2.072   4.573 -0.3052 -1.1666  0.4800
 5016TIP3   OH215011   1.230   0.405   2.786 -0.1002 -0.3013 -0.7042
 5016TIP3    H115012   1.304   0.460   2.812 -2.2586  1.4161  2.3990
 5016TIP3    H215013   1.252   0.317   2.818  0.2161  0.3953  1.0622
 5017TIP3   OH215014   3.738   2.251   0.569 -0.2143  0.2158 -0.1217
 5017TIP3    H115015   3.666   2.190   0.586 -0.0437  0.1190  0.2770
 5017TIP3    H215016   3.774   2.271   0.656  0.2266  0.2731 -0.3115
 5018TIP3   OH215017   0.659   1.369   1.948  0.2719 -0.6437  0.2302
 5018TIP3    H115018   0.709   1.392   2.026 -0.9346 -0.7171  1.0509
 5018TIP3    H215019   0.568   1.390   1.970  0.0667  0.7687 -1.7054
 5019TIP3   OH215020   0.057   4.158   5.295 -0.1087 -0.2287  0.6061
 5019TIP3    H115021   0.101   4.243   5.294 -0.4969  0.0061 -1.4785
 5019TIP3    H215022   0.116   4.100   5.246  0.0870 -1.1583  1.8886
 5020TIP3   OH215023   1.651   5.668   4.157  0.4109 -0.0673  0.4787
 5020TIP3    H115024   1.591   5.716   4.214  0.9398 -0.3696  1.3058
 5020TIP3    H215025   1.735   5.714   4.166  0.6017 -0.3676  0.2600
 5021TIP3   OH215026   1.191   4.063   4.734  0.1941 -0.0076  0.1809
 5021TIP3    H115027   1.144   3.981   4.716  1.0369 -0.5294  0.3266
 5021TIP3    H215028   1.267   4.036   4.785  0.1885  0.9384  0.6968
 5022TIP3   OH215029   1.688   4.676   3.913  0.3678  0.0608  0.5436
 5022TIP3    H115030   1.622   4.698   3.848  1.2981 -1.1981 -0.8999
 5022TIP3    H215031   1.739   4.605   3.873 -0.1270 -2.0681  3.3356
 5023TIP3   OH215032   6.787   1.573   4.262 -0.1144 -0.2973 -0.4658
 5023TIP3    H115033   6.711   1.615   4.302  0.0589 -0.6169  0.2072
 5023TIP3    H215034   6.781   1.596   4.169  0.2876  1.6998 -0.0353
 5024TIP3   OH215035   7.157   3.173   3.704 -0.1549  0.5587  0.1657
 5024TIP3    H115036   7.137   3.080   3.707  0.3894  0.3956 -0.7371
 5024TIP3    H215037   7.122   3.202   3.620  0.0563  1.0741  0.2498
 5025TIP3   OH215038   0.818   2.695   5.240 -0.6550  0.1305  0.3223
 5025TIP3    H115039   0.909   2.689   5.210 -0.4784 -1.2618  1.0135
 5025TIP3    H215040   0.767   2.712   5.161  0.0486 -0.8271 -0.3602
 5026TIP3   OH215041   0.939   1.290   4.216 -0.1075 -0.5347 -0.6853
 5026TIP3    H115042   1.002   1.324   4.153 -0.2726 -0.5545 -0.8622
 5026TIP3    H215043   0.922   1.200   4.188 -0.5171 -0.4010 -0.8749
 5027TIP3   OH215044   1.794   5.403   3.468  0.0020  0.1813 -0.2946
 5027TIP3    H115045   1.844   5.480   3.439  0.8567  0.1953  1.1250
 5027TIP3    H215046   1.709   5.411   3.425  0.1026  1.8874 -0.2240
 5028TIP3   OH215047   5.719   4.710   4.249  0.3295  0.0152  0.0984
 5028TIP3    H115048   5.730   4.686   4.157  1.4615  2.4112 -0.5017
 5028TIP3    H215049   5.681   4.633   4.290 -0.3775 -1.0826 -2.4005
 5029TIP3   OH215050   0.438   1.322   2.511 -0.1427  0.2727 -0.3376
 5029TIP3    H115051   0.429   1.232   2.544 -1.8653  0.5643  0.1061
 5029TIP3    H215052   0.361   1.368   2.546  0.7879  1.9772 -0.4086
 5030TIP3   OH215053   2.813   1.732   2.587  0.1235 -0.2909 -0.1730
 5030TIP3    H115054   2.821   1.763   2.678  0.6492 -0.5154 -0.1419
 5030TIP3    H215055   2.768   1.648   2.594 -0.0387 -0.2040 -0.1446
 5031TIP3   OH215056   2.188   0.722   3.944 -0.7245 -0.0406 -0.4100
 5031TIP3    H115057   2.100   0.724   3.906 -0.6588 -0.0503 -0.5601
 5031TIP3    H215058   2.182   0.779   4.021 -1.2095 -1.0259  0.3094
 5032TIP3   OH215059   3.012   3.090   0.999 -0.1040  0.4464 -0.2555
 5032TIP3    H115060   2.928   3.049   1.020 -0.3720 -0.9534 -3.4917
 5032TIP3    H215061   3.074   3.051   1.061 -1.4645 -0.0275  0.8537
 5033TIP3   OH215062   3.115   2.152   4.460 -0.3309 -0.1470 -0.2447
 5033TIP3    H115063   3.103   2.201   4.379 -0.7154  0.1534 -0.0126
 5033TIP3    H215064   3.026   2.138   4.493 -0.3349 -2.0807 -0.9243
 5034TIP3   OH215065   5.074   1.850   4.014  0.2442 -0.1771 -0.4760
 5034TIP3    H115066   5.011   1.917   4.040  0.9471  0.4811 -0.4384
 5034TIP3    H215067   5.141   1.898   3.964  2.0913 -0.3826  1.6562
 5035TIP3   OH215068   2.126   6.784   5.593 -0.2567 -0.0864  0.2912
 5035TIP3    H115069   2.210   6.758   5.631 -1.0448 -0.1765  2.0580
 5035TIP3    H215070   2.094   6.706   5.548  1.4393  0.4763 -2.1312
 5036TIP3   OH215071   3.569   3.990   4.140  0.1949 -0.3421  0.2619
 5036TIP3    H115072   3.659   3.964   4.122  0.0802  0.0798 -1.0440
 5036TIP3    H215073   3.568   4.085   4.127 -0.5294 -0.4016 -0.2224
 5037TIP3   OH215074   2.194   5.428   4.187  0.4198 -0.3303 -0.4240
 5037TIP3    H115075   2.116   5.474   4.217 -0.9485 -1.2625 -2.3458
 5037TIP3    H215076   2.226   5.382   4.264  0.1352  1.4779  0.8294
 5038TIP3   OH215077   4.416   5.733   2.205  0.4192 -0.1813 -0.1821
 5038TIP3    H115078   4.434   5.794   2.133  1.8964 -0.4716 -0.0907
 5038TIP3    H215079   4.397   5.789   2.280 -0.5097  0.1290 -0.6279
 5039TIP3   OH215080   2.168   3.710   0.626  0.0057 -0.4865 -0.3259
 5039TIP3    H115081   2.105   3.689   0.557  2.2798 -0.5308 -2.5491
 5039TIP3    H215082   2.162   3.805   0.636  0.6288 -0.2657 -1.7166
 5040TIP3   OH215083   0.417   3.056   3.288  0.4814 -0.8211 -0.4210
 5040TIP3    H115084   0.441   3.089   3.374  1.8269 -1.0836 -0.6667
 5040TIP3    H215085   0.496   3.069   3.235  0.0055 -1.5703 -1.3439
 5041TIP3   OH215086   6.288   5.395   1.728  0.1912  0.0825 -0.5371
 5041TIP3    H115087   6.262   5.472   1.677  1.6500 -0.6472 -2.5110
 5041TIP3    H215088   6.234   5.324   1.692 -0.2757 -0.0708  0.4331
 5042TIP3   OH215089   4.683   3.309   0.078 -0.1365  0.1849 -0.0079
 5042TIP3    H115090   4.702   3.261   0.159 -1.6118  0.8519  0.7937
 5042TIP3    H215091   4.768   3.321   0.036  0.7772  0.4303  1.8145
 5043TIP3   OH215092   4.803   0.254   1.635 -0.5890 -0.0118  0.2434
 5043TIP3    H115093   4.766   0.218   1.716 -0.4481  0.5514  0.5648
 5043TIP3    H215094   4.864   0.321   1.665  0.5631 -0.8015 -0.2883
 5044TIP3   OH215095   2.686   2.982   3.008  0.6050  0.1279 -0.1562
 5044TIP3    H115096   2.719   2.893   2.992  1.0912  0.3961 -0.6650
 5044TIP3    H215097   2.705   3.030   2.928  0.6959  0.7986  0.2569
 5045TIP3   OH215098   3.852   3.210   4.914  0.0100  0.4898 -0.0095
 5045TIP3    H115099   3.761   3.182   4.906 -0.2653  1.3150  0.1134
 5045TIP3    H215100   3.873   3.251   4.830  0.6058 -0.6184 -0.4168
 5046TIP3   OH215101   1.559   2.459   3.692  0.0047 -0.3277 -0.4730
 5046TIP3    H115102   1.607   2.527   3.643  0.5782 -0.5717 -0.2622
 5046TIP3    H215103   1.625   2.422   3.751  0.0919 -2.0695 -1.5980
 5047TIP3   OH215104   0.013   3.903   4.200 -0.5387 -0.6691  1.1748
 5047TIP3    H115105   0.069   3.894   4.277 -0.4959 -1.3821  1.0674
 5047TIP3    H215106  -0.076   3.908   4.235 -0.3876  0.8771  1.3687
 5048TIP3   OH215107   2.949   3.309   1.654 -0.0944 -0.4790  0.3058
 5048TIP3    H115108   2.977   3.396   1.628  1.3199 -0.9969  0.0137
 5048TIP3    H215109   3.026   3.254   1.641 -1.5770 -2.2727 -1.8777
 5049TIP3   OH215110   5.393   2.402   1.717 -0.2882 -0.0893  0.0949
 5049TIP3    H115111   5.454   2.346   1.765  0.2966  1.0882  0.7846
 5049TIP3    H215112   5.448   2.446   1.652 -0.5826  0.2782  0.0908
 5050TIP3   OH215113   2.173   2.511   0.044  0.2813  0.2058 -0.2903
 5050TIP3    H115114   2.080   2.533   0.041  0.6659  2.7178  1.8654
 5050TIP3    H215115   2.213   2.569  -0.022  0.4034 -0.6438 -0.9896
 5051TIP3   OH215116   2.525   3.543   1.709 -0.0030 -0.3751 -0.3338
 5051TIP3    H115117   2.469   3.620   1.699  0.2383 -0.0895  0.4089
 5051TIP3    H215118   2.475   3.472   1.671 -1.2694 -0.2958  1.0838
 5052TIP3   OH215119   5.672   2.769   3.440 -0.1745 -0.4792  0.1435
 5052TIP3    H115120   5.666   2.733   3.352 -1.7065  0.3175 -0.0987
 5052TIP3    H215121   5.650   2.696   3.498 -4.5114  0.1663 -0.3870
 5053TIP3   OH215122   3.597   3.330   4.148  0.3439 -0.1672  0.0984
 5053TIP3    H115123   3.526   3.282   4.107  0.9276  0.5405 -1.8679
 5053TIP3    H215124   3.557   3.412   4.178  0.0284 -0.4510  0.4686
 5054TIP3   OH215125   2.038   6.290   4.853  0.3540  0.2884  0.0571
 5054TIP3    H115126   1.976   6.359   4.876 -0.0846 -0.3970  1.0133
 5054TIP3    H215127   2.086   6.273   4.934  1.2751  0.2760 -0.4757
 5055TIP3   OH215128   0.019   3.124   4.516 -0.0130 -0.4227  0.5030
 5055TIP3    H115129   0.071   3.063   4.464 -2.9539 -1.6856 -1.1757
 5055TIP3    H215130   0.075   3.200   4.527  2.3603 -1.8901 -0.6777
 5056TIP3   OH215131   2.822   5.711   3.568 -0.1230 -0.2078  0.6390
 5056TIP3    H115132   2.795   5.773   3.636 -1.4249 -0.5127  0.4308
 5056TIP3    H215133   2.791   5.626   3.599  0.8466 -0.6248  0.4960
 5057TIP3   OH215134   3.503   0.016   4.313 -0.5591 -0.5638  0.1206
 5057TIP3    H115135   3.531   0.055   4.230 -0.0421  0.4861  0.7641
 5057TIP3    H215136   3.553   0.063   4.379 -1.4036 -0.9704  1.0710
 5058TIP3   OH215137   2.189   6.209   5.681  0.4839 -0.4239  0.0805
 5058TIP3    H115138   2.134   6.148   5.730 -0.1302  0.0678  0.0095
 5058TIP3    H215139   2.208   6.280   5.742  2.2344 -1.2563  0.5713
 5059TIP3   OH215140   2.948   6.689   2.914 -0.0085  0.6499 -0.1569
 5059TIP3    H115141   3.026   6.691   2.968  0.2076 -0.0023 -0.4356
 5059TIP3    H215142   2.881   6.650   2.970  0.2666 -0.2095 -0.4165
 5060TIP3   OH215143   5.602   1.506   0.626 -0.0547 -0.8490  0.0372
 5060TIP3    H115144   5.513   1.517   0.594  0.2932  0.1056 -0.6643
 5060TIP3    H215145   5.602   1.420   0.668 -2.3010  0.5787  3.4196
 5061TIP3   OH215146   6.133   4.256   5.020  0.6985  0.3822  0.1854
 5061TIP3    H115147   6.075   4.282   4.949 -2.2114 -0.9826  1.8741
 5061TIP3    H215148   6.178   4.336   5.046  0.7054  1.1918 -2.1355
 5062TIP3   OH215149   6.189   3.443   4.196  0.2877  0.2893 -0.0985
 5062TIP3    H115150   6.282   3.426   4.181  0.6569 -0.9999  3.0038
 5062TIP3    H215151   6.148   3.357   4.194 -0.5687  0.6743  0.1846
 5063TIP3   OH215152   4.516   3.682   3.164  0.3518  0.3514 -0.0303
 5063TIP3    H115153   4.493   3.609   3.221 -1.2789  0.5880 -0.3146
 5063TIP3    H215154   4.492   3.760   3.214 -1.9709  0.5403 -1.3085
 5064TIP3   OH215155   2.749   4.800   3.472 -0.1147  0.4127 -0.1195
 5064TIP3    H115156   2.710   4.782   3.386  0.8583  0.7522 -0.6392
 5064TIP3    H215157   2.787   4.716   3.499 -0.2732  0.3499 -0.0872
 5065TIP3   OH215158   4.132   2.217   4.262 -0.0723  0.1708 -0.6174
 5065TIP3    H115159   4.193   2.246   4.330  0.1282 -1.4470 -0.0465
 5065TIP3    H215160   4.071   2.289   4.252  0.1521  0.6197  0.9915
 5066TIP3   OH215161   0.951   5.460   0.519 -0.4047 -0.0617 -0.3272
 5066TIP3    H115162   0.881   5.436   0.459  0.0815 -0.5880 -0.6853
 5066TIP3    H215163   0.929   5.416   0.601 -0.4437 -0.2949 -0.4643
 5067TIP3   OH215164   2.608   3.042   5.362 -0.6974 -0.0477 -0.1966
 5067TIP3    H115165   2.667   3.089   5.303 -1.7225  1.4307 -0.1029
 5067TIP3    H215166   2.614   3.090   5.445  0.0606 -1.5743  0.6762
 5068TIP3   OH215167   4.922   0.121   4.504 -0.3699  0.2835  0.5264
 5068TIP3    H115168   4.856   0.075   4.453  1.5797 -1.6322 -0.4282
 5068TIP3    H215169   4.907   0.093   4.595 -0.0225 -1.2827  0.1268
 5069TIP3   OH215170   1.233   3.604   4.485 -0.0466 -0.7285 -0.3718
 5069TIP3    H115171   1.223   3.543   4.558 -0.6875 -0.9173 -0.6106
 5069TIP3    H215172   1.227   3.691   4.524 -2.4428 -0.8025 -0.4248
 5070TIP3   OH215173   4.323   4.183   2.239  0.1571 -0.3447 -0.3162
 5070TIP3    H115174   4.408   4.141   2.224 -0.2697 -0.9089 -1.2806
 5070TIP3    H215175   4.302   4.163   2.330  1.3661  0.3993  0.1518
 5071TIP3   OH215176   4.590   6.470   3.318 -0.1639 -0.6593  0.3152
 5071TIP3    H115177   4.638   6.495   3.397  0.5098 -0.3199 -0.1909
 5071TIP3    H215178   4.625   6.385   3.293  1.2181  0.1812 -0.8283
 5072TIP3   OH215179   5.541   1.913   4.861 -0.5169  0.4330 -0.3381
 5072TIP3    H115180   5.612   1.870   4.909  0.6809  1.4345 -1.1284
 5072TIP3    H215181   5.541   2.003   4.894 -1.4684  0.4347 -0.3156
 5073TIP3   OH215182   1.958   4.785   3.710 -1.0861 -0.5889 -0.2905
 5073TIP3    H115183   1.878   4.793   3.762 -1.0096  0.7836 -0.3440
 5073TIP3    H215184   2.015   4.854   3.744  0.4709 -2.1607  0.4043
 5074TIP3   OH215185   4.306   2.995   2.748 -0.3817  0.1098 -0.2626
 5074TIP3    H115186   4.289   3.086   2.721  0.3072 -0.5264 -3.1567
 5074TIP3    H215187   4.221   2.952   2.742 -0.3441  0.1142 -0.8570
 5075TIP3   OH215188   4.020   6.705   1.944  0.1745  0.0196  0.6883
 5075TIP3    H115189   4.046   6.772   1.880 -0.0119 -0.0243  0.5657
 5075TIP3    H215190   4.025   6.622   1.897 -0.7526  0.0654  0.4824
 5076TIP3   OH215191   2.551   4.366   5.455  0.3610  0.1352  0.5811
 5076TIP3    H115192   2.534   4.454   5.491  0.3553 -0.4847  2.1648
 5076TIP3    H215193   2.630   4.377   5.402 -1.0074  1.5980 -1.2834
 5077TIP3   OH215194   1.010   5.843   2.764  0.1522 -0.0179 -0.1865
 5077TIP3    H115195   0.971   5.819   2.848  1.0253 -2.3034 -0.3466
 5077TIP3    H215196   1.041   5.933   2.776 -1.0087  0.2031  1.4398
 5078TIP3   OH215197   1.658   4.529   4.343 -0.0365 -0.0033  0.2575
 5078TIP3    H115198   1.628   4.477   4.417 -2.4483  0.3882 -0.3671
 5078TIP3    H215199   1.608   4.497   4.268  1.3267  0.5530 -0.9475
 5079TIP3   OH215200   0.869   6.267   1.857 -0.2815 -0.0241  0.5152
 5079TIP3    H115201   0.846   6.354   1.890  0.6801  0.1266  0.8365
 5079TIP3    H215202   0.788   6.218   1.859 -1.1169  1.2176 -0.8203
 5080TIP3   OH215203   5.161   1.744   2.897  0.4458  0.1814  0.3607
 5080TIP3    H115204   5.073   1.745   2.935  0.5103  1.5479  0.5487
 5080TIP3    H215205   5.219   1.720   2.969  0.2211 -0.8940  0.1943
 5081TIP3   OH215206   3.401   5.279   4.617  0.1209 -0.3473 -0.0677
 5081TIP3    H115207   3.409   5.283   4.521  1.1085  0.0450  0.0139
 5081TIP3    H215208   3.390   5.370   4.644  1.4194 -0.2820  0.2934
 5082TIP3   OH215209   0.806   1.637   3.276  0.0272 -0.2886 -0.3144
 5082TIP3    H115210   0.733   1.587   3.313  0.7461  0.4157  2.2721
 5082TIP3    H215211   0.877   1.626   3.339  1.1940  1.4356 -1.2430
 5083TIP3   OH215212   4.140   3.690   5.078 -0.6497 -0.4706  0.4176
 5083TIP3    H115213   4.049   3.677   5.050 -0.5014 -0.3387 -0.1345
 5083TIP3    H215214   4.150   3.785   5.083 -0.6728 -0.4915  0.9266
 5084TIP3   OH215215   2.045   1.338   4.379 -0.2677  0.2862  0.5659
 5084TIP3    H115216   2.128   1.382   4.393  0.0030 -0.0780  0.1432
 5084TIP3    H215217   2.057   1.252   4.419 -0.4510  0.2462  0.5346
 5085TIP3   OH215218   6.799   1.037   1.338 -0.1081  0.1736 -0.0381
 5085TIP3    H115219   6.806   1.115   1.283 -0.3891 -0.1769 -0.5914
 5085TIP3    H215220   6.816   1.067   1.427  0.0958  0.8040 -0.2903
 5086TIP3   OH215221   6.694   6.210   5.701 -0.1386 -0.2952 -0.2007
 5086TIP3    H115222   6.655   6.125   5.719 -3.1794  0.7325 -1.3103
 5086TIP3    H215223   6.682   6.223   5.607  0.8325  1.1247 -0.1678
 5087TIP3   OH215224   0.957   4.227   4.826  0.0034  0.4631  0.2234
 5087TIP3    H115225   0.933   4.230   4.918 -0.2306  2.1647  0.1437
 5087TIP3    H215226   1.042   4.185   4.824 -1.3853 -2.6536  0.8437
 5088TIP3   OH215227   3.173   2.997   5.051 -0.7717 -0.0914  0.6352
 5088TIP3    H115228   3.254   3.037   5.019 -1.2816 -0.1240 -0.7771
 5088TIP3    H215229   3.173   3.014   5.145  0.9331 -0.2039  0.6866
 5089TIP3   OH215230   6.669   4.862   3.847  0.3798  0.2235  0.1193
 5089TIP3    H115231   6.583   4.822   3.834  0.6063 -0.2241 -0.0134
 5089TIP3    H215232   6.654   4.929   3.914  0.0296 -0.2021  0.4700
 5090TIP3   OH215233   6.670   2.955   2.056  0.5273  0.1761  0.0505
 5090TIP3    H115234   6.753   2.944   2.102  1.0515  1.4289 -0.5513
 5090TIP3    H215235   6.685   2.915   1.970  0.1814 -0.4486  0.2741
 5091TIP3   OH215236   4.732   0.943   4.872  0.4811 -0.1576  0.4878
 5091TIP3    H115237   4.641   0.918   4.854  0.4642 -0.9583  1.5750
 5091TIP3    H215238   4.755   1.001   4.800 -0.8953  0.0619  0.1858
 5092TIP3   OH215239   2.743   2.682   3.932  0.1912 -0.2847 -0.2153
 5092TIP3    H115240   2.833   2.655   3.910 -0.0954 -2.3279  0.8915
 5092TIP3    H215241   2.690   2.649   3.859  0.1007 -1.0137  0.1643
 5093TIP3   OH215242   2.658   6.434   2.253  0.2345  0.1033 -0.3686
 5093TIP3    H115243   2.664   6.455   2.346 -1.6941  0.8646 -0.3600
 5093TIP3    H215244   2.746   6.448   2.219  0.6178  1.3735  1.0512
 5094TIP3   OH215245   4.823   3.491   5.332  0.6320 -0.0104 -0.8839
 5094TIP3    H115246   4.760   3.553   5.295 -0.0505  0.1326  0.4408
 5094TIP3    H215247   4.904   3.542   5.340  0.2178  0.5777 -0.2838
 5095TIP3   OH215248   4.612   3.661   5.254  0.1550 -0.1554 -0.7185
 5095TIP3    H115249   4.606   3.632   5.162  1.9296 -0.2298 -0.8479
 5095TIP3    H215250   4.529   3.706   5.270  0.5651  1.6361 -2.9862
 5096TIP3   OH215251   2.703   6.208   3.432 -0.1943 -0.2048  0.5033
 5096TIP3    H115252   2.744   6.294   3.425 -0.8816  0.0636 -0.4191
 5096TIP3    H215253   2.774   6.149   3.453  0.3599  0.5188  0.7149
 5097TIP3   OH215254   3.441   6.698   1.887  0.4544 -0.5159 -0.1414
 5097TIP3    H115255   3.470   6.659   1.970  0.9608 -1.6996 -0.8576
 5097TIP3    H215256   3.513   6.754   1.860  0.1057  0.2328  0.4188
 5098TIP3   OH215257   3.747   3.799   0.277 -0.2441 -0.2573 -0.0078
 5098TIP3    H115258   3.686   3.848   0.220 -1.1882 -0.2659  0.9566
 5098TIP3    H215259   3.690   3.759   0.343  0.9416  0.9642  1.8340
 5099TIP3   OH215260   1.954   1.163   4.981 -0.5911 -0.3554  0.3212
 5099TIP3    H115261   1.921   1.094   5.037 -0.7540  1.3851  2.4888
 5099TIP3    H215262   1.924   1.139   4.893 -0.9754 -2.7689  1.0506
 5100TIP3   OH215263   1.765   6.347   0.877  0.4282 -0.1455 -0.2029
 5100TIP3    H115264   1.716   6.352   0.794  0.2172 -0.4076 -0.0963
 5100TIP3    H215265   1.798   6.435   0.890 -0.1339  0.0743 -0.2077
 5101TIP3   OH215266   3.933   0.896   2.153  0.3012  0.4687  0.5311
 5101TIP3    H115267   4.027   0.909   2.159  0.0725  3.3415 -0.4347
 5101TIP3    H215268   3.908   0.856   2.237  2.3247 -0.3032  0.8110
 5102TIP3   OH215269   0.435   2.849   4.002  0.4197  0.1266 -1.0137
 5102TIP3    H115270   0.457   2.847   4.095  0.9059  2.9782 -0.9843
 5102TIP3    H215271   0.344   2.880   3.999  1.2379  2.7886 -1.4457
 5103TIP3   OH215272   3.844   5.335   3.458 -0.2049  0.4477  0.5640
 5103TIP3    H115273   3.919   5.356   3.403 -1.4756  1.8841 -0.7073
 5103TIP3    H215274   3.878   5.275   3.524  1.7205 -0.0751 -0.8431
 5104TIP3   OH215275   0.845   1.351   0.337  0.7110  0.0307  0.2009
 5104TIP3    H115276   0.832   1.330   0.430  1.3244 -1.4448 -0.0145
 5104TIP3    H215277   0.780   1.419   0.318  1.0266  0.8280  1.8596
 5105TIP3   OH215278   4.668   1.553   2.638  0.2319 -0.5692  0.6590
 5105TIP3    H115279   4.656   1.464   2.672  1.9767 -0.6720  1.1158
 5105TIP3    H215280   4.673   1.541   2.543  1.5338 -1.1346  0.7736
 5106TIP3   OH215281   4.266   3.069   4.037  0.2802  0.0080  0.4189
 5106TIP3    H115282   4.187   3.099   4.083 -1.6363 -0.8199 -2.0879
 5106TIP3    H215283   4.326   3.143   4.043 -0.8390  0.8498  2.0459
 5107TIP3   OH215284   0.727   5.723   3.299 -0.0443 -0.5377 -0.4008
 5107TIP3    H115285   0.721   5.766   3.214  0.1238  0.2830 -0.0129
 5107TIP3    H215286   0.791   5.775   3.348  1.3439 -2.1442 -0.4271
 5108TIP3   OH215287   6.748   5.773   1.036  0.3023 -0.0028 -0.4146
 5108TIP3    H115288   6.798   5.754   1.115 -0.2366 -0.6896 -0.2205
 5108TIP3    H215289   6.790   5.850   0.999  0.1455  0.7639  0.9154
 5109TIP3   OH215290   3.726   0.847   1.910 -0.0137 -0.2699  0.0063
 5109TIP3    H115291   3.715   0.792   1.988 -1.0585  0.2092  0.2177
 5109TIP3    H215292   3.644   0.836   1.862  0.1789  0.3051 -0.4624
 5110TIP3   OH215293   1.483   1.724   1.558 -0.0757  0.3863 -0.1330
 5110TIP3    H115294   1.566   1.692   1.523 -0.9686  0.4477 -2.4738
 5110TIP3    H215295   1.432   1.645   1.575 -0.3265  0.4120 -0.7676
 5111TIP3   OH215296   6.577   2.358   4.191  0.6104  0.0735 -0.1135
 5111TIP3    H115297   6.484   2.361   4.169 -0.0984  0.0156  2.4544
 5111TIP3    H215298   6.599   2.265   4.193  0.2937  0.0043  0.6971
 5112TIP3   OH215299   4.939   2.090   5.702  0.1429 -0.2208 -0.0506
 5112TIP3    H115300   4.862   2.143   5.721 -0.2112 -0.7699  0.0645
 5112TIP3    H215301   4.966   2.054   5.786  2.0524  1.9664  0.3587
 5113TIP3   OH215302   4.872   4.295   0.532  0.0709 -0.1013 -0.4192
 5113TIP3    H115303   4.952   4.285   0.584  1.6439 -1.3654 -2.8849
 5113TIP3    H215304   4.902   4.326   0.447 -2.1279 -0.2843 -1.3308
 5114TIP3   OH215305   0.978   0.323   1.209  0.0677  0.3289  0.3653
 5114TIP3    H115306   0.993   0.237   1.248 -0.4382  0.8640  1.7856
 5114TIP3    H215307   1.064   0.365   1.211 -0.3548  1.2553  3.2366
 5115TIP3   OH215308   0.967   5.308   3.444 -0.2508  0.4678  0.0557
 5115TIP3    H115309   0.939   5.369   3.512  0.0292  0.5343  0.1125
 5115TIP3    H215310   0.928   5.342   3.363 -0.5370  0.4197  0.1729
 5116TIP3   OH215311   1.163   0.265   2.186 -0.1226  0.3587 -0.0981
 5116TIP3    H115312   1.176   0.358   2.167 -0.8146  0.5885  0.5182
 5116TIP3    H215313   1.072   0.259   2.216 -0.5674 -0.7400 -1.5300
 5117TIP3   OH215314   2.871   2.046   1.879  0.0562 -0.1867 -0.2811
 5117TIP3    H115315   2.862   2.110   1.949  0.0125  1.0118 -1.3415
 5117TIP3    H215316   2.964   2.024   1.878  0.0750 -0.1276  0.0885
 5118TIP3   OH215317   1.765   3.497   0.927 -0.3855 -0.0804  0.0916
 5118TIP3    H115318   1.675   3.504   0.959 -0.6296  1.3324 -0.8132
 5118TIP3    H215319   1.757   3.463   0.838 -0.0684  0.3258 -0.1000
 5119TIP3   OH215320   1.614   6.791   0.033  0.7691 -0.2894 -0.2569
 5119TIP3    H115321   1.568   6.735   0.095  1.3080 -0.6042 -0.1294
 5119TIP3    H215322   1.545   6.836  -0.016  0.3176  0.5776  1.1042
 5120TIP3   OH215323   5.196   0.758   2.366  0.0825 -0.1124 -0.0485
 5120TIP3    H115324   5.253   0.806   2.427  1.2046 -3.2165  1.5776
 5120TIP3    H215325   5.232   0.669   2.365 -1.9461 -1.0314 -2.7350
 5121TIP3   OH215326   1.387   2.941   0.731  0.2908  0.5251 -1.1048
 5121TIP3    H115327   1.436   3.015   0.766  0.2680 -0.2076  0.5470
 5121TIP3    H215328   1.296   2.957   0.757  0.2793 -0.0663 -0.7669
 5122TIP3   OH215329   5.027   5.098   1.313 -0.1279 -0.3324  0.3354
 5122TIP3    H115330   4.937   5.082   1.287 -0.3318  0.4412  0.5247
 5122TIP3    H215331   5.079   5.078   1.235 -0.7350  2.0695 -0.7784
 5123TIP3   OH215332   6.246   3.011   2.162  0.2986  0.2660 -0.5515
 5123TIP3    H115333   6.332   2.975   2.183  0.3063  0.5775 -0.0236
 5123TIP3    H215334   6.257   3.049   2.075  0.0786 -1.6418 -1.4549
 5124TIP3   OH215335   2.918   0.296   2.668  0.2415  0.2355 -0.2395
 5124TIP3    H115336   2.873   0.287   2.752  2.0360 -0.3125  0.6993
 5124TIP3    H215337   2.935   0.390   2.660  0.2889  0.2583  0.1173
 5125TIP3   OH215338   2.221   0.733   0.734 -0.1744 -0.6035 -0.1535
 5125TIP3    H115339   2.199   0.671   0.804  0.1067  0.4636  0.9234
 5125TIP3    H215340   2.138   0.752   0.691 -0.6653  0.0482  1.0355
 5126TIP3   OH215341   5.777   2.862   3.866 -0.6600  0.2784 -0.7290
 5126TIP3    H115342   5.682   2.874   3.857 -0.9814  0.0073  1.5778
 5126TIP3    H215343   5.815   2.945   3.835 -1.5585  0.1264 -2.3645
 5127TIP3   OH215344   0.926   5.825   1.945  0.1987  0.3046 -0.5056
 5127TIP3    H115345   1.006   5.793   1.902  1.0657 -0.1954  1.3487
 5127TIP3    H215346   0.958   5.869   2.024 -1.2503  2.2992 -0.9759
 5128TIP3   OH215347   7.014   5.143   3.618 -0.9802  0.1173 -0.5039
 5128TIP3    H115348   6.944   5.107   3.673 -0.4590 -1.4091 -0.7816
 5128TIP3    H215349   7.089   5.085   3.633  0.1565  1.5429 -0.4423
 5129TIP3   OH215350   6.879   3.605   0.897  0.6654  0.4309  0.3138
 5129TIP3    H115351   6.813   3.566   0.841  0.9234  0.8840 -0.3149
 5129TIP3    H215352   6.851   3.583   0.986  0.9787 -1.4828 -0.0154
 5130TIP3   OH215353   7.010   2.733   5.412 -0.1726 -0.0399 -0.1494
 5130TIP3    H115354   6.953   2.679   5.357  0.8053 -0.2139 -1.0458
 5130TIP3    H215355   7.086   2.751   5.356  0.2218  0.9598  0.6834
 5131TIP3   OH215356   0.027   0.839   4.559 -0.2768  0.3010 -0.0923
 5131TIP3    H115357   0.034   0.745   4.575 -1.5944  0.6224  3.1597
 5131TIP3    H215358   0.004   0.846   4.467  0.3407 -2.5130 -0.5504
 5132TIP3   OH215359   0.369   2.129   4.734  0.0203  0.4921 -0.1856
 5132TIP3    H115360   0.326   2.048   4.709  0.7900  0.4923 -1.5655
 5132TIP3    H215361   0.427   2.104   4.807 -0.2269 -0.0536 -0.1727
 5133TIP3   OH215362   4.524   5.199   2.345  0.0595  0.0837  0.7249
 5133TIP3    H115363   4.460   5.244   2.290  2.1578 -0.1941 -2.1628
 5133TIP3    H215364   4.481   5.116   2.368 -0.4052 -0.4374 -1.7620
 5134TIP3   OH215365   3.856   1.728   4.131 -0.4877 -0.1399  0.4720
 5134TIP3    H115366   3.940   1.751   4.171 -0.8197  1.0942  0.5125
 5134TIP3    H215367   3.840   1.638   4.159  0.1050  0.1133  1.7176
 5135TIP3   OH215368   7.026   1.099   0.771  0.3534 -0.5031  0.3785
 5135TIP3    H115369   6.990   1.016   0.740  1.6185 -0.4107 -1.4937
 5135TIP3    H215370   7.120   1.083   0.777  0.5629  0.6693  0.4102
 5136TIP3   OH215371   4.016   1.871   0.849 -0.0937 -0.2914  0.5172
 5136TIP3    H115372   4.066   1.790   0.864 -1.0821 -0.8683  0.7927
 5136TIP3    H215373   4.018   1.883   0.754 -0.1610 -0.7979  0.4453
 5137TIP3   OH215374   3.468   2.539   3.323 -0.0853 -0.0176  0.0358
 5137TIP3    H115375   3.512   2.611   3.278 -0.8613  1.1319  1.0568
 5137TIP3    H215376   3.375   2.551   3.302 -0.3530 -0.0197  1.1559
 5138TIP3   OH215377   0.609   1.390   5.746 -0.0470  0.2817 -0.1862
 5138TIP3    H115378   0.515   1.378   5.741  0.0866 -0.4380 -1.4582
 5138TIP3    H215379   0.626   1.419   5.836 -1.6022  1.7028 -0.3136
 5139TIP3   OH215380   4.910   2.013   4.233 -0.3737 -0.4276  0.4137
 5139TIP3    H115381   4.924   1.995   4.325 -1.7816 -1.6402  0.4274
 5139TIP3    H215382   4.838   2.076   4.231  0.1974  0.2309  0.1559
 5140TIP3   OH215383   2.418   5.982   3.665  0.0675 -0.1358  0.0087
 5140TIP3    H115384   2.500   6.022   3.695  1.1429 -3.3575  1.8369
 5140TIP3    H215385   2.379   6.047   3.606  1.4443  3.6181  2.8877
 5141TIP3   OH215386   0.097   2.634   2.491  0.0273 -0.0913  0.3860
 5141TIP3    H115387   0.075   2.681   2.411  0.2831  1.6509  1.2930
 5141TIP3    H215388   0.012   2.614   2.531 -0.0967 -0.8505 -0.2258
 5142TIP3   OH215389   0.595   4.287   5.238 -0.3217 -0.1813  0.2767
 5142TIP3    H115390   0.523   4.278   5.175 -1.2944  1.0722  1.1654
 5142TIP3    H215391   0.558   4.337   5.311  1.1905 -0.3259  1.2015
 5143TIP3   OH215392   0.157   4.121   1.292  0.3428 -0.4376 -0.2267
 5143TIP3    H115393   0.176   4.141   1.384 -3.0048  0.2745  0.4480
 5143TIP3    H215394   0.199   4.192   1.243 -0.1276  0.7474  1.0207
 5144TIP3   OH215395   5.035   6.334   4.344  0.0386 -0.4711 -0.1190
 5144TIP3    H115396   5.038   6.249   4.302  0.6871 -0.2809 -0.4684
 5144TIP3    H215397   5.035   6.397   4.272 -1.9990 -0.1679  0.0687
 5145TIP3   OH215398   6.324   6.671   3.483 -0.5506  0.4832 -0.0603
 5145TIP3    H115399   6.338   6.586   3.441  0.1671  0.5131  0.0970
 5145TIP3    H215400   6.321   6.734   3.411  3.0768  0.8763 -0.0894
 5146TIP3   OH215401   0.334   5.198   2.159  0.3901 -0.1361 -0.0878
 5146TIP3    H115402   0.406   5.205   2.222 -0.6056 -1.0349  1.1870
 5146TIP3    H215403   0.378   5.199   2.074  1.8801 -0.2543  0.6345
 5147TIP3   OH215404   1.795   1.559   5.420  0.2254 -0.4857 -0.2710
 5147TIP3    H115405   1.873   1.510   5.445  0.6434  0.2206 -0.1629
 5147TIP3    H215406   1.793   1.634   5.480 -0.2776 -0.2506 -0.5723
 5148TIP3   OH215407   5.269   6.676   1.868 -0.0222 -0.0947 -0.7053
 5148TIP3    H115408   5.271   6.618   1.944 -1.8322  1.5778  0.7234
 5148TIP3    H215409   5.189   6.652   1.821 -1.0714  1.5145  0.1882
 5149TIP3   OH215410   0.605   5.760   5.374 -0.2486 -0.0343 -0.0287
 5149TIP3    H115411   0.532   5.802   5.420  0.5398  0.6286  0.6533
 5149TIP3    H215412   0.663   5.832   5.350  3.0150 -0.7667  4.3728
 5150TIP3   OH215413   5.989   1.370   1.898  0.2624  0.0761 -0.4553
 5150TIP3    H115414   6.006   1.285   1.939  1.3367  0.1032 -0.8055
 5150TIP3    H215415   6.044   1.370   1.819  1.1472  1.5215  0.1082
 5151TIP3   OH215416   0.701   0.515   3.514 -0.3689  0.1639  0.6547
 5151TIP3    H115417   0.762   0.442   3.501 -1.3893 -0.7093  0.6906
 5151TIP3    H215418   0.668   0.503   3.603 -1.2282  0.1278  0.3369
 5152TIP3   OH215419   3.593   6.016   0.887  0.1775 -0.5083  0.6249
 5152TIP3    H115420   3.616   5.923   0.888 -0.2599 -0.6197  0.6712
 5152TIP3    H215421   3.513   6.021   0.939 -2.0403 -0.7254 -2.4654
 5153TIP3   OH215422   3.555   2.138   3.134 -0.3456  0.2196 -0.2822
 5153TIP3    H115423   3.629   2.180   3.176 -0.0271 -0.0316 -0.5810
 5153TIP3    H215424   3.478   2.181   3.171 -0.1150 -0.5514  1.1808
 5154TIP3   OH215425   2.250   6.357   2.112 -0.5238  0.1362  0.5375
 5154TIP3    H115426   2.162   6.364   2.075 -0.4302 -0.7920  0.0913
 5154TIP3    H215427   2.253   6.268   2.148  0.7552 -0.4632 -0.9173
 5155TIP3   OH215428   6.056   4.283   1.780  0.5376 -0.3679 -0.0071
 5155TIP3    H115429   6.065   4.221   1.708  3.0994  0.5272 -0.5774
 5155TIP3    H215430   6.110   4.246   1.850 -0.9272 -0.6047  1.0358
 5156TIP3   OH215431   1.769   6.371   5.328  0.0927 -0.5997 -0.8424
 5156TIP3    H115432   1.832   6.319   5.377 -0.0047 -0.1500 -0.2348
 5156TIP3    H215433   1.691   6.373   5.383  0.1293  0.2733 -0.8132
 5157TIP3   OH215434   5.351   5.691   0.699  0.3453 -0.0586  0.0839
 5157TIP3    H115435   5.362   5.597   0.709  0.0699 -0.0690  0.2996
 5157TIP3    H215436   5.344   5.704   0.604  2.1654 -0.0441 -0.0934
 5158TIP3   OH215437   5.307   2.208   5.481  0.0757 -0.0484  0.0907
 5158TIP3    H115438   5.321   2.114   5.468  0.2494 -0.1416  0.8710
 5158TIP3    H215439   5.297   2.243   5.393  1.3980 -0.5896 -0.3083
 5159TIP3   OH215440   2.512   2.326   4.211  0.1445  0.1475 -0.0938
 5159TIP3    H115441   2.530   2.401   4.268  1.0174  0.4544 -0.7432
 5159TIP3    H215442   2.589   2.321   4.154  0.5090 -1.8040  0.5191
 5160TIP3   OH215443   1.390   4.308   0.477 -0.1278 -0.0602 -0.8048
 5160TIP3    H115444   1.475   4.309   0.434  0.1579  0.1848 -0.2432
 5160TIP3    H215445   1.346   4.388   0.445  1.1654  1.6786  1.4406
 5161TIP3   OH215446   1.053   2.310   0.455  0.1399  0.1042  0.2778
 5161TIP3    H115447   0.991   2.382   0.469  0.2387 -0.0706  1.7340
 5161TIP3    H215448   0.997   2.233   0.441 -0.0109 -0.0890  1.7766
 5162TIP3   OH215449   4.385   6.778   0.164 -0.3203 -0.0324 -0.1606
 5162TIP3    H115450   4.351   6.689   0.156 -2.1969  0.5093  1.1217
 5162TIP3    H215451   4.360   6.821   0.083 -1.7621  0.0117  0.2671
 5163TIP3   OH215452   5.992   6.326   4.071  0.2119 -0.1004  0.2769
 5163TIP3    H115453   5.991   6.359   4.161 -0.9468 -0.5320  0.4318
 5163TIP3    H215454   6.042   6.244   4.076  0.9512  0.3477  0.3474
 5164TIP3   OH215455   4.921   5.913   2.708  0.1140  0.6500 -0.3028
 5164TIP3    H115456   4.938   5.821   2.685  0.8464  0.2689  1.5419
 5164TIP3    H215457   4.864   5.908   2.785  0.7050  1.7115  0.2317
 5165TIP3   OH215458   6.729   6.683   4.507  0.1400  0.0818 -0.2642
 5165TIP3    H115459   6.823   6.696   4.498  0.4330 -0.5343  1.5512
 5165TIP3    H215460   6.703   6.746   4.574 -0.5401 -0.5544  0.0773
 5166TIP3   OH215461   3.972   2.615   2.742 -0.4752 -0.7841  0.4150
 5166TIP3    H115462   3.988   2.702   2.706 -2.5062  0.0906  1.5102
 5166TIP3    H215463   3.877   2.606   2.746 -0.3683 -1.7657  3.2460
 5167TIP3   OH215464   4.495   6.249   4.016 -0.2202 -0.2322 -0.1376
 5167TIP3    H115465   4.439   6.199   3.957 -0.9057 -0.4944  0.7258
 5167TIP3    H215466   4.577   6.259   3.968 -1.3409  1.1208 -1.9106
 5168TIP3   OH215467   3.027   0.314   3.168 -0.1625 -0.2833  0.3251
 5168TIP3    H115468   3.011   0.348   3.257  0.6569  0.5136  0.1880
 5168TIP3    H215469   3.080   0.235   3.181  0.2268  0.0076  0.5443
 5169TIP3   OH215470   1.195   0.556   0.352 -0.7639 -0.2243  0.4540
 5169TIP3    H115471   1.227   0.520   0.269 -0.3132  1.1369  0.0011
 5169TIP3    H215472   1.269   0.546   0.412 -1.2633 -1.6754  0.8654
 5170TIP3   OH215473   6.798   4.177   4.846  0.6688 -0.2023 -0.0480
 5170TIP3    H115474   6.770   4.086   4.834  0.6383  0.0948 -3.1495
 5170TIP3    H215475   6.720   4.228   4.825  1.4581  0.5297 -1.3426
 5171TIP3   OH215476   5.094   0.269   2.581  0.2759 -0.0426  0.1677
 5171TIP3    H115477   5.163   0.214   2.619 -0.2550  0.1987  1.5444
 5171TIP3    H215478   5.057   0.216   2.511 -0.5666 -1.7049  1.7807
 5172TIP3   OH215479   5.539   4.767   1.763  0.2149  0.3495 -0.2844
 5172TIP3    H115480   5.615   4.719   1.795 -1.7111 -2.8434 -0.0110
 5172TIP3    H215481   5.512   4.821   1.838  1.4736  0.5634  0.0296
 5173TIP3   OH215482   5.352   1.918   2.277 -0.0432 -0.3180  0.3183
 5173TIP3    H115483   5.309   1.924   2.363 -0.1016  0.4268  0.2408
 5173TIP3    H215484   5.286   1.878   2.220 -0.6779  0.8871  0.1837
 5174TIP3   OH215485   5.416   1.320   2.789 -0.3310 -0.5154  0.1706
 5174TIP3    H115486   5.419   1.383   2.717 -0.5308  1.7368  2.0117
 5174TIP3    H215487   5.324   1.319   2.816 -0.9640 -3.8648 -1.5886
 5175TIP3   OH215488   1.622   3.134   3.852 -0.0935  0.4868  0.3795
 5175TIP3    H115489   1.536   3.113   3.888  0.9897 -0.5979  2.4713
 5175TIP3    H215490   1.662   3.050   3.833  0.4024  0.9892 -0.9057
 5176TIP3   OH215491   5.578   6.309   3.112  0.5563  0.0480 -0.1542
 5176TIP3    H115492   5.644   6.297   3.044 -1.5516  0.4138 -2.3895
 5176TIP3    H215493   5.494   6.299   3.067 -1.0233  2.5334  1.9329
 5177TIP3   OH215494   6.774   1.260   4.661 -0.1590  0.0918 -0.7973
 5177TIP3    H115495   6.701   1.205   4.688  0.0162 -1.0843 -2.5845
 5177TIP3    H215496   6.744   1.305   4.583  0.2272  1.4425 -0.2010
 5178TIP3   OH215497   6.627   4.874   4.866 -0.2715 -0.7067 -1.0734
 5178TIP3    H115498   6.585   4.893   4.783  0.9214 -0.7320 -1.7026
 5178TIP3    H215499   6.603   4.948   4.922 -0.2506 -0.1688 -1.7625
 5179TIP3   OH215500   5.002   6.136   1.642  0.1137 -0.6707  0.0413
 5179TIP3    H115501   5.014   6.063   1.703  0.8255 -0.6088 -0.0124
 5179TIP3    H215502   5.091   6.167   1.625 -0.2134  0.4885  0.3915
 5180TIP3   OH215503   3.083   5.917   2.269  0.2159 -0.1333 -0.4481
 5180TIP3    H115504   3.031   5.840   2.245 -2.5314  1.3602  0.3462
 5180TIP3    H215505   3.113   5.899   2.358  1.9433 -1.3916 -1.2302
 5181TIP3   OH215506   6.975   0.641   1.002  0.7044 -0.3478 -0.8672
 5181TIP3    H115507   6.961   0.553   0.967  1.8446 -0.9516  0.1004
 5181TIP3    H215508   6.941   0.637   1.091  1.3693 -0.0265 -0.5888
 5182TIP3   OH215509   0.385   4.165   3.794 -0.4981 -0.2980  0.1170
 5182TIP3    H115510   0.325   4.238   3.785 -2.8120 -2.2984 -2.3183
 5182TIP3    H215511   0.466   4.195   3.753 -1.1808  1.1109 -0.2468
 5183TIP3   OH215512   6.454   1.810   4.014 -0.5058  0.1244  0.2923
 5183TIP3    H115513   6.469   1.738   4.076 -2.2745 -1.1785 -0.7206
 5183TIP3    H215514   6.400   1.772   3.945  0.4435  1.8468 -1.5004
 5184TIP3   OH215515   6.902   1.873   0.725 -0.0932  0.0960  0.4773
 5184TIP3    H115516   6.860   1.949   0.683 -0.3384  0.2564  1.0066
 5184TIP3    H215517   6.979   1.909   0.768  0.2421 -0.0951  0.0466
 5185TIP3   OH215518   7.119   6.193   1.797  0.0784 -0.0930  0.4500
 5185TIP3    H115519   7.059   6.217   1.867 -2.2648 -1.6445 -0.9167
 5185TIP3    H215520   7.196   6.159   1.842 -0.6009  0.6353  2.2604
 5186TIP3   OH215521   3.271   5.977   4.622  0.4462  0.3000  0.1674
 5186TIP3    H115522   3.342   5.913   4.625  0.3439  0.0534 -1.8314
 5186TIP3    H215523   3.269   6.008   4.532 -1.8879  0.4267  0.1921
 5187TIP3   OH215524   1.160   4.671   4.831 -0.2147 -0.0972  0.1944
 5187TIP3    H115525   1.146   4.713   4.916 -1.4034  0.4220 -0.2349
 5187TIP3    H215526   1.243   4.623   4.841  0.7622  1.6447  0.9816
 5188TIP3   OH215527   2.881   0.520   2.970  0.3085 -0.2121  0.1921
 5188TIP3    H115528   2.884   0.433   2.931  1.0975 -0.6866  1.2605
 5188TIP3    H215529   2.972   0.547   2.976  0.0387  0.9059 -0.5700
 5189TIP3   OH215530   3.385   5.735   2.333  0.2301 -0.1075 -0.1948
 5189TIP3    H115531   3.332   5.804   2.372 -0.4252 -1.2309  0.9846
 5189TIP3    H215532   3.458   5.723   2.393  1.6856  1.1673 -1.6171
 5190TIP3   OH215533   7.142   1.702   4.148 -0.6668 -0.3199 -0.1281
 5190TIP3    H115534   7.078   1.773   4.145  0.3946  0.7527  1.4554
 5190TIP3    H215535   7.099   1.633   4.199 -0.5291  0.4577  1.0678
 5191TIP3   OH215536   0.797   4.082   0.420  0.3697  0.2618  0.1046
 5191TIP3    H115537   0.879   4.032   0.423 -0.2079 -0.7860 -0.6942
 5191TIP3    H215538   0.787   4.105   0.328 -1.0078 -1.0058 -0.0976
 5192TIP3   OH215539   6.073   5.681   0.865 -0.0693 -0.0836  0.4960
 5192TIP3    H115540   6.014   5.675   0.940 -0.5196 -0.8366  0.0967
 5192TIP3    H215541   6.097   5.590   0.846  1.7081  0.2388  1.0032
 5193TIP3   OH215542   1.643   2.028   1.339 -0.1656  0.5045 -0.1793
 5193TIP3    H115543   1.577   1.990   1.280 -1.3145  0.9669  0.7654
 5193TIP3    H215544   1.725   1.985   1.314 -0.9889 -0.8018 -0.7654
 5194TIP3   OH215545   4.287   2.740   2.867 -0.2802  0.4061  0.0936
 5194TIP3    H115546   4.268   2.672   2.802  1.7132 -1.0954  0.9734
 5194TIP3    H215547   4.333   2.808   2.818 -0.6611  0.2701 -0.4621
 5195TIP3   OH215548   3.751   1.805   1.476 -0.0426  0.3615  0.3087
 5195TIP3    H115549   3.665   1.772   1.498  0.6384 -0.3775  2.0112
 5195TIP3    H215550   3.768   1.873   1.542  1.5897 -1.1228  1.5148
 5196TIP3   OH215551   0.102   2.667   3.845  0.3122 -0.2740 -0.0693
 5196TIP3    H115552   0.042   2.621   3.787 -1.4474  1.1938  0.5024
 5196TIP3    H215553   0.159   2.599   3.881 -0.8927 -1.6889 -0.7736
 5197TIP3   OH215554   5.248   2.696   2.164 -0.1377 -0.1219 -0.0747
 5197TIP3    H115555   5.253   2.788   2.138 -0.7179  0.7007  2.4447
 5197TIP3    H215556   5.335   2.660   2.144  0.1268  0.9762 -1.0016
 5198TIP3   OH215557   0.446   4.544   1.121 -0.0209  0.1371 -0.3102
 5198TIP3    H115558   0.375   4.487   1.091  0.0187  0.0138 -0.1711
 5198TIP3    H215559   0.512   4.538   1.052  0.8420 -1.5340  0.5961
 5199TIP3   OH215560   1.145   2.947   5.378 -0.0597  0.5883  0.3805
 5199TIP3    H115561   1.109   2.878   5.434  0.2957  0.1647  0.0922
 5199TIP3    H215562   1.230   2.968   5.417 -0.4032  1.2585  0.7894
 5200TIP3   OH215563   5.079   1.933   5.033  0.2055 -0.5113  0.0967
 5200TIP3    H115564   5.011   1.925   4.966  1.4226 -0.4143 -1.1915
 5200TIP3    H215565   5.099   2.027   5.036 -0.3549 -0.4089  1.1524
 5201TIP3   OH215566   5.442   6.669   4.246  0.4234  0.6263  0.1983
 5201TIP3    H115567   5.376   6.599   4.243  0.9313  0.1901 -1.3184
 5201TIP3    H215568   5.404   6.740   4.195  1.6937 -0.1830 -2.0100
 5202TIP3   OH215569   1.139   4.410   1.228 -0.3193  0.2191  0.6532
 5202TIP3    H115570   1.229   4.423   1.258  0.6371 -2.5535 -0.6557
 5202TIP3    H215571   1.091   4.385   1.307  0.9977 -1.9678  0.8611
 5203TIP3   OH215572   4.586   5.954   1.311  0.0887  0.4700  0.4005
 5203TIP3    H115573   4.664   5.971   1.364 -0.6688 -2.4289  2.7103
 5203TIP3    H215574   4.616   5.892   1.245 -0.0836  0.0216  0.7447
 5204TIP3   OH215575   6.401   5.947   3.456  0.5251  0.2267  0.0514
 5204TIP3    H115576   6.471   5.992   3.503  1.1552 -1.2210  0.5770
 5204TIP3    H215577   6.432   5.943   3.365  1.6080 -1.2010  0.4379
 5205TIP3   OH215578   6.370   4.983   1.659  0.0688  0.1211 -0.4951
 5205TIP3    H115579   6.311   4.995   1.584  1.9782  1.6876 -1.8531
 5205TIP3    H215580   6.444   4.934   1.625  0.4373 -0.1930  0.6951
 5206TIP3   OH215581   2.305   6.318   3.037 -0.2785 -0.1156 -0.0179
 5206TIP3    H115582   2.376   6.254   3.050 -0.8947 -0.5263  1.5512
 5206TIP3    H215583   2.339   6.378   2.971  1.0592 -0.9940 -0.1737
 5207TIP3   OH215584   5.924   0.214   4.937  0.1276 -0.1258  0.3140
 5207TIP3    H115585   5.888   0.272   5.005  1.6293  1.5776 -0.2450
 5207TIP3    H215586   6.017   0.208   4.958  0.1997 -1.4790 -0.2972
 5208TIP3   OH215587   0.994   1.161   0.189  0.7069  0.0256  0.2548
 5208TIP3    H115588   0.962   1.179   0.101  1.1022  1.7420  0.4315
 5208TIP3    H215589   0.948   1.223   0.245  2.0297  0.4140  0.9447
 5209TIP3   OH215590   2.590   4.278   3.539  0.0636  0.0708  0.4210
 5209TIP3    H115591   2.558   4.257   3.451  1.2950  0.5594 -0.1773
 5209TIP3    H215592   2.546   4.216   3.597  0.6862 -1.5716 -0.7917
 5210TIP3   OH215593   1.810   0.318   0.484 -0.4582  0.3296  0.5906
 5210TIP3    H115594   1.728   0.293   0.526 -0.7257  1.4875  0.7894
 5210TIP3    H215595   1.877   0.307   0.553 -0.3920 -0.8107  0.3682
 5211TIP3   OH215596   6.158   0.394   2.783 -0.3088 -0.3056 -0.0725
 5211TIP3    H115597   6.086   0.333   2.799  1.1873 -1.6150  2.3121
 5211TIP3    H215598   6.229   0.363   2.840  1.7806  1.5636 -1.4795
 5212TIP3   OH215599   5.777   0.595   2.544 -0.0972 -0.1535 -0.3592
 5212TIP3    H115600   5.788   0.607   2.638  0.9736 -3.1499  0.0156
 5212TIP3    H215601   5.838   0.657   2.505  2.2714 -1.3972  1.1252
 5213TIP3   OH215602   3.935   3.036   2.954  0.4397  0.1826  0.1170
 5213TIP3    H115603   3.867   3.051   2.888  1.5803  1.0288 -0.9192
 5213TIP3    H215604   3.931   2.942   2.970  0.3755 -0.1184 -1.4680
 5214TIP3   OH215605   1.029   1.912   3.871 -0.0131  0.1177  0.6627
 5214TIP3    H115606   1.025   1.844   3.939  0.6279 -0.5121  0.0878
 5214TIP3    H215607   0.979   1.875   3.798  0.6709  0.0873  0.2010
 5215TIP3   OH215608   3.750   6.300   1.845  0.4569  0.1042 -0.0092
 5215TIP3    H115609   3.721   6.215   1.810  1.2423  0.9355 -3.0005
 5215TIP3    H215610   3.724   6.363   1.777  1.9941  1.9338  1.0303
 5216TIP3   OH215611   3.548   4.537   5.027  0.1257 -0.4456 -0.0708
 5216TIP3    H115612   3.571   4.626   5.055  0.3896 -0.8843  1.2057
 5216TIP3    H215613   3.532   4.545   4.933 -0.2889  1.0332  0.0856
 5217TIP3   OH215614   1.169   1.445   0.636 -0.0575  0.0523  0.1224
 5217TIP3    H115615   1.239   1.449   0.701 -1.6514  0.0574  1.9383
 5217TIP3    H215616   1.123   1.363   0.655  0.2954 -0.7077 -2.0014
 5218TIP3   OH215617   3.295   5.303   3.934  0.2610  0.5453  0.1167
 5218TIP3    H115618   3.209   5.313   3.892 -0.1503 -0.2004  0.7352
 5218TIP3    H215619   3.354   5.358   3.883 -0.6921  1.4987  0.0008
 5219TIP3   OH215620   5.224   5.034   1.158  0.2231  0.0751 -0.0189
 5219TIP3    H115621   5.243   4.980   1.081 -0.9585  0.0494 -0.2975
 5219TIP3    H215622   5.254   4.981   1.232 -1.5342 -1.3008 -0.2295
 5220TIP3   OH215623   6.512   5.236   1.713 -1.2639  0.5085  0.0239
 5220TIP3    H115624   6.438   5.296   1.719 -1.6269  0.0769 -0.0919
 5220TIP3    H215625   6.472   5.150   1.702 -0.7745  0.1393  0.9928
 5221TIP3   OH215626   1.160   0.096   0.456  0.5516 -0.6479 -1.1810
 5221TIP3    H115627   1.241   0.101   0.405  0.2010 -2.9605 -2.0618
 5221TIP3    H215628   1.108   0.029   0.412 -1.8680  0.7295 -0.6296
 5222TIP3   OH215629   2.672   2.974   1.616 -0.2300 -0.3027  0.2302
 5222TIP3    H115630   2.634   2.938   1.536  0.1809  0.4288 -0.3023
 5222TIP3    H215631   2.675   2.900   1.676 -1.3794 -0.6500 -0.1180
 5223TIP3   OH215632   1.923   4.018   2.594  0.1025 -0.2255  0.4904
 5223TIP3    H115633   2.010   3.978   2.604  0.6859  1.1950  1.3111
 5223TIP3    H215634   1.863   3.956   2.637  0.9258 -0.4650  1.3292
 5224TIP3   OH215635   1.057   5.633   0.197  0.5071 -0.5337 -0.1886
 5224TIP3    H115636   1.099   5.720   0.200  0.6744 -0.6244  0.1431
 5224TIP3    H215637   0.997   5.638   0.123  1.5785 -0.6062 -1.0907
 5225TIP3   OH215638   6.679   3.934   4.530  0.1640 -0.3117  0.6987
 5225TIP3    H115639   6.662   3.875   4.457  2.6833  0.6427 -0.7981
 5225TIP3    H215640   6.679   4.021   4.490  1.6779  0.2302  1.7775
 5226TIP3   OH215641   4.572   6.496   5.722 -0.5565 -0.1149  0.5857
 5226TIP3    H115642   4.499   6.545   5.683 -0.0033 -1.3144 -2.2387
 5226TIP3    H215643   4.535   6.411   5.744  0.0731 -1.0889 -1.7817
 5227TIP3   OH215644   1.532   6.701   3.026 -0.3669 -0.0829  0.1828
 5227TIP3    H115645   1.602   6.766   3.020  0.1862 -0.6629  0.2197
 5227TIP3    H215646   1.550   6.641   2.953 -0.4505 -0.5986  0.5863
 5228TIP3   OH215647   5.694   0.972   5.268 -0.2633 -0.8384 -0.0108
 5228TIP3    H115648   5.718   1.047   5.213  1.0664 -1.2494 -0.0069
 5228TIP3    H215649   5.627   1.007   5.327 -0.1980  0.1564 -0.5071
 5229TIP3   OH215650   5.595   2.560   1.267 -0.3597 -0.4624  0.1634
 5229TIP3    H115651   5.587   2.551   1.172 -1.8595 -0.4971  0.2764
 5229TIP3    H215652   5.530   2.626   1.291  0.7901  0.3986  1.0519
 5230TIP3   OH215653   5.278   6.180   1.603 -0.1203  0.0419 -0.0933
 5230TIP3    H115654   5.305   6.249   1.664 -1.8018  1.0309 -0.4029
 5230TIP3    H215655   5.350   6.172   1.542 -0.2299  2.1705 -0.5631
 5231TIP3   OH215656   2.789   0.527   3.297  0.0421 -0.4500 -0.2036
 5231TIP3    H115657   2.862   0.508   3.357 -0.3008 -0.9861  0.0493
 5231TIP3    H215658   2.810   0.477   3.218 -0.0088 -0.5283 -0.1668
 5232TIP3   OH215659   4.149   2.820   1.004  1.0528  0.6397 -0.2830
 5232TIP3    H115660   4.094   2.854   1.074  0.3203 -1.1297  0.0672
 5232TIP3    H215661   4.156   2.892   0.941 -1.1191  1.1556 -0.0137
 5233TIP3   OH215662   5.279   4.651   3.691 -0.3261  0.2320 -0.0882
 5233TIP3    H115663   5.288   4.565   3.650 -3.3575 -0.3599  0.2029
 5233TIP3    H215664   5.334   4.647   3.769 -0.6166 -1.5671  0.0534
 5234TIP3   OH215665   0.236   1.045   2.000  0.0448 -0.3080 -0.3133
 5234TIP3    H115666   0.158   1.084   1.959 -1.1636 -1.4132  0.8298
 5234TIP3    H215667   0.304   1.053   1.934 -1.3899 -0.5089 -1.9004
 5235TIP3   OH215668   5.719   1.738   5.039 -0.5982  0.2333  0.1084
 5235TIP3    H115669   5.755   1.672   4.980  1.0199  0.3093  0.9727
 5235TIP3    H215670   5.646   1.693   5.083 -0.4964 -0.4696 -0.4285
 5236TIP3   OH215671   4.743   3.414   1.884  0.5530 -0.3193 -0.3164
 5236TIP3    H115672   4.667   3.356   1.874  0.8009 -0.6726 -0.1254
 5236TIP3    H215673   4.718   3.473   1.955  0.2178 -0.0552 -0.6474
 5237TIP3   OH215674   6.789   5.718   0.715  0.5735 -0.2175  0.3389
 5237TIP3    H115675   6.729   5.792   0.713  3.9634  2.8041 -1.8679
 5237TIP3    H215676   6.759   5.660   0.646  0.4191  1.5099 -1.0968
 5238TIP3   OH215677   2.340   3.680   2.962  0.2508 -0.2242 -0.0617
 5238TIP3    H115678   2.286   3.645   2.891 -1.6419  2.8520 -0.2984
 5238TIP3    H215679   2.316   3.627   3.039  1.7302 -3.0536 -1.3956
 5239TIP3   OH215680   1.072   1.971   5.718 -0.0767  0.0167 -0.6849
 5239TIP3    H115681   1.085   2.046   5.659 -0.0851 -1.1278 -2.2088
 5239TIP3    H215682   0.979   1.950   5.710 -0.3173  0.5176  0.6073
 5240TIP3   OH215683   3.848   6.556   5.732 -0.1581  0.4664 -0.1482
 5240TIP3    H115684   3.940   6.582   5.737 -0.4900  1.3911  1.5714
 5240TIP3    H215685   3.851   6.462   5.713  1.0785  0.9153 -2.7360
 5241TIP3   OH215686   1.492   6.653   5.729  0.2195 -0.6745 -0.4234
 5241TIP3    H115687   1.449   6.713   5.790 -0.0156  0.5081 -1.7142
 5241TIP3    H215688   1.421   6.599   5.694 -0.3248  1.3333 -2.6170
 5242TIP3   OH215689   7.021   1.896   0.426 -0.1234 -0.2668  0.3662
 5242TIP3    H115690   7.105   1.908   0.470  0.5937  0.4409 -1.1394
 5242TIP3    H215691   6.989   1.984   0.410  1.5629 -0.2065 -4.0078
 5243TIP3   OH215692   5.821   2.986   4.787 -0.1732  0.0058  0.1157
 5243TIP3    H115693   5.732   2.951   4.789  0.0839 -0.9472 -1.7720
 5243TIP3    H215694   5.811   3.079   4.805 -1.6397  0.0325 -0.6646
 5244TIP3   OH215695   5.098   5.039   0.396 -0.1044  0.7462  0.2451
 5244TIP3    H115696   5.138   4.964   0.353  1.2769  0.4458  1.9140
 5244TIP3    H215697   5.046   5.081   0.328 -1.5362 -2.0987 -0.5653
 5245TIP3   OH215698   2.081   1.050   4.411 -0.0470  0.6135  0.1057
 5245TIP3    H115699   2.145   1.048   4.482 -0.4042 -1.2195  0.4223
 5245TIP3    H215700   2.113   0.988   4.346 -1.4013 -0.2392  0.2060
 5246TIP3   OH215701   2.226   1.872   2.880  0.0211 -0.5047 -0.5473
 5246TIP3    H115702   2.246   1.779   2.866  0.2553 -0.7723  1.2111
 5246TIP3    H215703   2.134   1.873   2.907 -0.7196  0.0805 -2.9115
 5247TIP3   OH215704   3.810   5.939   1.242 -0.4843  0.5420  0.8161
 5247TIP3    H115705   3.830   5.925   1.335 -0.2658  0.4826  0.7593
 5247TIP3    H215706   3.714   5.936   1.238 -0.4668 -0.8309  0.8228
 5248TIP3   OH215707   2.929   6.018   5.794 -0.4572  0.7044 -0.0428
 5248TIP3    H115708   2.851   6.068   5.819  0.0461  1.8634 -0.7181
 5248TIP3    H215709   2.899   5.960   5.724 -0.4009  2.2732 -1.4136
 5249TIP3   OH215710   4.257   5.168   5.391  0.1135 -0.6107 -0.0840
 5249TIP3    H115711   4.244   5.121   5.309 -1.7400  1.6263 -1.1627
 5249TIP3    H215712   4.319   5.113   5.440  0.1140 -2.7690 -2.3092
 5250TIP3   OH215713   3.082   3.953   1.349  0.5153 -0.5056 -0.2579
 5250TIP3    H115714   3.030   3.873   1.344  0.8580 -0.7674  0.2240
 5250TIP3    H215715   3.028   4.014   1.399 -0.7329  0.3725 -2.5598
 5251TIP3   OH215716   2.120   4.874   5.006  0.1367  0.5013  0.0891
 5251TIP3    H115717   2.065   4.952   5.001 -0.0240  0.3667 -0.3408
 5251TIP3    H215718   2.062   4.806   5.041  0.4963  0.7624  1.2253
 5252TIP3   OH215719   6.623   2.166   5.375  0.0227 -0.2617  0.0561
 5252TIP3    H115720   6.716   2.144   5.370 -0.1157 -0.6725 -1.1042
 5252TIP3    H215721   6.609   2.193   5.465  0.9363 -1.7267  0.6724
 5253TIP3   OH215722   5.447   6.138   0.656  0.1476  0.1999 -0.6620
 5253TIP3    H115723   5.357   6.105   0.661  1.1133 -2.6438  0.3577
 5253TIP3    H215724   5.448   6.214   0.714 -1.4021 -0.3178  0.1062
 5254TIP3   OH215725   4.244   0.491   3.628  0.1403  0.2024 -0.0180
 5254TIP3    H115726   4.214   0.434   3.699  0.7730  1.1432  1.0371
 5254TIP3    H215727   4.166   0.508   3.575 -0.3762 -0.3509  0.5570
 5255TIP3   OH215728   5.358   6.009   0.917 -0.3144 -0.2223 -0.7145
 5255TIP3    H115729   5.425   5.977   0.857  0.0510 -0.6117 -0.1082
 5255TIP3    H215730   5.284   5.949   0.904 -0.1948 -0.3749 -0.6927
 5256TIP3   OH215731   6.968   5.885   3.059 -0.2721 -0.3932  0.1536
 5256TIP3    H115732   6.982   5.942   2.984  0.1888  0.5300  0.9197
 5256TIP3    H215733   6.873   5.887   3.073 -0.1512  1.5003  1.1198
 5257TIP3   OH215734   5.164   1.647   1.305 -0.0713  1.2503  0.5042
 5257TIP3    H115735   5.115   1.676   1.228  2.6575  0.7684 -1.6019
 5257TIP3    H215736   5.165   1.552   1.298 -1.1090  1.0782  2.1104
 5258TIP3   OH215737   4.910   1.839   1.282 -0.2354  0.2288  0.5771
 5258TIP3    H115738   4.854   1.874   1.213  0.3023 -1.3195 -0.7128
 5258TIP3    H215739   4.856   1.774   1.326  0.1312 -0.4028  0.1162
 5259TIP3   OH215740   5.998   4.541   5.225 -0.0116 -0.1006  0.7133
 5259TIP3    H115741   5.935   4.579   5.286 -0.6903 -2.0241  1.2811
 5259TIP3    H215742   5.991   4.596   5.147 -0.2401  1.4754  1.7846
 5260TIP3   OH215743   4.267   4.148   2.526 -0.0116  0.6587  0.2838
 5260TIP3    H115744   4.197   4.103   2.573  1.1392 -1.5730  0.0043
 5260TIP3    H215745   4.283   4.228   2.577 -2.3714  0.9935  0.6179
 5261TIP3   OH215746   1.560   1.292   1.842 -0.3972 -0.0263  0.0216
 5261TIP3    H115747   1.583   1.324   1.929 -0.0869 -1.1686  0.3790
 5261TIP3    H215748   1.643   1.291   1.795 -0.6331  1.0004 -0.4416
 5262TIP3   OH215749   2.998   3.051   4.165 -0.3652  0.1711 -0.4022
 5262TIP3    H115750   2.928   3.030   4.227  1.1014 -0.5483  1.0858
 5262TIP3    H215751   3.022   2.966   4.127  0.9579  0.1134  0.5177
 5263TIP3   OH215752   2.623   2.219   0.150 -0.2690  0.6201 -0.2591
 5263TIP3    H115753   2.613   2.246   0.059  1.2411 -1.9598 -1.3091
 5263TIP3    H215754   2.606   2.298   0.201  1.3065  2.8114 -2.8718
 5264TIP3   OH215755   0.948   3.076   3.697  0.5314  0.1774 -0.6370
 5264TIP3    H115756   1.007   3.068   3.772 -0.1145  0.2681 -0.1075
 5264TIP3    H215757   0.927   3.169   3.693  1.5994  0.3943 -1.7552
 5265TIP3   OH215758   0.599   6.268   4.034  0.0921  0.0200  0.1702
 5265TIP3    H115759   0.507   6.245   4.047  0.4357 -1.1616  0.6157
 5265TIP3    H215760   0.610   6.351   4.081 -0.8227  0.3748 -0.2195
 5266TIP3   OH215761   2.231   1.403   3.293 -0.6007  0.2474  0.2259
 5266TIP3    H115762   2.259   1.313   3.280 -2.2456 -0.1901 -0.4051
 5266TIP3    H215763   2.164   1.418   3.227 -0.9024  1.6969  0.8164
 5267TIP3   OH215764   1.505   5.155   4.472 -0.4519  0.0431  0.4953
 5267TIP3    H115765   1.580   5.128   4.525  0.4568 -0.0252 -0.7804
 5267TIP3    H215766   1.440   5.086   4.485 -0.1684 -0.0686  1.3625
 5268TIP3   OH215767   1.011   2.635   2.228 -0.0061  0.4375  0.0011
 5268TIP3    H115768   1.013   2.666   2.318  2.8100 -0.5249  0.3693
 5268TIP3    H215769   0.931   2.583   2.222 -0.5485  1.0023  1.7441
 5269TIP3   OH215770   1.802   3.458   1.595 -0.6305 -0.2971  0.4104
 5269TIP3    H115771   1.757   3.376   1.616 -1.8855 -0.0122 -1.0026
 5269TIP3    H215772   1.748   3.526   1.636 -0.2936 -0.0837  0.5057
 5270TIP3   OH215773   6.961   0.733   3.716  0.2730  0.6290  1.2476
 5270TIP3    H115774   6.995   0.760   3.801  1.3356  2.8885  0.2221
 5270TIP3    H215775   6.868   0.755   3.719  0.0239 -0.4919  2.2294
 5271TIP3   OH215776   3.069   0.565   5.518 -0.5339 -0.3993 -0.1899
 5271TIP3    H115777   3.040   0.538   5.605 -2.0335 -2.2238 -1.1625
 5271TIP3    H215778   3.163   0.547   5.517 -0.2621  0.7507  1.3946
 5272TIP3   OH215779   7.010   2.593   4.232 -0.1451  0.0357 -0.4111
 5272TIP3    H115780   6.935   2.534   4.232 -0.6722  0.6820  0.1769
 5272TIP3    H215781   7.081   2.542   4.272 -0.5828 -0.2157  0.0581
 5273TIP3   OH215782   6.964   5.033   3.884  0.5532  0.2999 -0.5909
 5273TIP3    H115783   6.912   4.954   3.899 -2.3515  1.9893 -0.9348
 5273TIP3    H215784   7.046   5.018   3.932 -0.1678 -2.6042 -0.1147
 5274TIP3   OH215785   1.939   3.904   4.725  0.3775  0.3517  0.1626
 5274TIP3    H115786   1.872   3.885   4.791  0.4986 -0.3320  0.0966
 5274TIP3    H215787   2.022   3.890   4.771  0.4657  0.4307  0.0254
 5275TIP3   OH215788   4.667   1.177   2.394  0.0293  0.2509  0.2417
 5275TIP3    H115789   4.577   1.190   2.365 -0.1418 -1.7923 -0.2826
 5275TIP3    H215790   4.716   1.156   2.314  0.7463  0.2772  0.6647
 5276TIP3   OH215791   3.344   4.076   1.450  0.1309 -0.6439  0.1260
 5276TIP3    H115792   3.298   4.151   1.488  0.6237 -0.7635  0.9821
 5276TIP3    H215793   3.276   4.009   1.440  0.1399 -0.8998  1.5919
 5277TIP3   OH215794   4.283   1.045   3.765 -0.1826 -0.2960 -0.4103
 5277TIP3    H115795   4.259   1.081   3.850  1.6744 -2.7207  1.2636
 5277TIP3    H215796   4.312   1.121   3.715 -2.5188  1.3794  0.5886
 5278TIP3   OH215797   6.440   2.745   2.440  0.2747  0.1303  0.0721
 5278TIP3    H115798   6.447   2.789   2.355 -1.6854 -1.5455 -1.0388
 5278TIP3    H215799   6.383   2.670   2.424  0.7289 -0.8783  2.6500
 5279TIP3   OH215800   5.822   2.335   1.252  0.5012  0.6880 -0.0507
 5279TIP3    H115801   5.857   2.289   1.329 -1.0670  0.1468  0.3658
 5279TIP3    H215802   5.837   2.428   1.271  0.9908  0.5099  0.4709
 5280TIP3   OH215803   3.642   6.096   1.668  0.4852  0.4566  0.1424
 5280TIP3    H115804   3.582   6.021   1.664  0.4804  0.3757  1.3370
 5280TIP3    H215805   3.606   6.159   1.604 -0.1129 -0.1242 -0.1044
 5281TIP3   OH215806   6.048   2.146   3.471  0.1927 -0.0863  0.6858
 5281TIP3    H115807   6.120   2.208   3.484 -0.5581  1.4738 -1.9336
 5281TIP3    H215808   5.970   2.193   3.499 -0.2623 -0.2027 -0.3381
 5282TIP3   OH215809   4.830   0.399   5.055  1.1596  0.1159  0.0431
 5282TIP3    H115810   4.802   0.396   5.146  0.8382  2.1286  0.0580
 5282TIP3    H215811   4.871   0.485   5.045  1.6931 -0.2825 -1.5742
 5283TIP3   OH215812   0.791   0.972   5.172 -0.3218  0.1788 -0.1284
 5283TIP3    H115813   0.708   0.982   5.124 -0.6446 -0.7932  0.1883
 5283TIP3    H215814   0.806   1.057   5.212 -1.8800  0.0069  0.9022
 5284TIP3   OH215815   0.619   1.467   3.346 -0.3377  0.1047 -0.1665
 5284TIP3    H115816   0.632   1.386   3.297 -0.8887 -0.3296  0.3890
 5284TIP3    H215817   0.613   1.439   3.438  2.5910  1.0734  0.4328
 5285TIP3   OH215818   6.125   2.697   0.238  0.1362 -0.1548 -0.3917
 5285TIP3    H115819   6.129   2.778   0.188 -3.3518  0.5311  0.1929
 5285TIP3    H215820   6.034   2.668   0.230  0.8812 -3.1598  0.7543
 5286TIP3   OH215821   1.061   4.431   4.215  0.2807  0.4582 -0.4325
 5286TIP3    H115822   1.008   4.375   4.272  2.6162 -1.0439  0.3909
 5286TIP3    H215823   1.055   4.391   4.129  0.8550 -0.2875 -0.1321
 5287TIP3   OH215824   6.708   1.738   2.583 -0.3875 -0.1350  0.0731
 5287TIP3    H115825   6.798   1.736   2.551 -1.3305  1.1452 -2.9400
 5287TIP3    H215826   6.701   1.660   2.639  2.3220 -0.7268 -0.2783
 5288TIP3   OH215827   3.044   0.493   0.751 -0.0436 -0.4768  0.1312
 5288TIP3    H115828   3.117   0.432   0.767 -0.6710 -0.7674  2.1298
 5288TIP3    H215829   3.084   0.580   0.760 -0.0955 -0.6271  2.3395
 5289TIP3   OH215830   0.620   6.739   1.767 -0.2227  0.6300 -0.0989
 5289TIP3    H115831   0.687   6.786   1.719  0.5627  0.0860  0.4346
 5289TIP3    H215832   0.609   6.788   1.849  1.9859 -1.0629  1.3374
 5290TIP3   OH215833   3.694   2.690   3.457  0.0684  0.3759  0.0906
 5290TIP3    H115834   3.674   2.596   3.456  0.7419  0.2174 -0.8769
 5290TIP3    H215835   3.665   2.721   3.371  0.8767  0.8125 -0.0377
 5291TIP3   OH215836   3.829   5.367   0.043 -0.5548  0.5355  0.2703
 5291TIP3    H115837   3.752   5.421   0.026 -0.6507  0.5547  0.7512
 5291TIP3    H215838   3.893   5.428   0.079 -0.0328  0.6757 -0.8531
 5292TIP3   OH215839   6.246   4.776   5.105 -0.3604  0.6597  0.9087
 5292TIP3    H115840   6.154   4.752   5.114  0.1175 -1.1907  1.3924
 5292TIP3    H215841   6.245   4.866   5.073 -2.3961 -0.4522 -2.7266
 5293TIP3   OH215842   6.275   5.856   4.704  0.0885  0.2116  0.0999
 5293TIP3    H115843   6.364   5.822   4.709 -0.2857 -1.1765 -1.7681
 5293TIP3    H215844   6.266   5.887   4.614 -1.0914  1.0479  0.4758
 5294TIP3   OH215845   4.797   0.377   5.350  0.1759  0.3086 -0.4010
 5294TIP3    H115846   4.802   0.470   5.374 -1.3877  0.9350 -2.1859
 5294TIP3    H215847   4.841   0.331   5.421 -1.3476  2.2160  1.9596
 5295TIP3   OH215848   6.552   4.961   2.711  0.1421  0.3508 -0.0840
 5295TIP3    H115849   6.581   4.925   2.795 -0.3458 -0.7119 -0.3504
 5295TIP3    H215850   6.628   5.009   2.677  1.0891 -1.0872 -0.0739
 5296TIP3   OH215851   5.916   3.373   4.294 -0.3836 -0.2208 -0.0149
 5296TIP3    H115852   5.979   3.303   4.308 -0.5724 -0.4534 -0.3307
 5296TIP3    H215853   5.904   3.377   4.199  0.1260  0.6803 -0.0608
 5297TIP3   OH215854   5.832   4.986   5.512  0.7291 -0.1233  0.1559
 5297TIP3    H115855   5.914   5.023   5.481  0.4029  1.2881  0.8953
 5297TIP3    H215856   5.840   4.985   5.608 -0.4557  0.9407  0.3003
 5298TIP3   OH215857   5.876   3.831   2.855 -0.2426  0.6476  0.3553
 5298TIP3    H115858   5.895   3.819   2.948  0.1635  1.2279  0.3486
 5298TIP3    H215859   5.929   3.765   2.811 -0.8334  0.0195  0.5633
 5299TIP3   OH215860   2.224   3.966   0.942  1.2666  0.4382 -0.4265
 5299TIP3    H115861   2.172   4.010   1.009  2.0532  1.2315 -0.3178
 5299TIP3    H215862   2.190   4.001   0.859  0.9220  0.1565 -0.4071
 5300TIP3   OH215863   1.780   6.464   0.176 -0.2515 -0.3679  0.1526
 5300TIP3    H115864   1.787   6.453   0.271 -0.6735 -2.8853 -0.0602
 5300TIP3    H215865   1.737   6.385   0.145  5.1488 -2.7372 -2.7760
 5301TIP3   OH215866   0.554   6.674   3.206 -0.3254 -0.1888  0.1636
 5301TIP3    H115867   0.542   6.585   3.239 -0.0673  0.0090  0.7978
 5301TIP3    H215868   0.515   6.730   3.272 -1.0269  0.1449 -0.5218
 5302TIP3   OH215869   1.041   4.316   4.554 -0.0825 -0.0956 -0.0872
 5302TIP3    H115870   0.988   4.308   4.633 -0.7151 -0.5375 -0.5421
 5302TIP3    H215871   0.982   4.289   4.483  0.5215  0.1399 -0.6901
 5303TIP3   OH215872   4.375   1.458   0.170  0.3805 -0.2546  0.5599
 5303TIP3    H115873   4.410   1.523   0.231  1.9175  0.8370 -1.3710
 5303TIP3    H215874   4.449   1.400   0.151 -0.1135 -0.6695 -0.1451
 5304TIP3   OH215875   4.073   0.190   5.692  0.3444 -0.3123  0.1473
 5304TIP3    H115876   4.143   0.148   5.641 -0.8336 -0.7786 -1.1420
 5304TIP3    H215877   3.993   0.151   5.659 -0.7822  2.4820 -0.6409
 5305TIP3   OH215878   4.181   0.802   4.642 -0.2194 -0.4508 -0.2824
 5305TIP3    H115879   4.107   0.854   4.612  0.3496  0.2087 -0.5757
 5305TIP3    H215880   4.223   0.770   4.562  0.1109 -0.3806 -0.1421
 5306TIP3   OH215881   1.523   4.789   2.540 -0.2834  0.2796 -0.5501
 5306TIP3    H115882   1.577   4.840   2.599 -1.4213  0.4259  0.3990
 5306TIP3    H215883   1.538   4.828   2.454  1.1359  0.2684 -0.3233
 5307TIP3   OH215884   5.030   0.888   2.060 -0.1277 -0.1457  0.2127
 5307TIP3    H115885   5.012   0.952   1.991 -0.8170 -0.9610 -0.3926
 5307TIP3    H215886   5.118   0.908   2.089 -1.1824  2.6984  1.8227
 5308TIP3   OH215887   6.487   1.660   4.259 -0.0278  0.1130  0.1643
 5308TIP3    H115888   6.478   1.740   4.310 -2.2442  0.2220 -0.2866
 5308TIP3    H215889   6.462   1.590   4.321  1.7878 -0.2617  0.5256
 5309TIP3   OH215890   1.024   6.388   5.883  0.5424 -0.2180  0.1810
 5309TIP3    H115891   0.935   6.413   5.859 -0.1707 -2.3927  0.3271
 5309TIP3    H215892   1.068   6.471   5.901 -1.0440  1.0089 -1.2023
 5310TIP3   OH215893   5.361   1.793   4.672  0.0485 -0.7316  0.0688
 5310TIP3    H115894   5.329   1.865   4.618  1.9432  1.5253  1.7626
 5310TIP3    H215895   5.432   1.831   4.725  0.9541 -3.7651  1.2959
 5311TIP3   OH215896   3.221   0.297   0.845 -0.5033  0.6382  0.4500
 5311TIP3    H115897   3.168   0.229   0.888 -1.2561  0.3594 -0.8748
 5311TIP3    H215898   3.242   0.261   0.759 -0.8319  2.0319 -0.2447
 5312TIP3   OH215899   6.138   6.686   1.489  0.1967 -0.3338 -0.0793
 5312TIP3    H115900   6.195   6.628   1.540  0.1788  0.9389  1.4489
 5312TIP3    H215901   6.192   6.712   1.415  0.7955 -0.9541  0.1246
 5313TIP3   OH215902   5.517   1.268   0.749 -0.6210 -0.5071 -0.2452
 5313TIP3    H115903   5.454   1.197   0.761 -0.2008 -0.8262  0.1279
 5313TIP3    H215904   5.515   1.316   0.832 -0.6167 -0.3190 -0.3541
 5314TIP3   OH215905   2.445   2.904   2.485 -0.2005  0.0564  0.4816
 5314TIP3    H115906   2.353   2.931   2.494 -0.0934  0.1962  1.2609
 5314TIP3    H215907   2.469   2.930   2.396 -1.2403 -0.9923 -0.1408
 5315TIP3   OH215908   0.963   4.450   2.952  0.0642 -0.9375  0.6624
 5315TIP3    H115909   1.010   4.512   2.897  1.4689 -1.5048  1.1875
 5315TIP3    H215910   0.939   4.501   3.030  0.9674 -0.9474  0.9644
 5316TIP3   OH215911   6.856   1.878   3.132  0.0012  0.1315 -0.2438
 5316TIP3    H115912   6.884   1.964   3.163 -1.2087 -0.0507  1.4767
 5316TIP3    H215913   6.891   1.817   3.197 -1.5004 -0.4078  0.0847
 5317TIP3   OH215914   3.985   5.013   1.725  0.5736  0.7367  0.4548
 5317TIP3    H115915   3.908   5.061   1.755  0.9706  0.7515  1.4842
 5317TIP3    H215916   3.956   4.922   1.718 -0.5224  1.1912 -2.6409
 5318TIP3   OH215917   2.664   2.934   4.018 -0.5451  0.0625 -0.3097
 5318TIP3    H115918   2.572   2.930   4.044 -0.6543  1.3355 -0.4195
 5318TIP3    H215919   2.695   2.844   4.025 -1.2214 -0.0697  1.8738
 5319TIP3   OH215920   3.598   0.113   0.966 -0.5130  0.3882  0.4529
 5319TIP3    H115921   3.547   0.194   0.974 -1.9246 -0.5513  1.4406
 5319TIP3    H215922   3.544   0.046   1.007  0.5956 -1.0942 -0.3959
 5320TIP3   OH215923   0.597   2.613   0.190  0.0454  0.4284  0.1791
 5320TIP3    H115924   0.559   2.697   0.215 -1.6251  0.1491 -1.2327
 5320TIP3    H215925   0.573   2.603   0.098 -0.0561 -1.7151  0.3978
 5321TIP3   OH215926   3.427   0.945   0.901  0.1669  0.0986 -0.0560
 5321TIP3    H115927   3.408   1.018   0.841  1.2212 -0.3472 -0.9643
 5321TIP3    H215928   3.367   0.959   0.975  0.9651  2.4111  0.2363
 5322TIP3   OH215929   1.903   5.967   5.543  0.1569  0.0780  0.0898
 5322TIP3    H115930   1.845   5.998   5.613  2.1918  2.5708  0.8202
 5322TIP3    H215931   1.850   5.972   5.464 -0.8517  1.6182  0.8107
 5323TIP3   OH215932   2.988   1.309   5.028 -0.3468 -0.0594  1.1158
 5323TIP3    H115933   3.016   1.326   4.938 -0.9328  1.4928  1.1913
 5323TIP3    H215934   3.051   1.244   5.061 -0.8937 -1.6524 -0.7839
 5324TIP3   OH215935   3.215   5.028   3.701  0.1518 -0.5890  0.3053
 5324TIP3    H115936   3.267   5.022   3.782  1.1050 -1.9759 -0.3686
 5324TIP3    H215937   3.244   5.110   3.660  1.3460 -1.0019  0.2794
 5325TIP3   OH215938   3.308   3.489   3.689  0.0520  0.7159 -0.4032
 5325TIP3    H115939   3.289   3.508   3.780 -1.7612 -0.9393 -0.3911
 5325TIP3    H215940   3.243   3.539   3.639 -0.7884 -0.5614 -0.6291
 5326TIP3   OH215941   3.748   0.474   2.112  0.1029 -0.0158  0.1817
 5326TIP3    H115942   3.690   0.408   2.148  1.6375 -0.9534  1.0613
 5326TIP3    H215943   3.792   0.511   2.189  1.0064  0.3208 -0.4729
 5327TIP3   OH215944   5.454  -0.013   4.203 -0.2645 -0.3095  0.0834
 5327TIP3    H115945   5.422   0.074   4.182  1.5477  0.7463  1.3150
 5327TIP3    H215946   5.438  -0.022   4.297 -0.2370 -1.2213  0.0106
 5328TIP3   OH215947   0.854   3.505   4.703  0.1921  0.0082  0.1264
 5328TIP3    H115948   0.851   3.410   4.700 -0.6116  0.0445 -0.9145
 5328TIP3    H215949   0.770   3.533   4.665 -0.4227  1.1231  2.1209
 5329TIP3   OH215950   6.463   0.891   1.495  0.3865  0.7146 -0.1483
 5329TIP3    H115951   6.460   0.890   1.399 -1.5196  1.2743 -0.1486
 5329TIP3    H215952   6.412   0.815   1.521 -0.0755  1.2030  0.3988
 5330TIP3   OH215953   5.502   4.786   5.530  0.0756 -0.0582 -0.7235
 5330TIP3    H115954   5.516   4.879   5.546  0.8993 -0.4343  1.0131
 5330TIP3    H215955   5.546   4.742   5.603  1.3291 -1.8915 -2.4747
 5331TIP3   OH215956   3.582   0.534   0.873 -0.3789 -0.0948  0.0566
 5331TIP3    H115957   3.535   0.534   0.790  2.3624 -1.2362 -1.6269
 5331TIP3    H215958   3.606   0.626   0.886 -0.8262  0.0980 -0.4431
 5332TIP3   OH215959   6.122   1.236   3.445 -0.5333  0.3063  0.1233
 5332TIP3    H115960   6.068   1.285   3.508 -0.7002 -1.9675  1.8852
 5332TIP3    H215961   6.210   1.236   3.484  0.0821  1.4190 -1.2060
 5333TIP3   OH215962   6.033   2.537   1.201  0.5246  0.5090  0.6149
 5333TIP3    H115963   6.109   2.480   1.200  0.6417  0.6662  0.4291
 5333TIP3    H215964   6.045   2.595   1.125  0.8261  1.3320  1.2865
 5334TIP3   OH215965   6.866   3.873   0.404 -0.1482 -0.1528  0.2479
 5334TIP3    H115966   6.867   3.911   0.316 -0.5469 -0.8976 -0.0907
 5334TIP3    H215967   6.800   3.804   0.399  1.3598 -1.6768  0.5009
 5335TIP3   OH215968   1.499   1.348   0.414 -0.7937  0.3235 -0.0139
 5335TIP3    H115969   1.443   1.416   0.376 -2.1624 -0.5622  0.3407
 5335TIP3    H215970   1.575   1.344   0.357 -1.2357  1.3497 -0.6948
 5336TIP3   OH215971   6.714   0.906   1.907 -0.0264 -0.2228  0.0555
 5336TIP3    H115972   6.713   0.810   1.916 -0.1431 -0.4392 -1.8425
 5336TIP3    H215973   6.629   0.927   1.868  0.8669  0.3571 -1.6889
 5337TIP3   OH215974   2.356   2.622   2.703 -0.2942  0.2151 -0.2032
 5337TIP3    H115975   2.425   2.563   2.734 -0.4446 -0.0845 -0.4413
 5337TIP3    H215976   2.364   2.620   2.607  0.0737  1.0199 -0.2025
 5338TIP3   OH215977   2.667   1.903   1.746  0.2557 -0.0462 -0.3990
 5338TIP3    H115978   2.717   1.966   1.799 -1.9296  0.1211  1.6414
 5338TIP3    H215979   2.642   1.952   1.668 -0.5709  1.3613  0.7042
 5339TIP3   OH215980   4.040   2.475   2.951  0.3598  0.0893  0.1874
 5339TIP3    H115981   4.011   2.539   2.886 -0.5164 -1.1614 -0.7233
 5339TIP3    H215982   4.110   2.427   2.907  1.1181  0.5006  0.9211
 5340TIP3   OH215983   0.955   4.378   0.662 -0.0120  0.2529 -0.2785
 5340TIP3    H115984   0.968   4.302   0.719  0.6240  0.2890 -0.3794
 5340TIP3    H215985   1.019   4.442   0.692 -1.2140  1.1510  0.4789
 5341TIP3   OH215986   6.228   2.429   1.800  0.3156 -0.0486 -0.1614
 5341TIP3    H115987   6.242   2.383   1.717 -0.5856  2.3210 -1.7739
 5341TIP3    H215988   6.134   2.419   1.817  0.5434 -0.7261  0.7147
 5342TIP3   OH215989   0.389   0.790   3.500  0.5234 -0.4901  0.6467
 5342TIP3    H115990   0.448   0.843   3.553  0.5418 -0.9946  1.1393
 5342TIP3    H215991   0.352   0.851   3.436  3.0953 -0.5148 -0.9933
 5343TIP3   OH215992   0.581   2.275   2.624 -0.8969  0.1672  0.2573
 5343TIP3    H115993   0.507   2.336   2.621 -2.9446 -2.2054 -1.6323
 5343TIP3    H215994   0.552   2.206   2.684  0.2673 -0.3048  0.2984
 5344TIP3   OH215995   6.579   2.436   1.521  0.1076 -0.0065  0.0722
 5344TIP3    H115996   6.484   2.425   1.518  0.2551 -1.9251  0.9661
 5344TIP3    H215997   6.594   2.504   1.587 -0.6164 -1.2214  1.5591
 5345TIP3   OH215998   2.458   0.639   5.188  0.2171  0.1464 -0.2278
 5345TIP3    H115999   2.443   0.594   5.104  0.0138 -2.5101  1.1238
 5345TIP3    H216000   2.397   0.712   5.187  0.3196  0.2687 -2.4488
 5346TIP3   OH216001   4.732   2.742   0.947  0.5594 -0.1596  0.3651
 5346TIP3    H116002   4.812   2.778   0.987 -0.7697  1.8071  1.4474
 5346TIP3    H216003   4.681   2.708   1.021 -0.2109 -0.1088 -0.1280
 5347TIP3   OH216004   4.273   2.972   1.663 -0.3749 -0.3861 -0.0273
 5347TIP3    H116005   4.232   3.059   1.655  0.2856 -0.1955 -1.5576
 5347TIP3    H216006   4.270   2.954   1.757 -0.7705  1.1730  0.2971
 5348TIP3   OH216007   6.735   4.702   1.431 -0.0117  0.0099  0.3640
 5348TIP3    H116008   6.747   4.700   1.336 -0.5696  0.6737  0.2788
 5348TIP3    H216009   6.823   4.719   1.466  0.2048 -0.2933 -0.0220
 5349TIP3   OH216010   5.301   6.472   3.046 -0.0947 -0.4021  0.1558
 5349TIP3    H116011   5.250   6.545   3.012 -0.1278 -0.1179  0.7826
 5349TIP3    H216012   5.269   6.395   3.000 -0.9467 -0.1999  0.3867
 5350TIP3   OH216013   4.616   1.856   0.746 -0.1241  0.2309 -0.2995
 5350TIP3    H116014   4.562   1.792   0.792  0.9226 -0.4131  0.0666
 5350TIP3    H216015   4.706   1.830   0.764  0.3517  2.0071  0.1628
 5351TIP3   OH216016   2.942   4.363   2.090  0.4011 -0.2202  0.1610
 5351TIP3    H116017   2.986   4.285   2.124  1.9364  0.3214 -0.4752
 5351TIP3    H216018   3.005   4.401   2.029 -0.5784  1.1710 -0.0385
 5352TIP3   OH216019   0.375   5.422   5.829 -0.3473  0.3849  0.2151
 5352TIP3    H116020   0.362   5.514   5.853  0.2427  0.9995 -1.6431
 5352TIP3    H216021   0.423   5.425   5.746  0.3959 -1.6288  0.5132
 5353TIP3   OH216022   3.742   0.306   0.262 -0.3824 -0.8493  0.2636
 5353TIP3    H116023   3.811   0.249   0.297 -0.3585 -0.4198  0.9358
 5353TIP3    H216024   3.788   0.366   0.204 -0.3297 -1.1750 -0.0307
 5354TIP3   OH216025   4.206   0.431   3.016  0.3305  0.1679  0.1862
 5354TIP3    H116026   4.224   0.385   2.934 -1.0708  1.9562 -1.2071
 5354TIP3    H216027   4.111   0.444   3.015  0.3504  0.5719  1.9198
 5355TIP3   OH216028   6.309   4.931   1.164 -0.1509 -0.5260 -0.0770
 5355TIP3    H116029   6.260   4.866   1.114 -1.6714 -0.7597  1.5695
 5355TIP3    H216030   6.299   4.903   1.255  1.4233  0.5579  0.4698
 5356TIP3   OH216031   1.142   6.634   5.200 -0.1742 -0.8987 -0.7462
 5356TIP3    H116032   1.166   6.666   5.112  0.2554 -1.5419 -0.8720
 5356TIP3    H216033   1.106   6.547   5.185 -3.3060  0.2576 -0.6298
 5357TIP3   OH216034   0.329   4.367   0.345 -0.0138  0.1220  0.3362
 5357TIP3    H116035   0.271   4.318   0.285  1.3538  0.0526 -0.9755
 5357TIP3    H216036   0.385   4.300   0.384 -0.6965  0.2053  1.5179
 5358TIP3   OH216037   0.750   6.072   4.151 -0.1072  0.2919  0.1473
 5358TIP3    H116038   0.711   6.120   4.078 -1.1400 -0.6623  0.0321
 5358TIP3    H216039   0.724   5.981   4.136 -0.0012  0.0216  1.4924
 5359TIP3   OH216040   1.040   3.256   0.327 -0.3290 -0.2463  0.3939
 5359TIP3    H116041   1.033   3.320   0.256 -0.7482 -0.2633  0.4193
 5359TIP3    H216042   1.111   3.290   0.383 -0.2095 -0.0712  0.1367
 5360TIP3   OH216043   2.165   3.453   0.736  0.0414 -0.4151 -0.6510
 5360TIP3    H116044   2.151   3.543   0.705  1.1720  0.7813  1.9838
 5360TIP3    H216045   2.255   3.452   0.767 -0.7992 -1.5495  2.0443
 5361TIP3   OH216046   3.328   4.734   4.839  0.0116  0.0478  0.4053
 5361TIP3    H116047   3.409   4.685   4.822 -0.0870 -0.6318  1.7252
 5361TIP3    H216048   3.336   4.762   4.930 -2.8009 -3.2677  1.8932
 5362TIP3   OH216049   2.095   0.436   3.459 -0.1768  0.0352  0.4754
 5362TIP3    H116050   2.078   0.343   3.474  1.2416 -0.3342 -0.1327
 5362TIP3    H216051   2.113   0.471   3.546 -1.7595 -0.0059  0.8533
 5363TIP3   OH216052   5.858   1.971   4.985  0.0819 -0.1230 -0.1560
 5363TIP3    H116053   5.813   1.889   5.009  1.9312 -1.7137 -1.7563
 5363TIP3    H216054   5.950   1.946   4.975  0.9880  2.5052  0.6769
 5364TIP3   OH216055   6.462   5.762   0.030 -0.1063 -0.2570 -0.0762
 5364TIP3    H116056   6.420   5.835   0.074  0.3891  0.1898 -0.3398
 5364TIP3    H216057   6.391   5.718  -0.017 -0.0711  1.3317 -1.6987
 5365TIP3   OH216058   6.408   2.591   1.292  0.0378 -0.4018 -0.5406
 5365TIP3    H116059   6.324   2.625   1.260  0.3327 -1.0894 -2.1623
 5365TIP3    H216060   6.448   2.551   1.215  1.9927  0.1598  0.1269
 5366TIP3   OH216061   4.455   6.430   3.718 -0.6572 -0.5033  0.1014
 5366TIP3    H116062   4.376   6.391   3.755 -0.5412 -0.4833  0.3664
 5366TIP3    H216063   4.427   6.518   3.692  0.2224  1.0776  3.8771
 5367TIP3   OH216064   6.278   5.786   2.742 -0.5601  0.5424  0.5627
 5367TIP3    H116065   6.291   5.855   2.676 -0.7849  0.3862  0.3570
 5367TIP3    H216066   6.185   5.792   2.765 -0.2536  1.3400  1.6887
 5368TIP3   OH216067   5.410   0.088   1.369  0.3009 -0.3673 -0.4373
 5368TIP3    H116068   5.369   0.121   1.449 -0.9550 -0.0589 -1.1952
 5368TIP3    H216069   5.498   0.126   1.371  0.3094 -0.4083  0.8162
 5369TIP3   OH216070   1.439   3.063   1.048 -0.7969  0.1221  0.0364
 5369TIP3    H116071   1.520   3.058   1.099 -0.5525 -0.9317 -0.4370
 5369TIP3    H216072   1.466   3.101   0.965 -0.5935 -1.0624 -0.4629
 5370TIP3   OH216073   5.715   1.163   4.907 -0.4563  0.1078  0.1166
 5370TIP3    H116074   5.765   1.085   4.884 -0.4012  0.2765 -0.3373
 5370TIP3    H216075   5.743   1.184   4.996 -1.3379 -1.0757  0.6962
 5371TIP3   OH216076   0.754   2.474   0.374 -0.4810  0.4730  1.1323
 5371TIP3    H116077   0.708   2.526   0.308  3.5184  1.0130 -1.5626
 5371TIP3    H216078   0.757   2.531   0.451  0.2262  2.6568 -0.4089
 5372TIP3   OH216079   6.605   1.088   3.354  0.2179  0.1596  0.0665
 5372TIP3    H116080   6.542   1.017   3.340  1.2340 -0.7811  0.1534
 5372TIP3    H216081   6.690   1.045   3.354  0.8612  1.3893  0.1225
 5373TIP3   OH216082   1.587   2.914   2.133  0.0905 -0.3677  0.0089
 5373TIP3    H116083   1.614   2.930   2.043  1.9425  0.5681  0.6738
 5373TIP3    H216084   1.652   2.851   2.166 -0.7451 -0.9341  0.6074
 5374TIP3   OH216085   2.477   0.944   0.104 -0.0558  0.1161 -0.2238
 5374TIP3    H116086   2.488   0.849   0.099 -1.2622 -0.0537  0.0434
 5374TIP3    H216087   2.562   0.976   0.133  0.5764 -0.8123 -0.9664
 5375TIP3   OH216088   4.713   1.674   1.359  0.3170 -0.2407 -0.7401
 5375TIP3    H116089   4.668   1.744   1.406 -0.0464  0.3955 -1.9901
 5375TIP3    H216090   4.642   1.618   1.327  0.6065 -1.2925  0.3538
 5376TIP3   OH216091   4.856   3.116   3.016 -0.0037 -0.2010 -0.0258
 5376TIP3    H116092   4.852   3.185   3.083 -1.3258 -1.3916  1.1970
 5376TIP3    H216093   4.818   3.156   2.938  0.9049  0.9974  0.1192
 5377TIP3   OH216094   4.955   6.024   5.730 -0.1847  0.4754  0.1097
 5377TIP3    H116095   4.870   5.997   5.695  0.1005 -0.1275 -0.1341
 5377TIP3    H216096   4.972   6.108   5.687  1.1442 -1.2107 -2.9615
 5378TIP3   OH216097   6.350   3.795   0.822  0.0064  0.0263  0.4709
 5378TIP3    H116098   6.334   3.878   0.778  0.9769 -0.1633 -0.2649
 5378TIP3    H216099   6.419   3.815   0.886  0.1825 -0.1873  0.3497
 5379TIP3   OH216100   4.691   6.199   0.105 -0.4467 -0.2051  0.0930
 5379TIP3    H116101   4.683   6.291   0.130  1.7327 -0.2349  1.1014
 5379TIP3    H216102   4.696   6.200   0.010  2.0356  1.0283  0.1543
 5380TIP3   OH216103   0.502   3.990   3.994 -0.5237 -0.2017 -0.2138
 5380TIP3    H116104   0.440   4.038   3.940 -0.0057 -1.3939 -1.9437
 5380TIP3    H216105   0.586   4.000   3.950 -0.1873 -1.6589  0.0353
 5381TIP3   OH216106   3.663   4.789   1.543 -0.2128 -0.4839  0.1139
 5381TIP3    H116107   3.602   4.775   1.614  1.6912  1.8270  2.3990
 5381TIP3    H216108   3.704   4.704   1.529 -1.2000 -1.1581  1.2183
 5382TIP3   OH216109   0.221   4.705   0.012 -0.0113 -0.6422 -0.0619
 5382TIP3    H116110   0.148   4.767   0.009  0.3237 -0.2680 -0.9565
 5382TIP3    H216111   0.182   4.620  -0.006 -0.1818 -0.3771 -1.0452
 5383TIP3   OH216112   4.090   3.343   3.435  0.1879  0.3834  0.3543
 5383TIP3    H116113   4.049   3.428   3.416 -1.8608 -0.7885 -0.8419
 5383TIP3    H216114   4.160   3.335   3.370  0.4149  1.1495  0.4920
 5384TIP3   OH216115   6.913   5.126   5.067 -0.1944  0.4898 -0.5761
 5384TIP3    H116116   6.969   5.132   5.145 -0.0431  0.4933 -0.6837
 5384TIP3    H216117   6.965   5.075   5.005 -0.7079 -0.3705 -0.3295
 5385TIP3   OH216118   0.603   3.292   4.210  0.4412 -0.0483  0.2064
 5385TIP3    H116119   0.568   3.378   4.233  1.0582  0.0595  0.7788
 5385TIP3    H216120   0.555   3.267   4.131  1.8392  1.8248 -1.3052
 5386TIP3   OH216121   4.704   3.747   5.867  0.4120 -0.0274 -0.4317
 5386TIP3    H116122   4.702   3.723   5.774  0.9539  0.3498 -0.5388
 5386TIP3    H216123   4.776   3.808   5.875 -1.0698  1.7797 -0.1957
 5387TIP3   OH216124   1.186   3.953   1.310  0.1001  0.0384  0.0557
 5387TIP3    H116125   1.182   3.868   1.265  1.0036  0.3742 -0.7007
 5387TIP3    H216126   1.183   4.017   1.239  0.6535  0.6064  0.5394
 5388TIP3   OH216127   1.305   5.676   4.032 -0.2113  0.0322  0.6527
 5388TIP3    H116128   1.333   5.609   3.970  1.7818  1.0486  0.3489
 5388TIP3    H216129   1.335   5.643   4.117  2.0550  1.0500  0.3453
 5389TIP3   OH216130   3.655   5.600   5.529 -0.2309  0.3621  0.1175
 5389TIP3    H116131   3.612   5.683   5.549 -0.5029  0.7980 -1.9646
 5389TIP3    H216132   3.735   5.600   5.582 -0.9157  1.2853  1.1857
 5390TIP3   OH216133   4.552   2.843   2.984  0.2546  0.4995  0.1946
 5390TIP3    H116134   4.492   2.776   3.018  1.0986  0.0568  0.8487
 5390TIP3    H216135   4.533   2.921   3.036  1.3253 -0.0891  1.5233
 5391TIP3   OH216136   6.008   1.672   3.206 -0.3217  0.1755 -0.1133
 5391TIP3    H116137   5.928   1.720   3.185 -0.3138 -0.0091 -0.5831
 5391TIP3    H216138   5.979   1.581   3.216 -0.0554 -0.0389 -1.1218
 5392TIP3   OH216139   5.041   0.992   0.107 -0.0786  0.1749  0.4145
 5392TIP3    H116140   5.037   1.082   0.139  2.0239  0.8272 -1.0063
 5392TIP3    H216141   4.983   0.992   0.030  0.5232  0.5416 -0.0483
 5393TIP3   OH216142   0.492   1.561   1.058  0.2858 -0.3856  0.1323
 5393TIP3    H116143   0.420   1.576   1.120 -1.4178 -2.0752 -1.3151
 5393TIP3    H216144   0.472   1.618   0.984  1.6279  0.6890  0.5593
 5394TIP3   OH216145   7.160   4.756   5.128 -0.4564  0.3702  0.2921
 5394TIP3    H116146   7.251   4.767   5.100 -0.8132 -1.4635 -1.8320
 5394TIP3    H216147   7.163   4.686   5.193 -0.3907 -0.0792 -0.1884
 5395TIP3   OH216148   4.045   4.442   5.151 -0.1919  0.2679 -0.1210
 5395TIP3    H116149   4.058   4.408   5.239 -0.5447  0.5240  0.0363
 5395TIP3    H216150   3.965   4.494   5.158 -0.3835  0.0436 -0.6656
 5396TIP3   OH216151   4.415   6.210   4.703  0.3924  0.5216 -0.3400
 5396TIP3    H116152   4.500   6.240   4.670  0.7562 -1.1211 -1.0036
 5396TIP3    H216153   4.352   6.240   4.637  0.6664  0.3655 -0.6757
 5397TIP3   OH216154   0.887   4.243   4.341 -0.3451  0.3057 -0.2338
 5397TIP3    H116155   0.925   4.184   4.275  0.1697  0.9149 -0.4983
 5397TIP3    H216156   0.802   4.268   4.304 -1.1036 -1.1832  0.4312
 5398TIP3   OH216157   3.620   0.595   0.287 -0.0899  0.3184 -0.6467
 5398TIP3    H116158   3.603   0.521   0.345  1.2546  0.2981 -0.2275
 5398TIP3    H216159   3.697   0.568   0.236 -0.0955  1.0907 -1.0786
 5399TIP3   OH216160   2.506   4.894   5.665 -0.4531 -0.3362 -0.6957
 5399TIP3    H116161   2.431   4.848   5.627 -0.7439  0.3771 -1.0146
 5399TIP3    H216162   2.514   4.974   5.612 -0.7770  0.6079  0.6333
 5400TIP3   OH216163   3.470   5.111   0.438 -0.1699 -0.4196 -0.3763
 5400TIP3    H116164   3.542   5.108   0.501 -0.2762 -1.1833 -0.2807
 5400TIP3    H216165   3.494   5.182   0.378 -0.5795  1.0325  1.1183
 5401TIP3   OH216166   2.847   3.442   4.080 -0.1324  0.0873 -0.0618
 5401TIP3    H116167   2.889   3.441   4.166 -2.1403 -0.3198  0.9830
 5401TIP3    H216168   2.830   3.350   4.060  0.3606  0.1756 -0.9366
 5402TIP3   OH216169   2.099   0.028   5.196  1.1635 -0.1119 -0.0472
 5402TIP3    H116170   2.060   0.069   5.273  0.5457 -0.1508 -0.3301
 5402TIP3    H216171   2.042  -0.048   5.178  0.6278  0.5334 -1.1998
 5403TIP3   OH216172   1.893   4.509   0.584  0.7087 -0.1708  0.0377
 5403TIP3    H116173   1.901   4.582   0.646  0.9021 -0.0710 -0.1044
 5403TIP3    H216174   1.896   4.431   0.638  0.5738 -0.0761  0.1848
 5404TIP3   OH216175   4.488   2.320   0.443 -0.0823 -0.6291  0.2909
 5404TIP3    H116176   4.552   2.272   0.389  0.9919  2.3377 -1.3239
 5404TIP3    H216177   4.520   2.309   0.532  1.3058 -1.1782 -0.2386
 5405TIP3   OH216178   4.859   4.146   3.698  0.2134 -0.0756  0.3659
 5405TIP3    H116179   4.864   4.241   3.693 -1.1113  0.1444  2.0766
 5405TIP3    H216180   4.913   4.115   3.626  1.1339  1.9580  0.1077
 5406TIP3   OH216181   3.734   5.500   4.036  0.3654  0.3597  0.0113
 5406TIP3    H116182   3.824   5.529   4.055  1.0407 -2.1548  1.0648
 5406TIP3    H216183   3.731   5.493   3.941  0.1930  3.4828 -0.3234
 5407TIP3   OH216184   6.803   4.339   0.492 -0.2139  0.2365 -0.0248
 5407TIP3    H116185   6.797   4.428   0.457 -1.0030  1.2157  2.3926
 5407TIP3    H216186   6.722   4.296   0.465  0.3335  0.0991 -1.5084
 5408TIP3   OH216187   4.032   4.706   3.776 -0.2051 -0.2089 -0.5397
 5408TIP3    H116188   4.003   4.797   3.773 -0.2911 -0.0268  2.4239
 5408TIP3    H216189   4.089   4.696   3.700  1.5135  2.9670  0.1491
 5409TIP3   OH216190   3.224   5.052   4.602 -0.3890 -0.0334  0.1735
 5409TIP3    H116191   3.281   4.976   4.588 -0.7070 -0.6506  2.0262
 5409TIP3    H216192   3.285   5.124   4.619 -0.0850  0.1783 -1.6144
 5410TIP3   OH216193   3.349   0.378   3.035  0.3302  0.1518  0.7168
 5410TIP3    H116194   3.309   0.307   3.086 -0.5231 -0.7535 -1.1314
 5410TIP3    H216195   3.403   0.333   2.970  0.9842  1.2610  0.4639
 5411TIP3   OH216196   0.684   4.134   1.889  0.2639 -0.2185  0.2292
 5411TIP3    H116197   0.695   4.171   1.977  0.7630 -0.2350  0.1763
 5411TIP3    H216198   0.722   4.047   1.895 -0.1547 -0.4147  0.1256
 5412TIP3   OH216199   5.894   0.333   2.595 -0.2614 -0.2351 -0.7512
 5412TIP3    H116200   5.835   0.401   2.563  0.0961  0.0677 -0.7720
 5412TIP3    H216201   5.838   0.273   2.644 -0.7053 -0.3423 -1.3808
 5413TIP3   OH216202   0.598   5.724   4.885  0.0730  0.0500  0.1038
 5413TIP3    H116203   0.555   5.711   4.969 -0.1336  2.3232  0.4109
 5413TIP3    H216204   0.539   5.683   4.821 -0.4359 -0.5148  0.9157
 5414TIP3   OH216205   2.974   5.621   1.507  0.2240  0.5936  0.5896
 5414TIP3    H116206   2.944   5.563   1.437  2.9723  1.0269 -1.0994
 5414TIP3    H216207   3.065   5.597   1.522  1.4912  4.2379 -0.0973
 5415TIP3   OH216208   0.864   1.837   0.276  0.1450 -0.3241  0.4308
 5415TIP3    H116209   0.786   1.890   0.263  0.3894 -0.4758 -2.5221
 5415TIP3    H216210   0.837   1.766   0.333 -1.5980  0.1913  0.2903
 5416TIP3   OH216211   1.675   4.394   1.129 -0.0227  0.2208 -0.8464
 5416TIP3    H116212   1.722   4.474   1.152  1.9852 -1.5354  1.7648
 5416TIP3    H216213   1.594   4.398   1.179  1.0744 -0.2987  1.0526
 5417TIP3   OH216214   3.006   3.431   4.328  0.2514 -0.8580  0.0605
 5417TIP3    H116215   3.046   3.514   4.353  1.4939 -1.3788 -0.1076
 5417TIP3    H216216   2.959   3.402   4.406 -0.3456  0.0783  0.0638
 5418TIP3   OH216217   3.814   2.223   0.164  0.4139  0.2472  0.2891
 5418TIP3    H116218   3.874   2.295   0.180 -0.2787  0.7601  0.6389
 5418TIP3    H216219   3.853   2.174   0.091  2.4168 -0.7571  1.9352
 5419TIP3   OH216220   5.089   5.244   4.599 -0.0868  0.2378  0.0644
 5419TIP3    H116221   5.019   5.243   4.665 -2.6525 -0.7573 -2.4867
 5419TIP3    H216222   5.096   5.335   4.572 -1.5695  0.1217 -0.7707
 5420TIP3   OH216223   6.852   4.272   4.585  0.6324 -0.0992 -0.0324
 5420TIP3    H116224   6.842   4.220   4.664  2.6001  1.3271  1.2262
 5420TIP3    H216225   6.855   4.362   4.615  1.1289  0.5162 -1.7633
 5421TIP3   OH216226   4.579   3.125   2.842 -0.1892 -0.1960 -0.2788
 5421TIP3    H116227   4.623   3.058   2.894  0.3051  0.7463  0.5363
 5421TIP3    H216228   4.501   3.081   2.808  0.3222 -1.2929 -0.0833
 5422TIP3   OH216229   3.443   4.487   3.207 -0.2991  0.2256  0.6706
 5422TIP3    H116230   3.376   4.451   3.264 -0.9247 -1.8905 -1.2753
 5422TIP3    H216231   3.516   4.507   3.266 -1.9578  1.0539  2.5920
 5423TIP3   OH216232   7.028   3.795   0.597 -0.7660  0.2678  0.1828
 5423TIP3    H116233   6.963   3.822   0.532  0.8668  0.8462 -1.2726
 5423TIP3    H216234   7.093   3.747   0.547 -1.1928 -2.4179  1.9782
 5424TIP3   OH216235   2.192   1.797   3.600 -0.0880 -0.3028  0.3612
 5424TIP3    H116236   2.246   1.718   3.606  0.6630  0.2503  1.4322
 5424TIP3    H216237   2.106   1.770   3.632  0.1452 -0.7069  0.6593
 5425TIP3   OH216238   0.494   1.851   4.341  0.2895 -0.5585 -0.5752
 5425TIP3    H116239   0.411   1.898   4.349 -0.6763 -2.4708  2.3199
 5425TIP3    H216240   0.478   1.787   4.271 -0.4358 -0.4149 -0.5475
 5426TIP3   OH216241   2.195   4.930   3.184 -0.7148 -0.1997  0.1821
 5426TIP3    H116242   2.104   4.933   3.215 -0.7919 -0.2793 -0.0337
 5426TIP3    H216243   2.195   4.865   3.114 -0.6226  0.2341 -0.2301
 5427TIP3   OH216244   5.213   5.919   1.601 -0.3528 -0.0165 -0.1505
 5427TIP3    H116245   5.127   5.932   1.639  0.1466  1.1904  0.6346
 5427TIP3    H216246   5.249   6.007   1.592  1.4002 -0.5662  0.9708
 5428TIP3   OH216247   2.863   6.423   4.366  0.2993  0.1289  0.2296
 5428TIP3    H116248   2.925   6.432   4.438 -0.6628  0.7516  1.0032
 5428TIP3    H216249   2.821   6.508   4.359 -0.0260 -0.0930 -0.7096
 5429TIP3   OH216250   1.198   3.904   0.680  0.1692 -0.0648 -0.2928
 5429TIP3    H116251   1.266   3.968   0.659 -1.1438  0.8687 -1.9615
 5429TIP3    H216252   1.215   3.880   0.771  0.8813  2.4347  0.3126
 5430TIP3   OH216253   4.328   2.630   0.626  0.2061  0.0114  0.4474
 5430TIP3    H116254   4.349   2.607   0.717 -0.3314 -2.0608  0.0784
 5430TIP3    H216255   4.413   2.649   0.587  0.3424  2.3270  1.6861
 5431TIP3   OH216256   2.920   2.924   5.390  0.1791  0.1844 -0.3233
 5431TIP3    H116257   2.931   2.992   5.323  2.3288  0.2736  0.0283
 5431TIP3    H216258   2.890   2.847   5.342  1.2583  0.3722 -1.3409
 5432TIP3   OH216259   3.072   4.629   2.433 -0.1373  0.1834 -0.2924
 5432TIP3    H116260   3.059   4.540   2.467 -0.4632  0.9117  1.6019
 5432TIP3    H216261   2.996   4.644   2.377  0.7040 -1.2651 -1.9097
 5433TIP3   OH216262   0.176   6.224   0.516  0.1513 -0.1238 -0.0436
 5433TIP3    H116263   0.096   6.192   0.557  0.0546  0.1745  0.0025
 5433TIP3    H216264   0.171   6.319   0.524  0.1275 -0.0596 -0.7421
 5434TIP3   OH216265   6.629   5.982   0.276  0.2709  0.0881  0.4543
 5434TIP3    H116266   6.547   5.970   0.229  0.0793  0.2003  0.7547
 5434TIP3    H216267   6.682   5.905   0.254  1.3061  1.4502 -2.1878
 5435TIP3   OH216268   3.318   6.335   2.548  0.3242  0.1543  0.0666
 5435TIP3    H116269   3.389   6.274   2.531 -0.0437 -0.5418  0.9704
 5435TIP3    H216270   3.267   6.295   2.619 -2.6356 -0.8321 -2.3861
 5436TIP3   OH216271   4.822   5.849   4.461 -0.1899  0.1633  0.3849
 5436TIP3    H116272   4.828   5.768   4.411 -1.3724  1.1322 -1.4594
 5436TIP3    H216273   4.872   5.832   4.541  0.3671 -2.0373 -0.3568
 5437TIP3   OH216274   1.215   6.226   5.766  0.8391  0.3395 -0.0738
 5437TIP3    H116275   1.140   6.280   5.792  0.7215  0.1494 -0.0138
 5437TIP3    H216276   1.262   6.211   5.848  0.6022 -0.0565 -0.0085
 5438TIP3   OH216277   7.067   4.571   0.933  0.2128 -0.1429 -0.3182
 5438TIP3    H116278   7.077   4.545   0.841 -0.0219 -1.5805  0.0384
 5438TIP3    H216279   7.105   4.659   0.937  1.7733 -0.7230 -1.4336
 5439TIP3   OH216280   1.784   2.014   1.573 -0.1073 -0.3994 -0.3687
 5439TIP3    H116281   1.756   2.075   1.505  0.1871 -0.4990 -0.5819
 5439TIP3    H216282   1.729   1.937   1.559 -0.7616 -0.0339  0.1572
 5440TIP3   OH216283   4.751   2.202   2.161  0.1070  0.6651 -0.1527
 5440TIP3    H116284   4.818   2.145   2.200 -1.0769 -1.1460 -0.6275
 5440TIP3    H216285   4.768   2.197   2.067 -0.1018  0.9830 -0.2073
 5441TIP3   OH216286   4.528   6.423   5.368 -0.0105 -0.0134  0.0306
 5441TIP3    H116287   4.579   6.371   5.305 -0.5508 -0.7810  0.2030
 5441TIP3    H216288   4.562   6.397   5.454  0.2498  0.5111  0.0904
 5442TIP3   OH216289   5.184   2.824   3.015 -0.2229  0.8732  0.0485
 5442TIP3    H116290   5.259   2.814   2.955 -0.2867 -1.5979  0.2745
 5442TIP3    H216291   5.121   2.876   2.965  0.1143 -0.3071 -1.7287
 5443TIP3   OH216292   4.602   3.990   4.823 -0.2077  0.0790  0.0152
 5443TIP3    H116293   4.521   3.989   4.771 -0.3958  0.0875  0.3061
 5443TIP3    H216294   4.583   4.050   4.896  0.7804  1.7938 -1.0622
 5444TIP3   OH216295   6.056   6.216   3.663  0.1055  0.0081  0.0405
 5444TIP3    H116296   5.993   6.148   3.641  0.4830 -0.1433 -0.5971
 5444TIP3    H216297   6.007   6.298   3.656  0.0986 -0.0752 -0.9148
 5445TIP3   OH216298   5.100   6.318   3.236  0.2304  0.4764  0.2770
 5445TIP3    H116299   5.092   6.235   3.188 -1.1364  0.9708 -0.4123
 5445TIP3    H216300   5.053   6.381   3.182  1.0419  1.6669  0.9168
 5446TIP3   OH216301   6.716   5.110   0.555 -0.2182 -0.1033 -0.0052
 5446TIP3    H116302   6.654   5.152   0.497  1.0542  2.1011  0.1264
 5446TIP3    H216303   6.741   5.029   0.510 -2.9022 -0.9308 -0.1597
 5447TIP3   OH216304   3.540   3.639   4.941 -0.1045 -0.4414 -0.0666
 5447TIP3    H116305   3.548   3.685   5.025 -1.7051 -1.1697  0.5301
 5447TIP3    H216306   3.485   3.696   4.887 -1.3173 -1.1620  0.3538
 5448TIP3   OH216307   7.066   6.538   3.547  0.0562  0.2513 -0.4705
 5448TIP3    H116308   7.006   6.508   3.615  2.1258 -1.6108  0.6642
 5448TIP3    H216309   7.116   6.460   3.524  0.4302  1.1784 -3.1147
 5449TIP3   OH216310   0.255   0.100   2.532  0.0805 -0.4976 -0.4137
 5449TIP3    H116311   0.262   0.075   2.440  1.4162 -1.4599 -0.0864
 5449TIP3    H216312   0.277   0.020   2.580 -1.7471 -0.3323  0.7741
 5450TIP3   OH216313   2.127   2.484   5.066  0.0044  0.6909 -0.4144
 5450TIP3    H116314   2.108   2.545   4.995 -0.4770  0.4335 -0.5073
 5450TIP3    H216315   2.204   2.521   5.109  0.3067  0.8433 -1.0745
 5451TIP3   OH216316   5.432   4.790   4.567  0.2683  0.1921  0.6542
 5451TIP3    H116317   5.454   4.804   4.659 -0.4020 -0.5942  0.9484
 5451TIP3    H216318   5.363   4.854   4.549  0.3011  0.2548  0.7515
 5452TIP3   OH216319   3.267   6.677   2.289 -0.5446 -0.0708  0.4867
 5452TIP3    H116320   3.322   6.704   2.363  0.8273 -2.2003  0.3216
 5452TIP3    H216321   3.320   6.699   2.212 -1.3596  0.8244  0.1593
 5453TIP3   OH216322   5.806   5.534   0.148 -0.3692 -0.2825  0.2019
 5453TIP3    H116323   5.825   5.440   0.145 -1.8184 -0.5683 -0.6479
 5453TIP3    H216324   5.861   5.567   0.219  0.2599 -1.7414  0.4293
 5454TIP3   OH216325   1.720   4.785   0.173 -0.3502  0.1432  0.2054
 5454TIP3    H116326   1.721   4.871   0.214 -1.5358  0.2604  0.0262
 5454TIP3    H216327   1.786   4.735   0.221 -1.5826  0.3030  2.2159
 5455TIP3   OH216328   4.501   2.086   4.164 -0.4791  0.3646 -0.2383
 5455TIP3    H116329   4.565   2.071   4.095 -1.0515 -1.0137 -0.5060
 5455TIP3    H216330   4.466   2.174   4.145  2.0141  1.6115  0.5365
 5456TIP3   OH216331   2.135   4.160   5.220  0.6046 -0.5125 -0.7193
 5456TIP3    H116332   2.103   4.250   5.230 -0.0633 -0.9084  1.2899
 5456TIP3    H216333   2.145   4.148   5.126  1.7856  2.0184 -1.0063
 5457TIP3   OH216334   5.477   1.070   2.009 -0.3691 -0.6392 -0.9162
 5457TIP3    H116335   5.562   1.048   2.047 -0.0611  1.0859 -0.5402
 5457TIP3    H216336   5.420   0.998   2.035  0.3468 -0.5593  1.0576
 5458TIP3   OH216337   4.031   4.180   2.242  0.4015 -0.2419 -0.2894
 5458TIP3    H116338   4.087   4.206   2.315 -0.2300 -0.5928  0.3344
 5458TIP3    H216339   3.943   4.172   2.280  0.1673 -1.0102 -0.9554
 5459TIP3   OH216340   3.068   0.791   1.498  0.2535  0.1599 -0.3639
 5459TIP3    H116341   3.075   0.720   1.434 -3.3116  1.0551 -2.0237
 5459TIP3    H216342   3.127   0.766   1.568  1.5505 -2.8028 -2.3028
 5460TIP3   OH216343   6.809   2.323   2.502  0.1807 -0.4669 -0.0655
 5460TIP3    H116344   6.851   2.409   2.504  0.2416 -0.5113  0.6397
 5460TIP3    H216345   6.757   2.325   2.422  0.3508  0.1444 -0.1721
 5461TIP3   OH216346   6.535   0.059   1.717  0.6203  0.8660 -0.0106
 5461TIP3    H116347   6.594   0.055   1.642  0.0871 -0.6175 -0.4047
 5461TIP3    H216348   6.479   0.135   1.699  1.6523  1.6012 -0.1954
 5462TIP3   OH216349   1.966   6.768   5.166  0.0012  0.6605  0.4751
 5462TIP3    H116350   1.933   6.705   5.102  2.2348 -1.2322  1.0401
 5462TIP3    H216351   1.905   6.841   5.161 -2.5655 -1.3779 -0.4556
 5463TIP3   OH216352   4.778   2.539   0.751 -0.5268 -0.1181  0.4339
 5463TIP3    H116353   4.720   2.556   0.677 -0.2138  1.3592  0.5047
 5463TIP3    H216354   4.749   2.600   0.819 -0.0949 -0.6831  1.1415
 5464TIP3   OH216355   2.584   2.345   5.418  0.6655  0.1376  0.1477
 5464TIP3    H116356   2.590   2.382   5.506 -1.0069  0.3976  0.1894
 5464TIP3    H216357   2.521   2.400   5.373  2.3958  0.7511 -1.6475
 5465TIP3   OH216358   5.429   6.416   2.677  0.2621  0.0859 -0.4225
 5465TIP3    H116359   5.476   6.333   2.670  0.3748  0.1983 -1.0688
 5465TIP3    H216360   5.389   6.429   2.591 -0.3062  0.3776 -0.1230
 5466TIP3   OH216361   4.441   3.946   2.604 -0.2449  0.2323  0.0334
 5466TIP3    H116362   4.356   3.971   2.567  0.4900 -0.3181 -2.1662
 5466TIP3    H216363   4.505   3.970   2.537  0.9637 -3.0832 -0.1798
 5467TIP3   OH216364   4.708   2.716   2.150 -0.4333 -0.3652 -0.7780
 5467TIP3    H116365   4.689   2.787   2.211 -1.3948  0.4909 -2.0334
 5467TIP3    H216366   4.700   2.637   2.204 -1.8312  0.3233  0.0962
 5468TIP3   OH216367   4.383   4.544   0.056  0.3300 -0.3852 -0.3612
 5468TIP3    H116368   4.379   4.614   0.122  1.9772 -1.8901  1.4530
 5468TIP3    H216369   4.420   4.586  -0.022 -1.5521  1.4132 -0.3839
 5469TIP3   OH216370   1.228   3.390   3.061 -0.4074 -0.0219 -0.3821
 5469TIP3    H116371   1.278   3.459   3.103 -1.4713  1.3873 -1.3464
 5469TIP3    H216372   1.285   3.359   2.990  0.5952 -1.0741  0.8372
 5470TIP3   OH216373   3.275   4.763   1.297  0.1008  0.2540  0.2593
 5470TIP3    H116374   3.238   4.727   1.217  2.1349  0.2584 -0.7394
 5470TIP3    H216375   3.311   4.848   1.272 -0.1113  0.7139  1.4199
 5471TIP3   OH216376   5.012   1.695   3.768  0.1421  0.5195  0.3517
 5471TIP3    H116377   4.997   1.762   3.834 -0.7392  1.4441 -0.7470
 5471TIP3    H216378   5.047   1.620   3.817 -0.9746  0.9877  1.9416
 5472TIP3   OH216379   2.292   2.413   4.722 -0.8380 -0.1808 -0.1571
 5472TIP3    H116380   2.367   2.378   4.673  0.3108 -1.7432  2.5307
 5472TIP3    H216381   2.276   2.499   4.682  1.7986 -0.1627 -1.4220
 5473TIP3   OH216382   5.649   0.894   1.754  0.4432 -0.7052  0.5225
 5473TIP3    H116383   5.627   0.885   1.847 -1.4566 -1.6499  0.0420
 5473TIP3    H216384   5.567   0.875   1.709  1.3356 -0.2816 -1.3648
 5474TIP3   OH216385   3.612   3.670   0.460 -0.0301 -0.4515  0.2036
 5474TIP3    H116386   3.526   3.635   0.440 -1.5354  2.8444  0.3449
 5474TIP3    H216387   3.610   3.687   0.555  0.4355  0.4767  0.0569
 5475TIP3   OH216388   4.704   5.372   5.819  0.0865 -0.4184 -0.1005
 5475TIP3    H116389   4.722   5.465   5.828 -0.9948 -0.2399  0.3502
 5475TIP3    H216390   4.721   5.335   5.906  1.2868 -0.7945 -0.4772
 5476TIP3   OH216391   0.798   1.895   5.660  0.1832  0.1354 -0.3268
 5476TIP3    H116392   0.727   1.957   5.644 -0.5652 -0.3970  0.8183
 5476TIP3    H216393   0.785   1.827   5.593 -1.3212 -0.7213  0.7698
 5477TIP3   OH216394   6.083   5.059   5.575  0.5021  0.1957  0.3786
 5477TIP3    H116395   6.159   5.109   5.545  1.3217 -2.1183 -1.7375
 5477TIP3    H216396   6.118   4.999   5.641  0.2719 -0.0764  0.2558
 5478TIP3   OH216397   0.734   1.237   4.861 -0.2013  0.1424  0.2319
 5478TIP3    H116398   0.643   1.210   4.849 -0.2382  0.0998  0.5811
 5478TIP3    H216399   0.731   1.332   4.860 -0.1237  0.1420 -0.6323
 5479TIP3   OH216400   6.581   2.781   2.841 -0.2337 -0.0631 -0.0322
 5479TIP3    H116401   6.643   2.837   2.888 -3.3851  2.1860  1.9077
 5479TIP3    H216402   6.630   2.749   2.766  2.9104  2.3989  0.7245
 5480TIP3   OH216403   5.568   2.109   3.340 -0.3888 -0.2572 -0.3446
 5480TIP3    H116404   5.644   2.107   3.282 -1.6274  1.7818 -2.1947
 5480TIP3    H216405   5.536   2.019   3.341 -0.2021 -0.4227 -2.7535
 5481TIP3   OH216406   6.266   2.281   2.401  0.3555 -0.2766  0.2622
 5481TIP3    H116407   6.322   2.203   2.396  1.0260 -0.1049  3.2043
 5481TIP3    H216408   6.191   2.252   2.453 -0.9713  0.2701 -1.2653
 5482TIP3   OH216409   2.810   5.390   5.003  0.0265 -0.8507 -0.2827
 5482TIP3    H116410   2.806   5.305   4.959 -0.8169 -1.1315  0.3175
 5482TIP3    H216411   2.903   5.412   5.004  0.0852 -0.9619 -1.9518
 5483TIP3   OH216412   6.248   0.578   5.202 -0.2428  0.2926 -0.2073
 5483TIP3    H116413   6.227   0.493   5.241  1.7050 -0.9077 -1.5784
 5483TIP3    H216414   6.171   0.601   5.151 -1.5044  0.2711  1.5893
 5484TIP3   OH216415   0.281   2.761   3.081 -0.0930 -0.0996 -0.8515
 5484TIP3    H116416   0.355   2.762   3.141 -0.8182 -0.5266  0.0871
 5484TIP3    H216417   0.314   2.799   3.000  0.2781  2.9685  0.5737
 5485TIP3   OH216418   4.683   1.948   4.605 -0.2128  0.0406  0.5224
 5485TIP3    H116419   4.658   1.915   4.519 -1.3037  3.5096 -0.6379
 5485TIP3    H216420   4.618   1.911   4.665 -1.0688 -0.3073 -0.5874
 5486TIP3   OH216421   6.432   1.421   4.381  0.7615 -0.2715  0.2726
 5486TIP3    H116422   6.342   1.432   4.411  0.7683 -2.6567  1.4556
 5486TIP3    H216423   6.424   1.374   4.298  0.8982  1.5936 -0.8394
 5487TIP3   OH216424   0.531   5.140   4.825  0.0442  0.8092 -0.3019
 5487TIP3    H116425   0.588   5.111   4.896 -0.0131 -1.3812 -1.0704
 5487TIP3    H216426   0.442   5.124   4.856 -0.0521  1.4183 -0.2465
 5488TIP3   OH216427   4.456   0.250   0.651 -0.1813 -0.0107 -0.2437
 5488TIP3    H116428   4.363   0.253   0.628  0.2248 -1.8961 -2.4439
 5488TIP3    H216429   4.502   0.262   0.568  1.5481  0.1246  0.6843
 5489TIP3   OH216430   1.208   2.071   3.330  0.1250 -0.0657 -0.3525
 5489TIP3    H116431   1.280   2.134   3.323  1.1459 -0.9849  1.1791
 5489TIP3    H216432   1.151   2.108   3.398  0.0785 -0.1837 -0.3269
 5490TIP3   OH216433   1.186   1.836   3.582 -0.3350  0.2050 -0.0188
 5490TIP3    H116434   1.258   1.867   3.528 -1.0474  0.8672 -0.6062
 5490TIP3    H216435   1.196   1.741   3.585 -0.1167  0.1896 -1.0710
 5491TIP3   OH216436   0.256   2.687  -0.018  0.8523  0.5400  0.1295
 5491TIP3    H116437   0.260   2.617   0.047 -0.1725 -1.4938 -1.8779
 5491TIP3    H216438   0.178   2.737   0.005  0.6729  0.0358  0.6344
 5492TIP3   OH216439   1.334   2.714   2.812  0.3624 -0.2400  0.3031
 5492TIP3    H116440   1.394   2.756   2.750 -0.1053  1.4451  0.9253
 5492TIP3    H216441   1.320   2.626   2.777  0.2216  0.5971 -1.9280
 5493TIP3   OH216442   6.127   1.238   4.209 -0.4135  0.1718 -0.3462
 5493TIP3    H116443   6.099   1.329   4.205  1.2227  0.7725  0.6755
 5493TIP3    H216444   6.223   1.243   4.210 -0.2442 -1.6555 -2.0634
 5494TIP3   OH216445   1.373   2.125   4.475 -0.2387  0.1450 -0.3073
 5494TIP3    H116446   1.325   2.175   4.408 -0.8342  0.7443  0.5530
 5494TIP3    H216447   1.432   2.069   4.424 -1.6677 -0.4548 -1.4012
 5495TIP3   OH216448   0.685   5.661   3.699 -0.5765  0.0924  0.4987
 5495TIP3    H116449   0.616   5.651   3.634 -1.0869  0.5589  0.9570
 5495TIP3    H216450   0.680   5.753   3.725  0.9279  0.4149 -0.2431
 5496TIP3   OH216451   5.391   6.374   0.792 -0.0924  0.2457  0.0829
 5496TIP3    H116452   5.336   6.429   0.737  2.4624  0.8000 -2.1437
 5496TIP3    H216453   5.460   6.433   0.823  0.6335 -0.9064  0.7371
 5497TIP3   OH216454   6.588   6.172   4.748 -0.3625  0.4477  0.1024
 5497TIP3    H116455   6.667   6.155   4.696  0.0025  0.4515  0.6416
 5497TIP3    H216456   6.621   6.212   4.828 -0.8807  0.1232  0.4843
 5498TIP3   OH216457   3.011   0.124   0.928 -0.9863 -0.1502  0.0372
 5498TIP3    H116458   3.013   0.043   0.979 -1.7054  0.1742  0.5982
 5498TIP3    H216459   3.011   0.095   0.837  0.0693 -0.7410  0.2148
 5499TIP3   OH216460   4.463   0.992   1.537  0.0262  0.9891  0.6823
 5499TIP3    H116461   4.495   0.924   1.596  2.2132  1.2072 -0.1367
 5499TIP3    H216462   4.468   1.073   1.587  1.9675  1.1879  0.2599
 5500TIP3   OH216463   4.797   1.375   4.972  0.2957  0.2953  0.1893
 5500TIP3    H116464   4.789   1.282   4.991  2.5861 -0.4710 -2.0888
 5500TIP3    H216465   4.887   1.397   4.997  1.1330  0.8388 -2.9748
 5501TIP3   OH216466   4.478   5.263   4.512  0.1158 -0.2752 -0.2456
 5501TIP3    H116467   4.463   5.229   4.600  0.1744 -0.8324 -0.4480
 5501TIP3    H216468   4.566   5.234   4.489 -0.1605 -0.7289 -0.7571
 5502TIP3   OH216469   5.437   2.545   0.679  0.3138 -0.3395 -0.1092
 5502TIP3    H116470   5.525   2.578   0.661  0.6234  0.3353  2.2078
 5502TIP3    H216471   5.416   2.581   0.766 -2.5897  0.2157 -0.9358
 5503TIP3   OH216472   6.800   0.459   4.581 -0.0535 -0.2165  0.3883
 5503TIP3    H116473   6.744   0.391   4.619 -1.1215 -0.5702 -1.6915
 5503TIP3    H216474   6.783   0.536   4.635 -2.9429 -0.1896 -0.3916
 5504TIP3   OH216475   1.186   5.485   0.366 -0.7051  0.2733  0.6257
 5504TIP3    H116476   1.110   5.465   0.421 -1.2241  2.8769  0.9833
 5504TIP3    H216477   1.158   5.560   0.314  1.9278  1.9609  1.4970
 5505TIP3   OH216478   3.059   3.751   3.963 -0.1786  0.0837 -0.0478
 5505TIP3    H116479   3.096   3.666   3.987 -0.4123 -0.6436 -2.1050
 5505TIP3    H216480   3.121   3.787   3.900 -0.3385  1.2337  0.4314
 5506TIP3   OH216481   5.225   1.189   2.179 -0.1658 -0.2202  0.4124
 5506TIP3    H116482   5.131   1.208   2.181 -0.4356 -1.2626 -0.7313
 5506TIP3    H216483   5.258   1.241   2.105 -0.1104 -0.8530 -0.0197
 5507TIP3   OH216484   0.740   0.456   5.322  0.4851  0.3623  0.2433
 5507TIP3    H116485   0.761   0.407   5.242 -0.0589  1.4028 -0.5587
 5507TIP3    H216486   0.649   0.434   5.341  0.3308  0.8244  0.0491
 5508TIP3   OH216487   5.846   1.646   0.565 -0.1958 -0.0596 -0.3057
 5508TIP3    H116488   5.909   1.581   0.596 -0.2103 -0.9089 -1.9683
 5508TIP3    H216489   5.770   1.634   0.621  0.0405 -1.0464 -0.1859
 5509TIP3   OH216490   4.493   6.059   5.360 -0.1236  0.0836  0.2744
 5509TIP3    H116491   4.585   6.048   5.384 -0.3355 -1.1909  0.6132
 5509TIP3    H216492   4.457   5.970   5.362 -1.2277  0.4921 -0.4161
 5510TIP3   OH216493   6.754   1.536   1.071  0.1219  0.5967 -0.1330
 5510TIP3    H116494   6.665   1.559   1.097 -1.7142 -2.2880 -2.9650
 5510TIP3    H216495   6.777   1.602   1.006 -0.4632  0.7307 -0.2155
 5511TIP3   OH216496   7.198   3.611   5.464 -0.2412  0.1208 -0.1967
 5511TIP3    H116497   7.185   3.516   5.463  1.5440 -0.1679  0.4052
 5511TIP3    H216498   7.223   3.631   5.554  1.5359  0.8019 -0.7994
 5512TIP3   OH216499   6.935   6.490   1.585  0.0824  0.1760 -0.8525
 5512TIP3    H116500   6.955   6.579   1.556  1.5463 -0.0250 -0.5599
 5512TIP3    H216501   6.959   6.434   1.511 -1.5114  0.0580 -1.3025
 5513TIP3   OH216502   4.848   3.136   2.328 -0.6373  0.3225  0.1218
 5513TIP3    H116503   4.885   3.050   2.307  0.1087  0.5724  0.3976
 5513TIP3    H216504   4.853   3.185   2.246 -1.5807 -0.0681 -0.1863
 5514TIP3   OH216505   0.537   2.801   4.767  0.2645 -0.4764  0.3320
 5514TIP3    H116506   0.444   2.823   4.777  0.4706 -0.0395  1.4961
 5514TIP3    H216507   0.565   2.849   4.690 -0.7583 -1.6154 -0.8156
 5515TIP3   OH216508   4.320   5.116   0.661 -0.4410 -0.1049 -0.1534
 5515TIP3    H116509   4.335   5.106   0.567  1.0953 -0.2104  0.0787
 5515TIP3    H216510   4.302   5.028   0.692  0.2487 -0.2565 -0.1666
 5516TIP3   OH216511   3.476   4.858   4.498 -0.4053  0.7207 -0.2594
 5516TIP3    H116512   3.514   4.893   4.418  2.0374  0.0842  0.5267
 5516TIP3    H216513   3.435   4.776   4.471 -0.4137  0.9726 -1.0223
 5517TIP3   OH216514   1.856   2.685   2.627 -0.1596  0.4367  0.2333
 5517TIP3    H116515   1.846   2.750   2.696 -1.6647 -0.6435  1.1100
 5517TIP3    H216516   1.933   2.633   2.653 -0.6443  0.1163  1.0523
 5518TIP3   OH216517   2.066   5.108   2.651 -0.4493  0.8561  0.0710
 5518TIP3    H116518   2.143   5.076   2.605  0.4524 -0.4840  2.3363
 5518TIP3    H216519   2.004   5.035   2.648 -0.3740  0.7423  0.9192
 5519TIP3   OH216520   2.450   5.190   5.267  0.4259 -0.2787  0.8850
 5519TIP3    H116521   2.443   5.279   5.232  1.7811  0.6915  2.8726
 5519TIP3    H216522   2.360   5.167   5.290 -0.0777  0.1629 -0.5394
 5520TIP3   OH216523   6.267   4.836   3.235 -0.2121 -0.1470 -0.0317
 5520TIP3    H116524   6.227   4.758   3.271  0.3574 -0.7457 -0.6649
 5520TIP3    H216525   6.342   4.854   3.292  1.3322 -1.7159 -1.4375
 5521TIP3   OH216526   6.802   4.865   3.599 -0.1961  0.7698 -0.2928
 5521TIP3    H116527   6.774   4.780   3.566  0.3983  0.9807 -1.3857
 5521TIP3    H216528   6.787   4.861   3.693 -0.6437 -0.3578 -0.4063
 5522TIP3   OH216529   2.816   1.086   5.508  0.0849  0.5219  0.1203
 5522TIP3    H116530   2.864   1.137   5.573  0.9939 -0.6587  0.4104
 5522TIP3    H216531   2.838   0.995   5.529  0.1381  0.1094 -1.6420
 5523TIP3   OH216532   0.691   0.474   0.794  0.3668 -0.4644  0.0497
 5523TIP3    H116533   0.755   0.545   0.792 -0.3986  0.2705  0.6546
 5523TIP3    H216534   0.694   0.443   0.885  0.6221 -1.1538 -0.1862
 5524TIP3   OH216535   1.572   6.398   0.688  0.2662  0.2711 -0.0701
 5524TIP3    H116536   1.520   6.320   0.669  2.0707 -0.9676 -0.2037
 5524TIP3    H216537   1.541   6.464   0.626 -0.3942 -0.7532 -0.8485
 5525TIP3   OH216538   4.174   6.110   2.152  0.9640  1.0832 -0.6191
 5525TIP3    H116539   4.128   6.029   2.173  0.5154  1.6544  0.6630
 5525TIP3    H216540   4.107   6.165   2.110  1.6053  0.3254 -2.8140
 5526TIP3   OH216541   5.607   1.441   5.299  0.2362 -0.1075 -0.4073
 5526TIP3    H116542   5.559   1.509   5.251  1.0965 -0.4819 -1.8763
 5526TIP3    H216543   5.678   1.488   5.342  0.8461 -0.0423 -1.4437
 5527TIP3   OH216544   6.299   6.725   0.954 -0.5152  0.0461  0.6538
 5527TIP3    H116545   6.283   6.762   0.867 -0.5328 -0.1070  0.5934
 5527TIP3    H216546   6.212   6.701   0.986 -0.5338  0.3125  0.8061
 5528TIP3   OH216547   4.049   2.680   5.388  0.3806 -0.1867 -0.1158
 5528TIP3    H116548   3.989   2.714   5.321 -2.1775  1.3460  2.6763
 5528TIP3    H216549   4.135   2.712   5.362 -1.0469  3.6966 -0.8179
 5529TIP3   OH216550   6.832   4.114   1.660  0.3283 -0.5538  0.4859
 5529TIP3    H116551   6.916   4.143   1.695  0.8161 -0.6290 -0.6078
 5529TIP3    H216552   6.849   4.092   1.569 -0.7558 -1.1164  0.3952
 5530TIP3   OH216553   2.158   2.270   2.538  0.4490 -0.0992  0.1441
 5530TIP3    H116554   2.107   2.308   2.466  2.1303 -0.3304 -1.2301
 5530TIP3    H216555   2.101   2.202   2.573 -0.3115 -0.1705 -1.1410
 5531TIP3   OH216556   4.268   2.925   1.377 -0.1446  0.0148 -0.3089
 5531TIP3    H116557   4.341   2.869   1.353 -0.7470 -0.2204 -1.6838
 5531TIP3    H216558   4.284   2.948   1.469  3.1115  2.2633 -1.2959
 5532TIP3   OH216559   4.110   2.368   0.053 -0.3012  0.0313 -0.2522
 5532TIP3    H116560   4.055   2.396   0.127  0.9777  3.7546 -0.5262
 5532TIP3    H216561   4.197   2.356   0.091  0.0960  0.7474 -0.9062
 5533TIP3   OH216562   0.612   5.341   2.127 -0.0738 -0.5580 -0.2632
 5533TIP3    H116563   0.560   5.372   2.053 -1.6683 -0.6567  0.7471
 5533TIP3    H216564   0.662   5.417   2.156 -0.6367 -0.0882 -0.4936
 5534TIP3   OH216565   2.244   6.135   5.067  0.1846 -0.4368  0.0225
 5534TIP3    H116566   2.335   6.136   5.098 -0.2528  0.7860  1.3720
 5534TIP3    H216567   2.192   6.160   5.144 -1.2410 -0.5152 -0.8809
 5535TIP3   OH216568   3.914   4.342   0.816 -0.5369 -0.3682 -0.1164
 5535TIP3    H116569   4.009   4.338   0.828 -0.7179 -0.5814  1.3424
 5535TIP3    H216570   3.887   4.250   0.810 -0.8573 -0.3770  1.2904
 5536TIP3   OH216571   7.200   0.027   1.253  0.2528  0.0565  0.3142
 5536TIP3    H116572   7.237  -0.053   1.216  0.0996  0.1932 -0.1518
 5536TIP3    H216573   7.163   0.073   1.177  1.9508  1.4597  0.2821
 5537TIP3   OH216574   1.606   3.940   2.113  0.4645  0.3521 -0.5373
 5537TIP3    H116575   1.577   4.027   2.138  2.0986  0.4219  1.4279
 5537TIP3    H216576   1.538   3.881   2.147  0.2849  0.7687 -0.1619
 5538TIP3   OH216577   3.302   1.316   4.677  0.4389 -0.4184 -0.1803
 5538TIP3    H116578   3.356   1.245   4.712  3.3412  1.7420  0.1102
 5538TIP3    H216579   3.280   1.288   4.587 -1.6925 -3.1831  1.0374
 5539TIP3   OH216580   6.525   2.804   5.161 -0.6831  0.2826  0.4065
 5539TIP3    H116581   6.491   2.862   5.093  1.8993  0.6834 -0.6620
 5539TIP3    H216582   6.500   2.716   5.133  1.0654  0.3570 -1.6211
 5540TIP3   OH216583   2.839   2.520   1.012  0.4435 -0.2340 -0.2345
 5540TIP3    H116584   2.924   2.561   1.025  0.6897 -0.8300  0.0894
 5540TIP3    H216585   2.838   2.492   0.921  0.5990 -0.2494 -0.2304
 5541TIP3   OH216586   4.310   5.705   0.470 -0.4400 -0.0993 -0.2261
 5541TIP3    H116587   4.334   5.792   0.438  0.2022 -0.7920 -1.7426
 5541TIP3    H216588   4.393   5.666   0.497 -0.2715 -1.2464 -2.2348
 5542TIP3   OH216589   2.071   3.379   1.582 -0.3257  0.6537 -0.3540
 5542TIP3    H116590   1.976   3.389   1.587 -0.3386  0.7097 -0.6980
 5542TIP3    H216591   2.105   3.435   1.652 -0.5010  1.4641 -0.9046
 5543TIP3   OH216592   2.837   2.584   0.164  0.3612  0.4773 -0.1683
 5543TIP3    H116593   2.849   2.534   0.245  1.0209  0.4345 -0.2906
 5543TIP3    H216594   2.787   2.525   0.107  0.9355  0.0431 -0.2275
 5544TIP3   OH216595   5.927   2.700   1.690 -0.3076 -0.2853  0.5772
 5544TIP3    H116596   5.994   2.753   1.734 -0.2848 -0.8793  1.2918
 5544TIP3    H216597   5.973   2.657   1.619 -0.1280 -0.0305  0.5367
 5545TIP3   OH216598   1.235   2.913   0.383 -0.1706 -0.0810 -0.7059
 5545TIP3    H116599   1.263   2.938   0.295 -0.3197  0.8321 -0.5099
 5545TIP3    H216600   1.297   2.845   0.409  1.8838  1.7958 -0.3191
 5546TIP3   OH216601   6.280   6.460   3.038  0.1430  0.7196  0.0551
 5546TIP3    H116602   6.196   6.455   2.992 -0.0857 -0.5660  0.5887
 5546TIP3    H216603   6.341   6.492   2.972 -0.0708 -1.5450 -1.3258
 5547TIP3   OH216604   6.671   0.424   3.477  0.8206  0.3811 -0.3439
 5547TIP3    H116605   6.660   0.337   3.517  2.5768  0.2382 -0.0643
 5547TIP3    H216606   6.750   0.458   3.518  0.2992  2.0217 -0.6536
 5548TIP3   OH216607   5.797   0.234   1.068 -0.2185 -0.2934  0.6275
 5548TIP3    H116608   5.714   0.263   1.106 -0.4151 -0.2180  0.1343
 5548TIP3    H216609   5.781   0.228   0.974  0.0836 -1.1097  0.6162
 5549TIP3   OH216610   7.170   3.970   4.716  0.4297 -0.1541 -0.5279
 5549TIP3    H116611   7.256   3.969   4.757  1.1650  1.3264 -1.9139
 5549TIP3    H216612   7.168   4.051   4.665 -1.9644  0.0966 -0.1848
 5550TIP3   OH216613   2.118   5.075   0.469 -0.2829 -0.7323 -0.7691
 5550TIP3    H116614   2.069   5.117   0.398 -0.9690  2.8627  1.5529
 5550TIP3    H216615   2.051   5.051   0.533  0.4651 -2.3383 -0.5353
 5551TIP3   OH216616   5.271   5.297   1.318  0.0845  0.7457 -0.5248
 5551TIP3    H116617   5.215   5.240   1.266 -2.6392  0.9993  1.8365
 5551TIP3    H216618   5.217   5.376   1.333  1.3743  1.3638  1.1908
 5552TIP3   OH216619   2.587   5.318   0.381 -0.2967 -0.7140  0.0288
 5552TIP3    H116620   2.663   5.294   0.328 -1.2851 -2.9119 -0.5129
 5552TIP3    H216621   2.595   5.264   0.460 -0.1977  0.6467  0.9919
 5553TIP3   OH216622   4.428   2.281   0.938 -0.2599  0.2787 -0.4774
 5553TIP3    H116623   4.451   2.260   1.028  0.0271 -0.4453 -0.7154
 5553TIP3    H216624   4.352   2.225   0.919 -3.1431  3.4088  0.6801
 5554TIP3   OH216625   0.294   5.321   1.262 -0.3196  0.0769 -0.1258
 5554TIP3    H116626   0.355   5.358   1.326  0.7361 -1.3271 -0.2691
 5554TIP3    H216627   0.218   5.380   1.264  0.3929  1.0031  1.1734
 5555TIP3   OH216628   0.474   5.659   3.134  0.5861 -0.4490  0.0593
 5555TIP3    H116629   0.557   5.702   3.113 -0.0762  0.8318  0.0218
 5555TIP3    H216630   0.430   5.648   3.050 -0.5110  1.4660  0.3408
 5556TIP3   OH216631   3.871   2.062   0.381  0.2162 -0.2636  0.2094
 5556TIP3    H116632   3.812   2.122   0.426 -0.3581 -0.4143 -0.3319
 5556TIP3    H216633   3.876   2.095   0.291  1.3713  0.0513  0.3633
 5557TIP3   OH216634   1.620   2.761   4.507 -0.2928 -0.2204  0.3228
 5557TIP3    H116635   1.537   2.785   4.467  0.4644  1.5547 -0.2870
 5557TIP3    H216636   1.600   2.686   4.563 -1.9092 -1.0809 -1.3187
 5558TIP3   OH216637   4.950   1.692   5.553 -0.1425  0.0253  0.2163
 5558TIP3    H116638   4.990   1.733   5.476 -0.2295 -2.4866 -1.2790
 5558TIP3    H216639   5.023   1.651   5.599 -0.4185 -0.7064  0.0080
 5559TIP3   OH216640   4.867   3.318   2.115 -0.3024 -0.0656  0.1706
 5559TIP3    H116641   4.901   3.401   2.147  0.9640 -0.6407  0.4140
 5559TIP3    H216642   4.852   3.332   2.022  0.5995  0.2411  0.0599
 5560TIP3   OH216643   1.386   3.777   3.820  0.3431  0.0609 -0.0675
 5560TIP3    H116644   1.388   3.686   3.791  2.0548  0.3100 -0.8483
 5560TIP3    H216645   1.454   3.783   3.887 -0.9996  0.3788  1.3289
 5561TIP3   OH216646   2.729   0.110   5.361  0.4160  0.3202  0.6696
 5561TIP3    H116647   2.753   0.191   5.405  0.9213  0.8387 -0.5148
 5561TIP3    H216648   2.727   0.133   5.268  2.2421 -1.4018  0.1330
 5562TIP3   OH216649   4.513   5.408   0.422  0.2612  0.0128 -0.2127
 5562TIP3    H116650   4.563   5.332   0.392  1.1999  0.9270 -1.0471
 5562TIP3    H216651   4.566   5.443   0.494  0.0203  0.0841 -0.0723
 5563TIP3   OH216652   3.667   4.853   3.669 -0.0142 -0.0752 -0.5164
 5563TIP3    H116653   3.642   4.847   3.577 -0.9487 -0.8684 -0.2308
 5563TIP3    H216654   3.737   4.918   3.671  0.9223 -0.9837 -1.9697
 5564TIP3   OH216655   6.149   4.065   5.615 -0.4554  0.7019  0.0322
 5564TIP3    H116656   6.183   4.028   5.534 -0.7126 -0.1712  0.3215
 5564TIP3    H216657   6.070   4.112   5.589 -1.0153 -0.3010 -0.0930
 5565TIP3   OH216658   0.245   3.391   0.688  0.4056 -0.1575 -0.4211
 5565TIP3    H116659   0.326   3.410   0.736 -1.0822  1.3765  1.7400
 5565TIP3    H216660   0.258   3.304   0.652  3.3801  0.4368 -1.0753
 5566TIP3   OH216661   0.707   0.157   1.403 -0.2364 -0.1098  0.1556
 5566TIP3    H116662   0.750   0.127   1.484  0.1202  2.7402  1.1452
 5566TIP3    H216663   0.672   0.077   1.363  1.5795 -1.9077  1.9276
 5567TIP3   OH216664   2.000   5.345   2.522  0.3001 -0.4358 -0.0243
 5567TIP3    H116665   2.036   5.286   2.587 -0.9726  0.0561  1.1994
 5567TIP3    H216666   2.055   5.423   2.526 -1.2147  0.6200  2.3812
 5568TIP3   OH216667   0.566   5.258   0.316  0.2941  0.3000 -0.0814
 5568TIP3    H116668   0.570   5.261   0.412  1.9280  1.5615 -0.1498
 5568TIP3    H216669   0.639   5.312   0.287 -2.2067  2.9561 -2.0439
 5569TIP3   OH216670   2.702   1.468   2.573  0.2591  0.7852 -0.3652
 5569TIP3    H116671   2.676   1.412   2.647  0.5884  2.9084  1.4710
 5569TIP3    H216672   2.627   1.467   2.514 -0.4621 -0.1243  0.5367
 5570TIP3   OH216673   3.878   0.206   4.867 -0.1212  0.1804 -0.2864
 5570TIP3    H116674   3.819   0.282   4.866 -1.9033 -1.0769  1.4362
 5570TIP3    H216675   3.919   0.208   4.953 -0.0471 -0.7180 -0.2946
 5571TIP3   OH216676   4.247   5.605   1.833 -0.2109  0.2366 -0.5252
 5571TIP3    H116677   4.261   5.534   1.895 -2.0602  0.0101 -0.3126
 5571TIP3    H216678   4.335   5.638   1.814  0.6067 -1.4171  0.1597
 5572TIP3   OH216679   5.654   6.594   5.591 -0.6714  0.2929  0.3344
 5572TIP3    H116680   5.638   6.688   5.581 -0.2329  0.4318  0.8638
 5572TIP3    H216681   5.659   6.581   5.686 -4.1182 -0.8504  0.4655
 5573TIP3   OH216682   7.078   3.514   1.843  0.0914 -0.5642 -0.3318
 5573TIP3    H116683   7.108   3.603   1.862  0.4509 -0.4258 -1.4823
 5573TIP3    H216684   6.997   3.526   1.793  0.9693 -0.8360 -1.8628
 5574TIP3   OH216685   6.685   4.497   4.473  0.2599 -0.2103  0.7495
 5574TIP3    H116686   6.724   4.417   4.437  1.4034  1.5656 -2.2743
 5574TIP3    H216687   6.599   4.468   4.505  0.2938 -2.5607 -0.9552
 5575TIP3   OH216688   1.087   6.642   1.053 -0.7507 -1.0296  0.1451
 5575TIP3    H116689   1.101   6.557   1.011  1.1423 -0.2288 -0.9612
 5575TIP3    H216690   1.096   6.624   1.146  0.2853 -1.9559 -0.1069
 5576TIP3   OH216691   3.745   4.077   4.358 -0.0949  0.0781 -0.0977
 5576TIP3    H116692   3.653   4.101   4.358  0.1223  1.3427  3.2345
 5576TIP3    H216693   3.784   4.132   4.290 -1.4848  0.8930 -0.2691
 5577TIP3   OH216694   1.079   2.394   5.178  0.3655 -1.0166 -0.3920
 5577TIP3    H116695   1.010   2.345   5.224  1.0568 -2.1552 -0.5313
 5577TIP3    H216696   1.160   2.368   5.221  0.7506  0.1558 -0.3724
 5578TIP3   OH216697   0.304   2.426   3.869 -0.2891 -0.0460  0.5377
 5578TIP3    H116698   0.390   2.460   3.844 -0.3768 -0.4949 -0.4149
 5578TIP3    H216699   0.305   2.335   3.840 -0.9498 -0.1698  0.8808
 5579TIP3   OH216700   5.838   3.051   1.927  0.1690  0.3099 -0.2050
 5579TIP3    H116701   5.876   3.071   2.013 -0.2937  0.0294  0.0749
 5579TIP3    H216702   5.779   3.124   1.910  0.9315  0.8165 -0.7049
 5580TIP3   OH216703   4.799   5.794   3.469  0.2154  0.4215 -0.7919
 5580TIP3    H116704   4.722   5.821   3.419 -0.1287  1.0208  0.0445
 5580TIP3    H216705   4.835   5.875   3.504  1.0752  0.1181 -0.9483
 5581TIP3   OH216706   0.847   6.052   1.259  0.0967  0.5111  0.6217
 5581TIP3    H116707   0.908   6.002   1.314  0.2152  0.7988  0.7556
 5581TIP3    H216708   0.874   6.143   1.272 -0.5202  0.6587  0.8717
 5582TIP3   OH216709   0.772   1.168   0.929  0.2837  0.1823  0.2171
 5582TIP3    H116710   0.709   1.211   0.987 -0.5934 -1.5737  0.6379
 5582TIP3    H216711   0.719   1.132   0.857  1.0207  0.0794 -0.2925
 5583TIP3   OH216712   3.586   1.584   3.230 -0.4475  0.0837  0.2156
 5583TIP3    H116713   3.597   1.611   3.321 -1.3178 -1.0650  0.6859
 5583TIP3    H216714   3.664   1.532   3.211 -0.1290  0.5584  0.2082
 5584TIP3   OH216715   3.452   1.926   3.260 -0.5430  0.0865 -0.0936
 5584TIP3    H116716   3.465   1.992   3.193 -0.6871  0.5698  0.3474
 5584TIP3    H216717   3.537   1.916   3.302 -0.4375 -0.2615 -0.3831
 5585TIP3   OH216718   2.636   5.917   1.574 -0.1832 -0.1691 -0.2550
 5585TIP3    H116719   2.712   5.930   1.518 -0.5321 -0.6768 -0.8656
 5585TIP3    H216720   2.659   5.842   1.630  0.1366  0.2927  0.2419
 5586TIP3   OH216721   0.202   0.007   5.792 -0.2734  1.2208  0.5942
 5586TIP3    H116722   0.292  -0.002   5.761  0.0337 -0.2637  1.8065
 5586TIP3    H216723   0.173   0.092   5.758  0.9659  0.9372 -1.2993
 5587TIP3   OH216724   4.469   6.104   4.301  0.1366  0.4657 -0.0336
 5587TIP3    H116725   4.396   6.103   4.363  0.3514  2.6466  0.3562
 5587TIP3    H216726   4.436   6.152   4.225  0.4241 -0.6852 -0.9147
 5588TIP3   OH216727   1.748   5.501   1.769 -0.3194  0.6253 -0.2214
 5588TIP3    H116728   1.772   5.465   1.684  2.6977 -1.2540  1.2498
 5588TIP3    H216729   1.663   5.462   1.788  0.2987 -1.3382 -1.1692
 5589TIP3   OH216730   6.209   4.111   0.984  0.2969 -0.1888 -0.0999
 5589TIP3    H116731   6.125   4.071   1.007  0.5455 -1.5984 -1.4928
 5589TIP3    H216732   6.249   4.132   1.069 -1.5677  0.8216  0.5849
 5590TIP3   OH216733   5.062   0.126   0.776  0.4490  0.3798 -0.2011
 5590TIP3    H116734   5.118   0.156   0.704  1.9901  0.5922  1.0190
 5590TIP3    H216735   5.088   0.180   0.850  0.1987 -1.0472  0.9734
 5591TIP3   OH216736   5.308   3.313   2.655 -0.4001  0.2517 -0.3413
 5591TIP3    H116737   5.322   3.377   2.725  0.7219  0.3667 -0.6615
 5591TIP3    H216738   5.231   3.263   2.684  0.7207 -0.4771  1.5421
 5592TIP3   OH216739   5.538   2.828   5.590  0.0036  0.1853  0.5359
 5592TIP3    H116740   5.454   2.782   5.594  1.1756 -2.0464  1.1601
 5592TIP3    H216741   5.558   2.832   5.496  0.1225 -1.1714  0.4738
 5593TIP3   OH216742   0.816   2.856   5.714  0.5095 -0.1007 -0.2880
 5593TIP3    H116743   0.784   2.834   5.626  0.7342  0.0134 -0.3993
 5593TIP3    H216744   0.788   2.947   5.727 -2.6167 -1.1306  1.1615
 5594TIP3   OH216745   1.366   2.890   2.384 -0.1337 -0.5598 -0.0651
 5594TIP3    H116746   1.387   2.921   2.472 -0.0573  0.8183 -0.5366
 5594TIP3    H216747   1.438   2.923   2.330 -1.4711  0.8683 -1.0586
 5595TIP3   OH216748   3.486   0.240   3.824  0.5266 -0.7839  0.8246
 5595TIP3    H116749   3.534   0.213   3.746 -2.5195 -1.4248 -1.0282
 5595TIP3    H216750   3.507   0.332   3.835  0.2832 -0.3957 -1.4434
 5596TIP3   OH216751   6.058   5.425   1.459 -0.2917 -0.2209 -0.0539
 5596TIP3    H116752   6.047   5.329   1.462  2.6006 -0.6988 -1.6466
 5596TIP3    H216753   6.011   5.452   1.381  0.0392 -0.5456 -0.3675
 5597TIP3   OH216754   5.894   3.947   3.199 -0.0963  0.3021 -0.0670
 5597TIP3    H116755   5.920   3.941   3.291 -1.8121 -1.3860  0.3692
 5597TIP3    H216756   5.812   3.996   3.199  1.3609  2.9837 -1.1112
 5598TIP3   OH216757   5.623   4.467   2.795 -0.0979  0.0843  0.3407
 5598TIP3    H116758   5.549   4.494   2.740 -0.0756 -1.9877 -0.7918
 5598TIP3    H216759   5.693   4.449   2.733  1.3280  1.7071  1.3846
 5599TIP3   OH216760   6.893   4.205   2.170  0.4477  0.0836 -0.0232
 5599TIP3    H116761   6.907   4.206   2.075 -0.2006 -0.1502 -0.1210
 5599TIP3    H216762   6.965   4.151   2.204  1.7393  1.5988 -0.1930
 5600TIP3   OH216763   2.753   2.019   3.406 -0.0274  0.1041 -0.4669
 5600TIP3    H116764   2.825   1.963   3.434  0.1572  0.3809 -0.3755
 5600TIP3    H216765   2.782   2.108   3.430 -0.2679  0.2461 -0.7010
 5601TIP3   OH216766   6.762   2.744   2.254 -0.0110  0.5454 -0.5220
 5601TIP3    H116767   6.673   2.777   2.267 -0.3508 -0.2176 -0.8456
 5601TIP3    H216768   6.817   2.822   2.253 -0.7651  1.0784 -1.0341
 5602TIP3   OH216769   2.963   6.267   1.752  0.1149  0.4051 -0.0385
 5602TIP3    H116770   2.988   6.358   1.767 -0.9176  0.4196  1.9835
 5602TIP3    H216771   2.879   6.257   1.797  1.3597 -2.1479  2.0491
 5603TIP3   OH216772   5.892   5.077   4.753  0.1716  0.5076  0.2257
 5603TIP3    H116773   5.936   5.138   4.811 -0.4995  1.1562  0.0744
 5603TIP3    H216774   5.876   5.127   4.673 -0.3901  0.1436  0.0991
 5604TIP3   OH216775   1.303   0.561   2.108 -1.0515 -0.1155  0.1245
 5604TIP3    H116776   1.267   0.567   2.197 -0.5043  0.1792  0.3343
 5604TIP3    H216777   1.250   0.621   2.056 -0.9845  0.1711  0.3868
 5605TIP3   OH216778   3.117   1.923   5.014  0.3885 -0.6755 -0.5157
 5605TIP3    H116779   3.102   2.016   5.027 -0.9973 -0.6823 -1.8053
 5605TIP3    H216780   3.031   1.883   5.028  1.1985 -1.9351  1.2145
 5606TIP3   OH216781   6.827   3.787   2.124 -0.3450  0.4795 -0.0102
 5606TIP3    H116782   6.783   3.805   2.207 -0.0828 -0.0517  0.2465
 5606TIP3    H216783   6.756   3.776   2.061 -0.5565  0.4286  0.2361
 5607TIP3   OH216784   7.139   2.814   5.197 -0.1220 -0.5923  0.2934
 5607TIP3    H116785   7.224   2.771   5.189  0.1868 -0.0427  0.5929
 5607TIP3    H216786   7.159   2.903   5.226 -0.5079  0.7429 -3.0282
 5608TIP3   OH216787   3.748   4.927   5.085 -0.2958  0.3983  0.1471
 5608TIP3    H116788   3.795   4.878   5.153  1.4879  2.1823  0.3106
 5608TIP3    H216789   3.678   4.972   5.131  0.3235  0.8552  0.6616
 5609TIP3   OH216790   2.323   4.454   2.937 -0.5877  0.1915  0.5643
 5609TIP3    H116791   2.296   4.385   2.876  0.7263 -0.7022  0.9479
 5609TIP3    H216792   2.416   4.468   2.917 -0.9273  2.2106  0.1785
 5610TIP3   OH216793   1.895   1.582   5.087 -0.1041  0.1048  0.3633
 5610TIP3    H116794   1.916   1.494   5.119 -0.3280  0.2027  0.7831
 5610TIP3    H216795   1.968   1.636   5.117 -1.3055  0.6110  2.5460
 5611TIP3   OH216796   6.336   0.442   4.684 -0.2312  0.0774 -0.4262
 5611TIP3    H116797   6.320   0.504   4.613 -0.8499  0.6747  0.2138
 5611TIP3    H216798   6.335   0.496   4.764  1.2463 -0.4451 -0.0137
 5612TIP3   OH216799   6.336   2.739   4.724  0.3515 -0.5419 -0.1170
 5612TIP3    H116800   6.420   2.772   4.692  0.5344  0.7431  1.5748
 5612TIP3    H216801   6.353   2.712   4.814 -0.8220 -1.2696 -0.0911
 5613TIP3   OH216802   0.120   3.998   4.450  0.1767 -0.2925  0.7959
 5613TIP3    H116803   0.039   3.968   4.491  0.9384 -1.3283  1.6013
 5613TIP3    H216804   0.098   4.084   4.413 -1.1617 -0.3661  1.3719
 5614TIP3   OH216805   4.540   0.249   5.469 -0.1484  0.6661  0.5115
 5614TIP3    H116806   4.626   0.242   5.429 -0.7166  0.2346 -0.6837
 5614TIP3    H216807   4.521   0.161   5.501 -0.6146  0.4914 -0.2384
 5615TIP3   OH216808   1.906   3.631   0.511  0.8430 -0.7226  0.3935
 5615TIP3    H116809   1.932   3.540   0.498  0.8344 -0.8691  1.3682
 5615TIP3    H216810   1.848   3.650   0.436  2.1138 -1.0034 -0.6995
 5616TIP3   OH216811   2.951   3.468   4.594  0.2105  0.1198 -0.0110
 5616TIP3    H116812   2.880   3.432   4.647  1.2570 -0.0206  1.3446
 5616TIP3    H216813   2.921   3.556   4.571 -0.1174  0.3119  1.1064
 5617TIP3   OH216814   6.128   0.421   2.032 -0.3672 -0.1638 -0.4189
 5617TIP3    H116815   6.138   0.505   1.988  0.7866  0.0810  0.2742
 5617TIP3    H216816   6.039   0.422   2.067 -0.2756  0.8649 -0.2062
 5618TIP3   OH216817   6.408   1.921   4.971 -0.5297 -0.0162 -0.2077
 5618TIP3    H116818   6.434   1.841   4.924 -0.4910 -0.1440  0.0298
 5618TIP3    H216819   6.445   1.911   5.058  0.2184  0.6718 -0.4363
 5619TIP3   OH216820   5.958   4.777   2.132 -0.0552 -0.1384 -0.0523
 5619TIP3    H116821   5.991   4.688   2.123 -0.4531 -0.3781  0.7655
 5619TIP3    H216822   5.871   4.767   2.170  0.7604  0.6686  2.1759
 5620TIP3   OH216823   0.120   4.936   3.453 -0.0198  0.6387  0.4269
 5620TIP3    H116824   0.042   4.907   3.405 -0.4986  0.0634  1.5189
 5620TIP3    H216825   0.187   4.948   3.385 -0.2941 -1.4183 -0.2568
 5621TIP3   OH216826   3.827   0.786   3.242 -0.0075  0.6363 -0.0919
 5621TIP3    H116827   3.852   0.798   3.333 -0.5883 -0.8926  0.3111
 5621TIP3    H216828   3.731   0.776   3.244  0.0891 -0.7284 -0.6607
 5622TIP3   OH216829   2.273   1.793   5.888  0.2051  0.0908 -0.3542
 5622TIP3    H116830   2.214   1.791   5.812 -1.8606  1.5831  1.1061
 5622TIP3    H216831   2.290   1.886   5.903  1.2594 -0.2211  0.5191
 5623TIP3   OH216832   2.465   6.323   5.168 -0.4205  0.0405  0.2038
 5623TIP3    H116833   2.557   6.340   5.147 -0.3955  1.8277  1.5217
 5623TIP3    H216834   2.460   6.333   5.263 -1.6520 -1.8112  0.3827
 5624TIP3   OH216835   0.301   4.861   3.981  0.2238  0.0261  0.9981
 5624TIP3    H116836   0.364   4.815   4.037  0.2361  0.2983  1.2104
 5624TIP3    H216837   0.355   4.922   3.930  0.3856 -1.0969 -0.2445
 5625TIP3   OH216838   1.064   0.088   1.279 -0.0185 -0.1012  0.0834
 5625TIP3    H116839   1.005   0.053   1.212 -2.7076 -0.0254  2.2379
 5625TIP3    H216840   1.092   0.011   1.328 -0.9630  0.1392  1.0308
 5626TIP3   OH216841   7.089   4.123   1.174  0.1464  0.5575 -0.0797
 5626TIP3    H116842   7.162   4.165   1.218 -0.5835  2.2041 -0.3590
 5626TIP3    H216843   7.044   4.195   1.128 -0.4548 -0.7237 -1.5950
 5627TIP3   OH216844   3.559   6.225   3.980  0.4328 -0.3851 -0.1012
 5627TIP3    H116845   3.643   6.268   3.969  0.3819 -0.2675 -0.0239
 5627TIP3    H216846   3.537   6.237   4.073 -1.2846  2.5639 -0.7531
 5628TIP3   OH216847   0.431   1.048   1.174 -0.1311 -0.3290 -0.0186
 5628TIP3    H116848   0.466   0.970   1.130 -2.5356 -0.1021 -2.5848
 5628TIP3    H216849   0.451   1.120   1.115 -2.9605  0.0860 -0.6044
 5629TIP3   OH216850   3.756   5.404   2.023  0.3534  0.2159  0.4005
 5629TIP3    H116851   3.791   5.434   2.107 -0.8111 -0.2766  1.0829
 5629TIP3    H216852   3.686   5.466   2.002  1.0251  0.6939 -0.5333
 5630TIP3   OH216853   6.150   5.337   5.805 -0.0413 -0.1094  0.4067
 5630TIP3    H116854   6.227   5.392   5.820 -0.6089  0.8097  0.0317
 5630TIP3    H216855   6.167   5.295   5.721  1.4719 -2.4141  1.7465
 5631TIP3   OH216856   2.128   2.678   2.391 -0.0619 -0.1446  0.3011
 5631TIP3    H116857   2.067   2.633   2.451  0.6113  0.0015  1.1175
 5631TIP3    H216858   2.091   2.766   2.383 -1.1970 -0.7052 -1.0320
 5632TIP3   OH216859   4.496   0.566   2.982 -0.5370  0.0269 -0.1708
 5632TIP3    H116860   4.425   0.554   2.919 -0.9665 -0.7122  0.4215
 5632TIP3    H216861   4.568   0.603   2.931 -1.4519  1.1041 -0.7167
 5633TIP3   OH216862   4.599   4.242   5.537  0.0880  0.2885 -0.4279
 5633TIP3    H116863   4.582   4.195   5.456 -0.3714  0.3542 -0.3736
 5633TIP3    H216864   4.585   4.177   5.606  2.0393 -0.2223 -0.4375
 5634TIP3   OH216865   5.021   2.139   1.141  0.6933  0.4693 -0.3683
 5634TIP3    H116866   5.112   2.118   1.125  1.0844 -0.0869  2.1662
 5634TIP3    H216867   4.972   2.064   1.106  1.4237 -0.3955  0.3966
 5635TIP3   OH216868   5.610   6.588   4.566  0.0481 -0.3504  0.2184
 5635TIP3    H116869   5.600   6.498   4.598 -2.5983 -0.2038  0.0788
 5635TIP3    H216870   5.626   6.579   4.473  0.4311 -0.6881  0.3163
 5636TIP3   OH216871   5.639   4.281   4.143 -0.1740  0.6386 -0.0581
 5636TIP3    H116872   5.586   4.247   4.071  0.1229 -1.4340  0.6340
 5636TIP3    H216873   5.670   4.203   4.189 -1.4371  1.8334  3.1294
 5637TIP3   OH216874   6.906   6.466   3.757 -0.4192  0.2500 -0.0317
 5637TIP3    H116875   6.842   6.455   3.827 -1.0118  2.0886 -0.2263
 5637TIP3    H216876   6.854   6.484   3.679  0.2252 -1.9554 -1.0513
 5638TIP3   OH216877   6.715   2.001   1.258  0.0655 -0.8508  0.1797
 5638TIP3    H116878   6.710   1.909   1.286  2.2563 -1.1266 -0.1469
 5638TIP3    H216879   6.798   2.007   1.210 -0.1538  1.2515 -0.0314
 5639TIP3   OH216880   7.005   1.582   5.814  0.1129 -0.1615  0.3758
 5639TIP3    H116881   7.092   1.547   5.832  0.5632  0.1882 -0.9922
 5639TIP3    H216882   7.014   1.677   5.824 -0.5842 -0.2335  2.0066
 5640TIP3   OH216883   2.517   4.544   3.285  0.2413  0.2055  0.0371
 5640TIP3    H116884   2.612   4.546   3.281  0.3400 -2.5884 -0.7444
 5640TIP3    H216885   2.492   4.462   3.242 -2.4720  0.3682  1.0846
 5641TIP3   OH216886   1.147   6.616   1.336  0.3613  0.5940  0.2889
 5641TIP3    H116887   1.222   6.676   1.332 -0.6884  1.9122 -0.2919
 5641TIP3    H216888   1.186   6.530   1.321  1.7043  1.2982 -0.5559
 5642TIP3   OH216889   4.180   6.044   3.597 -0.3942 -0.5591 -0.5062
 5642TIP3    H116890   4.134   5.975   3.646 -0.3684  1.4656  2.7094
 5642TIP3    H216891   4.268   6.045   3.636 -0.0300  0.5211 -1.3231
 5643TIP3   OH216892   3.926   4.987   4.171  0.1649  0.2549  0.4603
 5643TIP3    H116893   4.016   4.974   4.143 -0.2339 -2.4544  0.2108
 5643TIP3    H216894   3.873   4.966   4.095 -0.7351 -0.1739  1.1828
 5644TIP3   OH216895   4.744   6.741  -0.012  0.1626 -0.2814 -0.6816
 5644TIP3    H116896   4.677   6.809  -0.015  0.7709  0.3174 -1.2830
 5644TIP3    H216897   4.815   6.779   0.040  0.0912 -0.8649 -0.1414
 5645TIP3   OH216898   4.537   0.654   1.235 -1.0041  0.3963 -0.0435
 5645TIP3    H116899   4.467   0.719   1.245 -0.6332  0.4970  2.5157
 5645TIP3    H216900   4.570   0.641   1.323  1.0306 -1.0008 -0.9468
 5646TIP3   OH216901   3.306   4.261   4.309  0.4614 -0.2388 -0.3229
 5646TIP3    H116902   3.297   4.283   4.216  1.3266 -0.3237 -0.4342
 5646TIP3    H216903   3.294   4.166   4.313 -0.2510 -0.1577 -0.2433
 5647TIP3   OH216904   0.867   4.196   0.185 -0.2981  0.1670 -0.0573
 5647TIP3    H116905   0.901   4.245   0.260  0.3662  2.0610 -1.5125
 5647TIP3    H216906   0.805   4.256   0.144 -0.5332 -0.7679 -1.1188
 5648TIP3   OH216907   7.038   6.785   4.584  0.1494 -0.2292  0.2012
 5648TIP3    H116908   7.117   6.741   4.616  0.6006  0.4363  0.0335
 5648TIP3    H216909   7.062   6.814   4.495 -1.2577 -2.5469 -1.0324
 5649TIP3   OH216910   0.058   6.458   1.706  0.4255  0.2463  0.0691
 5649TIP3    H116911  -0.011   6.503   1.656  1.1462  1.3407  0.0285
 5649TIP3    H216912   0.023   6.370   1.720 -1.0513  0.8167  0.1875
 5650TIP3   OH216913   3.910   1.586   5.341  0.2228 -0.4876  0.2796
 5650TIP3    H116914   3.880   1.550   5.257 -0.9945  1.9736 -0.4540
 5650TIP3    H216915   3.983   1.642   5.318 -0.9394  1.2458  0.5931
 5651TIP3   OH216916   2.365   1.809   0.174  0.1871  0.2464  0.1883
 5651TIP3    H116917   2.392   1.724   0.138  2.9963  1.3119 -0.4690
 5651TIP3    H216918   2.322   1.787   0.256 -0.6036 -1.8809 -0.7146
 5652TIP3   OH216919   4.374   1.663   2.457 -0.0909  0.3384  0.0087
 5652TIP3    H116920   4.410   1.612   2.529  1.0938 -0.4943 -1.1361
 5652TIP3    H216921   4.448   1.713   2.424 -0.2162 -0.5197 -1.6481
 5653TIP3   OH216922   2.776   1.167   2.488  0.2259 -0.0682 -0.4762
 5653TIP3    H116923   2.806   1.166   2.580  1.4831  0.1613 -0.8594
 5653TIP3    H216924   2.686   1.137   2.492  0.2326  0.0230  0.8561
 5654TIP3   OH216925   1.411   4.789   0.946 -0.2396  0.1214 -0.1865
 5654TIP3    H116926   1.316   4.778   0.953 -0.3695  1.5948  0.6754
 5654TIP3    H216927   1.422   4.863   0.887  0.3458  0.4949  0.3837
 5655TIP3   OH216928   1.867   2.431   0.648 -0.0555  0.5463  0.2338
 5655TIP3    H116929   1.834   2.463   0.564  0.0952 -1.2645 -0.5736
 5655TIP3    H216930   1.821   2.348   0.662  2.2525 -0.8130  0.2913
 5656TIP3   OH216931   6.967   5.280   1.744 -0.0298  0.6972 -0.4110
 5656TIP3    H116932   6.990   5.299   1.835  1.7748  0.4745 -0.7860
 5656TIP3    H216933   6.876   5.250   1.748  0.3325 -0.3135  1.4599
 5657TIP3   OH216934   6.528   3.833   2.399 -0.2616 -0.1819 -0.4147
 5657TIP3    H116935   6.434   3.814   2.392 -0.5851 -0.0278  2.4632
 5657TIP3    H216936   6.570   3.763   2.349 -1.8605 -1.2366 -0.3686
 5658TIP3   OH216937   6.649   5.418   5.822 -0.3481 -0.2774 -0.4305
 5658TIP3    H116938   6.728   5.429   5.769  0.0438 -1.3927 -0.1019
 5658TIP3    H216939   6.680   5.422   5.913 -0.7060 -0.4536 -0.2975
 5659TIP3   OH216940   3.896   3.219   3.611  0.1939 -0.0129 -0.2297
 5659TIP3    H116941   3.967   3.197   3.672  0.1885  1.0998  0.2026
 5659TIP3    H216942   3.938   3.273   3.544 -0.2770  0.8153  0.1332
 5660TIP3   OH216943   5.684   5.974   0.971  0.2289 -0.4022 -0.7962
 5660TIP3    H116944   5.630   6.049   0.996  1.4541 -0.1440  1.2516
 5660TIP3    H216945   5.648   5.946   0.887 -2.1521  0.6384 -0.1982
 5661TIP3   OH216946   3.083   2.372   1.636 -0.1438 -0.2752 -0.0559
 5661TIP3    H116947   3.018   2.302   1.638 -0.4419  0.0078  0.2930
 5661TIP3    H216948   3.153   2.338   1.580  0.9926 -1.9725  2.2360
 5662TIP3   OH216949   3.726   0.346   3.357 -0.2920 -0.0350  0.2062
 5662TIP3    H116950   3.705   0.288   3.284  1.8591  1.4441 -1.7319
 5662TIP3    H216951   3.799   0.400   3.326  1.4025  0.0707  3.7849
 5663TIP3   OH216952   1.369   5.933   3.051 -1.2469 -0.0569 -0.4665
 5663TIP3    H116953   1.453   5.979   3.054 -0.9434 -0.5371 -1.2215
 5663TIP3    H216954   1.359   5.895   3.138 -0.4985 -0.3207 -0.4939
 5664TIP3   OH216955   6.244   5.701   0.349  0.8987  0.4647  0.6071
 5664TIP3    H116956   6.166   5.755   0.332  0.3934 -0.6267 -0.7357
 5664TIP3    H216957   6.288   5.745   0.421 -1.1988  0.8831  1.7237
 5665TIP3   OH216958   2.861   1.014   3.176  0.1029 -0.4187  0.9828
 5665TIP3    H116959   2.939   0.990   3.126 -0.8333 -0.8746 -0.3056
 5665TIP3    H216960   2.886   1.095   3.221  0.6959  0.6234 -1.0459
 5666TIP3   OH216961   6.193   3.665   0.590  0.6827 -0.1970  0.1775
 5666TIP3    H116962   6.187   3.622   0.675 -0.8751  2.6514  1.6290
 5666TIP3    H216963   6.129   3.619   0.535  0.8204 -1.2551  0.8703
 5667TIP3   OH216964   5.675   4.568   1.056  0.1280 -0.6971 -0.5362
 5667TIP3    H116965   5.721   4.501   1.006  0.3317 -1.7834  1.0424
 5667TIP3    H216966   5.679   4.538   1.147 -0.4718  1.0580  0.1234
 5668TIP3   OH216967   5.409   1.222   1.762 -0.3617  0.2591  0.0647
 5668TIP3    H116968   5.319   1.249   1.778 -0.9072 -1.5235  0.2612
 5668TIP3    H216969   5.439   1.185   1.845  0.9718  1.8126  0.3323
 5669TIP3   OH216970   4.252   3.144   1.213 -0.5345 -0.0615 -0.1971
 5669TIP3    H116971   4.266   3.058   1.253 -2.7378 -1.1293 -1.5128
 5669TIP3    H216972   4.340   3.177   1.196  0.5013 -0.3584  3.6039
 5670TIP3   OH216973   0.509   0.447   3.733 -0.1742  1.1322  0.1761
 5670TIP3    H116974   0.492   0.522   3.790 -0.6899  1.9388 -0.9841
 5670TIP3    H216975   0.444   0.456   3.663  0.2477  0.0079 -0.3808
 5671TIP3   OH216976   2.836   5.786   4.661  0.2615  0.3960  0.0156
 5671TIP3    H116977   2.858   5.875   4.636 -0.5279  0.8506  0.8684
 5671TIP3    H216978   2.884   5.770   4.742 -0.0181  0.2472  0.1566
 5672TIP3   OH216979   7.007   0.085   0.821 -0.1316  0.1575  0.0057
 5672TIP3    H116980   7.026   0.104   0.729 -0.7118 -1.0008 -0.3764
 5672TIP3    H216981   6.916   0.054   0.821  0.3560 -1.3494  0.7304
 5673TIP3   OH216982   0.750   0.998   3.797  0.0841  0.5737  1.0492
 5673TIP3    H116983   0.717   0.910   3.814  1.4890 -0.3701 -0.7098
 5673TIP3    H216984   0.782   1.028   3.881  1.2246 -1.3474  1.3587
 5674TIP3   OH216985   2.815   4.854   2.590 -0.6825 -0.1788  0.8209
 5674TIP3    H116986   2.878   4.828   2.657 -0.3897 -1.1833  0.1738
 5674TIP3    H216987   2.797   4.947   2.609  1.2584  0.2452  0.7998
 5675TIP3   OH216988   5.374   2.887   0.155  0.6313 -0.3579  0.2629
 5675TIP3    H116989   5.417   2.902   0.239  1.4252 -0.9323 -0.0267
 5675TIP3    H216990   5.365   2.792   0.148 -0.2054 -0.2739  0.0700
 5676TIP3   OH216991   1.857   3.310   4.310  0.0932  0.2095  0.3095
 5676TIP3    H116992   1.942   3.265   4.319 -1.9156 -3.8605  1.6575
 5676TIP3    H216993   1.821   3.310   4.399 -2.3923 -0.7798 -0.6060
 5677TIP3   OH216994   3.438   0.489   5.791  0.4317  0.3350  0.3104
 5677TIP3    H116995   3.406   0.512   5.878 -0.3000 -2.1374  0.7762
 5677TIP3    H216996   3.488   0.409   5.804  1.4027  0.6162 -1.3888
 5678TIP3   OH216997   1.533   0.274   0.564 -0.1094  0.4637  0.2849
 5678TIP3    H116998   1.510   0.366   0.555  1.4255  0.8855  0.5044
 5678TIP3    H216999   1.458   0.227   0.526 -2.0958  1.6872  2.4075
 5679TIP3   OH217000   1.344   3.856   4.911  0.3238  0.3468 -0.9346
 5679TIP3    H117001   1.406   3.854   4.984  0.5122  0.7006 -1.0818
 5679TIP3    H217002   1.297   3.773   4.917 -0.4792  0.8635  0.2935
 5680TIP3   OH217003   5.207   5.302   0.074  0.2079  0.3505  0.5788
 5680TIP3    H117004   5.277   5.316   0.011  0.4285  0.9057  0.9379
 5680TIP3    H217005   5.232   5.223   0.122  2.1155  2.0805  2.6715
 5681TIP3   OH217006   0.293   5.184   1.044  0.2092  0.9576 -0.0859
 5681TIP3    H117007   0.244   5.251   0.997 -1.4174  0.2061  0.4733
 5681TIP3    H217008   0.295   5.216   1.135 -0.7174  0.2024  0.2158
 5682TIP3   OH217009   5.150   2.263   4.599  0.2614 -0.2987  0.3043
 5682TIP3    H117010   5.124   2.300   4.683  1.3816  1.0996  0.0670
 5682TIP3    H217011   5.183   2.338   4.548  1.5426 -1.4247 -0.6135
 5683TIP3   OH217012   0.254   2.935   2.135  0.2068 -0.2498  0.0888
 5683TIP3    H117013   0.207   3.005   2.181 -0.6365 -0.3334 -0.6283
 5683TIP3    H217014   0.342   2.971   2.121  0.1266  0.2254  0.7291
 5684TIP3   OH217015   4.922   4.560   5.059  0.1505  0.1766  0.2856
 5684TIP3    H117016   4.929   4.511   4.976  0.5208  1.1037 -0.2508
 5684TIP3    H217017   4.838   4.604   5.054 -0.8473 -1.4885  1.4075
 5685TIP3   OH217018   6.232   1.671   1.320 -0.5165 -0.3903 -0.0615
 5685TIP3    H117019   6.172   1.606   1.356 -0.7852 -0.4136 -0.5438
 5685TIP3    H217020   6.305   1.673   1.382  0.1776 -2.1926 -0.7706
 5686TIP3   OH217021   4.256   5.923   0.102  0.0194 -0.3339 -0.4873
 5686TIP3    H117022   4.267   5.937   0.196 -2.4273 -2.1674  0.1864
 5686TIP3    H217023   4.273   5.830   0.089  2.1603  0.2305 -2.2667
 5687TIP3   OH217024   2.997   1.933   5.760  0.4922  0.2414 -0.7455
 5687TIP3    H117025   3.079   1.976   5.735  0.5028 -0.5882 -2.2435
 5687TIP3    H217026   2.939   1.945   5.685 -1.8518  3.2508  1.3052
 5688TIP3   OH217027   4.851   2.790   4.731 -0.4656  0.1691  0.0092
 5688TIP3    H117028   4.910   2.861   4.755 -0.8804 -0.0716  1.8866
 5688TIP3    H217029   4.763   2.829   4.735 -0.7660 -0.6003  1.8922
 5689TIP3   OH217030   1.646   5.100   2.587 -0.1622 -0.1296  0.2318
 5689TIP3    H117031   1.633   5.195   2.584 -1.4916 -0.3139 -0.8847
 5689TIP3    H217032   1.593   5.071   2.661 -0.5110 -0.1031 -0.0065
 5690TIP3   OH217033   4.762   0.378   0.086 -0.3204 -0.0232  0.0176
 5690TIP3    H117034   4.848   0.408   0.116 -0.4220 -0.2978  0.5936
 5690TIP3    H217035   4.769   0.283   0.083 -0.9488 -0.1282  1.1899
 5691TIP3   OH217036   1.633   1.177   4.445 -0.8500 -0.2046  0.1026
 5691TIP3    H117037   1.679   1.130   4.375 -1.8686  0.1848 -0.8562
 5691TIP3    H217038   1.681   1.259   4.455 -0.6626 -0.2916 -0.0725
 5692TIP3   OH217039   0.816   3.394   1.269  0.3868  0.0588 -0.0202
 5692TIP3    H117040   0.792   3.321   1.212  2.2099 -0.3697 -0.2963
 5692TIP3    H217041   0.867   3.354   1.339 -1.2084  0.6792  1.5820
 5693TIP3   OH217042   6.743   5.154   1.901  0.1304  0.3724  0.4725
 5693TIP3    H117043   6.753   5.061   1.882  0.6430  0.7527 -1.2921
 5693TIP3    H217044   6.659   5.178   1.861 -0.4332  0.4897  1.7007
 5694TIP3   OH217045   2.189   1.964   2.158 -0.1039 -0.1196  0.7301
 5694TIP3    H117046   2.249   1.969   2.233  0.2780 -1.2131  0.5146
 5694TIP3    H217047   2.228   2.023   2.093  0.9715 -1.1012  0.4515
 5695TIP3   OH217048   3.555   3.681   0.732 -0.1017  1.0922 -0.7659
 5695TIP3    H117049   3.549   3.602   0.785 -1.2842 -0.9388 -3.6496
 5695TIP3    H217050   3.474   3.729   0.750 -2.1770 -1.2770 -2.9942
 5696TIP3   OH217051   5.474   2.878   3.791  0.5420  0.2832 -0.0891
 5696TIP3    H117052   5.441   2.819   3.860  2.0405 -1.4868 -0.8148
 5696TIP3    H217053   5.418   2.860   3.716 -0.5625  1.6167  0.3760
 5697TIP3   OH217054   4.222   2.117   2.619 -0.5657 -0.6607 -0.2301
 5697TIP3    H117055   4.160   2.048   2.642 -1.3843 -0.4205 -1.6279
 5697TIP3    H217056   4.307   2.074   2.619 -0.8505 -1.2572  0.5943
 5698TIP3   OH217057   0.918   3.526   5.347 -0.2196 -0.5329 -0.2739
 5698TIP3    H117058   0.828   3.499   5.363  0.2273 -2.0812 -0.1582
 5698TIP3    H217059   0.948   3.469   5.276  0.4331  0.4903 -0.8403
 5699TIP3   OH217060   4.219   0.546   4.006  0.0059  1.1483 -0.6659
 5699TIP3    H117061   4.188   0.630   3.971 -0.2701  0.8811 -1.0678
 5699TIP3    H217062   4.141   0.490   4.005 -0.4806  1.6050  1.9421
 5700TIP3   OH217063   3.639   0.145   4.524 -0.2687  0.0834 -0.5692
 5700TIP3    H117064   3.704   0.118   4.588  1.7863  1.4540 -1.9561
 5700TIP3    H217065   3.624   0.238   4.542 -1.9643 -0.2264 -0.2185
 5701TIP3   OH217066   6.018   4.418   4.818 -0.2316 -0.2563  0.2164
 5701TIP3    H117067   6.054   4.351   4.760  1.5793 -0.2634  1.2553
 5701TIP3    H217068   6.070   4.496   4.799 -1.0617  0.3392  0.3383
 5702TIP3   OH217069   1.730   2.944   1.596  0.6132  0.8984  0.1787
 5702TIP3    H117070   1.726   2.848   1.591  2.3067  0.8328 -0.4271
 5702TIP3    H217071   1.802   2.968   1.538  2.0876  2.3355  2.4840
 5703TIP3   OH217072   2.572   0.688   0.176 -0.3950 -0.1646  0.4287
 5703TIP3    H117073   2.584   0.670   0.269  2.4707  1.0650  0.4186
 5703TIP3    H217074   2.661   0.709   0.145 -1.5519  1.3509 -2.1458
 5704TIP3   OH217075   5.661   3.543   5.229  0.0164 -0.0581  0.1415
 5704TIP3    H117076   5.744   3.511   5.264 -0.2081  2.0856  3.0838
 5704TIP3    H217077   5.594   3.494   5.278 -0.3255  1.3777  1.2162
 5705TIP3   OH217078   5.948   2.465   2.377  0.3186  0.7353  0.2337
 5705TIP3    H117079   5.881   2.496   2.437  0.2572  0.8955  0.0841
 5705TIP3    H217080   5.931   2.512   2.295  0.0028  0.0424 -0.1095
 5706TIP3   OH217081   4.889   1.675   1.822 -0.3746 -0.3291 -0.1896
 5706TIP3    H117082   4.973   1.630   1.815  0.3832  0.4076  2.6259
 5706TIP3    H217083   4.832   1.629   1.761  2.1291 -0.6159 -2.5146
 5707TIP3   OH217084   4.998   3.961   3.501  0.2840  0.0248 -0.0268
 5707TIP3    H117085   5.048   3.890   3.461  0.4484  0.5005 -0.6808
 5707TIP3    H217086   5.065   4.023   3.530  0.0743  1.4065 -2.2792
 5708TIP3   OH217087   2.160   4.001   0.454 -0.5602  0.2050  0.0248
 5708TIP3    H117088   2.209   3.936   0.404 -1.9588 -1.5538  0.8404
 5708TIP3    H217089   2.220   4.075   0.462  0.6223 -0.4564 -2.0255
 5709TIP3   OH217090   5.013   6.779   1.566 -0.8195 -0.1524 -0.1217
 5709TIP3    H117091   5.000   6.815   1.478 -1.1283 -0.3424 -0.1555
 5709TIP3    H217092   4.977   6.690   1.560 -0.6995 -0.2179  0.1545
 5710TIP3   OH217093   4.312   2.266   4.480 -0.1072  0.4161 -0.4075
 5710TIP3    H117094   4.357   2.190   4.442  0.0167  0.9526 -1.3851
 5710TIP3    H217095   4.322   2.256   4.574  1.7688  0.3154 -0.5693
 5711TIP3   OH217096   4.719   5.910   4.770  0.3392 -0.4579  0.3312
 5711TIP3    H117097   4.676   5.824   4.769  0.5316 -0.5544  0.4179
 5711TIP3    H217098   4.805   5.895   4.732 -0.9992  0.4354 -3.4656
 5712TIP3   OH217099   0.609   1.000   4.494  0.1395  0.1643  0.2237
 5712TIP3    H117100   0.601   0.954   4.578  1.9654  0.5455  0.6557
 5712TIP3    H217101   0.586   1.090   4.515 -1.7595 -0.1807 -0.2462
 5713TIP3   OH217102   1.137   2.810   1.596 -0.2652 -0.4345  0.6910
 5713TIP3    H117103   1.113   2.717   1.597  0.9137 -0.8276 -1.1336
 5713TIP3    H217104   1.232   2.810   1.605 -0.2345  0.5824  0.5066
 5714TIP3   OH217105   3.659   1.861   0.184  0.2682  0.2892 -0.0059
 5714TIP3    H117106   3.689   1.901   0.266  0.9104  0.8403 -0.5119
 5714TIP3    H217107   3.663   1.931   0.119 -0.0393 -0.2014 -0.5636
 5715TIP3   OH217108   4.676   0.378   4.652  0.2934  0.3066  0.2993
 5715TIP3    H117109   4.703   0.325   4.727  0.1206  0.5027  0.5041
 5715TIP3    H217110   4.634   0.317   4.592  1.2149 -0.0094 -0.0378
 5716TIP3   OH217111   3.072   6.518   0.054  0.2904 -0.0534  0.0032
 5716TIP3    H117112   3.030   6.515   0.140 -0.0747 -0.0584 -0.1733
 5716TIP3    H217113   3.000   6.536  -0.007  0.3914 -0.9443 -0.4004
 5717TIP3   OH217114   2.787   0.788   0.029 -0.0006  0.4199 -0.3462
 5717TIP3    H117115   2.789   0.757  -0.062 -1.5638 -1.6691  0.2498
 5717TIP3    H217116   2.864   0.749   0.069 -1.7932 -2.8543  0.3227
 5718TIP3   OH217117   0.185   6.311   5.179 -0.5569 -0.0448  0.5338
 5718TIP3    H117118   0.250   6.341   5.243 -1.3424  0.3124  1.1737
 5718TIP3    H217119   0.107   6.290   5.231 -0.1814 -2.9195  0.1108
 5719TIP3   OH217120   2.466   5.013   4.003  0.2651  0.2859  0.0525
 5719TIP3    H117121   2.414   5.094   4.003 -0.5482 -0.2089 -1.2278
 5719TIP3    H217122   2.401   4.943   4.002  0.9481 -0.3618 -0.7803
 5720TIP3   OH217123   4.481   3.576   4.225  0.7777  0.5709 -0.2743
 5720TIP3    H117124   4.467   3.588   4.131  0.6847 -0.0670 -0.3474
 5720TIP3    H217125   4.498   3.664   4.258 -0.4572  0.9939 -0.6807
 5721TIP3   OH217126   2.797   6.721   3.854  0.4147  0.3573  1.0378
 5721TIP3    H117127   2.863   6.715   3.785 -0.3706 -0.2008  0.3092
 5721TIP3    H217128   2.820   6.652   3.916  0.7326  0.4110  0.9775
 5722TIP3   OH217129   6.536   3.991   2.629 -0.1148  0.2038 -0.1673
 5722TIP3    H117130   6.479   3.965   2.701  0.9174 -0.8780  0.2889
 5722TIP3    H217131   6.539   3.915   2.571  0.2514  0.5215 -0.5781
 5723TIP3   OH217132   3.913   6.546   0.016 -0.2688  0.7595  0.3133
 5723TIP3    H117133   3.857   6.616  -0.019 -0.9389  0.6242  1.0965
 5723TIP3    H217134   3.969   6.590   0.081  0.5932  0.9031 -0.4967
 5724TIP3   OH217135   5.368   4.532   3.432  0.0161  0.0774  0.5281
 5724TIP3    H117136   5.294   4.471   3.435  0.5693 -0.5545  1.7594
 5724TIP3    H217137   5.440   4.485   3.474  0.4259  1.6277  1.6212
 5725TIP3   OH217138   1.072   6.134   3.704  0.4333 -0.1545 -0.0503
 5725TIP3    H117139   1.092   6.227   3.712  0.5558 -0.1795 -0.0697
 5725TIP3    H217140   1.107   6.108   3.619  2.5541 -0.7642  0.9559
 5726TIP3   OH217141   7.033   6.389   1.358  0.1351 -0.1512 -0.0568
 5726TIP3    H117142   7.119   6.409   1.321  0.6046  0.4840  1.2918
 5726TIP3    H217143   6.982   6.355   1.285  1.4615 -0.3164 -0.9314
 5727TIP3   OH217144   1.377   3.415   2.813  0.4299 -0.6859  0.6509
 5727TIP3    H117145   1.375   3.510   2.803  2.3015 -0.5888  0.7459
 5727TIP3    H217146   1.387   3.382   2.723  2.2937 -0.6052  0.7708
 5728TIP3   OH217147   1.200   5.588   5.298  0.0996  0.9019  0.4775
 5728TIP3    H117148   1.140   5.539   5.241 -0.9653  2.1472  0.4794
 5728TIP3    H217149   1.282   5.540   5.292 -0.5400 -0.1363 -0.5421
 5729TIP3   OH217150   6.737   1.843   3.806 -0.4487 -0.6264 -0.7420
 5729TIP3    H117151   6.749   1.928   3.765 -0.8649 -0.0660  0.2488
 5729TIP3    H217152   6.652   1.812   3.773 -0.7601 -0.2010 -0.3502
 5730TIP3   OH217153   4.858   3.112   3.616 -0.0011  0.0751  0.3700
 5730TIP3    H117154   4.933   3.121   3.557 -0.0451  1.3064  0.4803
 5730TIP3    H217155   4.851   3.017   3.631  1.1528 -0.1098 -0.1214
 5731TIP3   OH217156   4.670   0.140   1.844  0.0231 -0.6128 -0.6846
 5731TIP3    H117157   4.616   0.161   1.920 -0.5653 -0.5399 -1.1184
 5731TIP3    H217158   4.719   0.062   1.870 -0.3517 -0.7257 -0.3120
 5732TIP3   OH217159   3.657   5.547   3.354  0.0356  0.9864  0.6764
 5732TIP3    H117160   3.722   5.479   3.370  0.4341  0.8272 -1.2871
 5732TIP3    H217161   3.589   5.533   3.420  0.0017 -1.4813  0.1955
 5733TIP3   OH217162   3.885   3.759   5.335  0.0590  0.1895  0.4282
 5733TIP3    H117163   3.796   3.787   5.355  0.3563  1.3968  0.1088
 5733TIP3    H217164   3.938   3.839   5.342  1.1113 -0.4983  0.5684
 5734TIP3   OH217165   1.818   4.748   4.386  0.3945  0.2525  0.2412
 5734TIP3    H117166   1.823   4.787   4.298  1.5653  2.2041  1.1207
 5734TIP3    H217167   1.750   4.681   4.378 -0.7258  1.5125 -1.7397
 5735TIP3   OH217168   4.705   5.248   3.316 -0.2250  0.1427  0.2614
 5735TIP3    H117169   4.709   5.239   3.221 -0.9767  2.5733 -0.0911
 5735TIP3    H217170   4.724   5.161   3.350 -0.1531 -0.8389 -2.1115
 5736TIP3   OH217171   3.172   5.074   1.259  0.0766  0.3233  0.0142
 5736TIP3    H117172   3.263   5.056   1.236  0.8997  1.2678  2.2430
 5736TIP3    H217173   3.177   5.147   1.321 -2.1410 -0.1077  0.7917
 5737TIP3   OH217174   4.764   6.076   5.433 -0.1030  0.2575 -0.7629
 5737TIP3    H117175   4.858   6.077   5.414  0.4340 -1.2367  1.4116
 5737TIP3    H217176   4.739   6.168   5.432  1.1244  0.6168 -2.4429
 5738TIP3   OH217177   0.666   3.048   4.910 -0.2035  0.0715  0.3669
 5738TIP3    H117178   0.582   3.075   4.871  0.5302  0.8300 -0.7684
 5738TIP3    H217179   0.722   3.028   4.835  0.9747  0.6721  1.0471
 5739TIP3   OH217180   0.989   2.793   3.407  0.4470 -0.0261  0.0464
 5739TIP3    H117181   0.972   2.699   3.417  0.6283  0.0964  1.8294
 5739TIP3    H217182   1.079   2.798   3.376  0.6497 -0.4250  0.5677
 5740TIP3   OH217183   2.163   5.472   2.768 -0.7266 -0.3522 -0.3533
 5740TIP3    H117184   2.152   5.555   2.721  0.4752 -0.0519 -0.1204
 5740TIP3    H217185   2.257   5.454   2.764 -0.9559 -1.6645 -0.3235
 5741TIP3   OH217186   1.612   5.608   1.438 -0.1229 -0.1430 -0.1702
 5741TIP3    H117187   1.666   5.538   1.476  1.5294 -0.0529 -2.1559
 5741TIP3    H217188   1.609   5.588   1.345  0.2856  2.3505 -0.7910
 5742TIP3   OH217189   4.827   1.646   4.413  0.0215 -0.3838 -0.0908
 5742TIP3    H117190   4.882   1.656   4.335 -0.1748 -0.4281 -0.2358
 5742TIP3    H217191   4.784   1.561   4.400  0.1298 -0.4780  0.1548
 5743TIP3   OH217192   3.371   2.836   1.359 -0.7067  0.2263 -0.3571
 5743TIP3    H117193   3.442   2.823   1.423 -1.3393  1.9177  0.7585
 5743TIP3    H217194   3.328   2.751   1.353  0.8960 -0.6142 -0.4334
 5744TIP3   OH217195   1.342   5.292   5.524 -0.2042  0.1622  0.4423
 5744TIP3    H117196   1.263   5.261   5.479 -0.2331  0.7708  0.0549
 5744TIP3    H217197   1.410   5.230   5.501 -0.8289 -1.0639  1.7445
 5745TIP3   OH217198   2.489   2.399   1.317 -0.2489 -0.4730 -0.0291
 5745TIP3    H117199   2.430   2.390   1.242  1.8289 -0.9894 -1.6753
 5745TIP3    H217200   2.450   2.343   1.385 -1.7613 -0.6061 -0.9482
 5746TIP3   OH217201   0.691   6.289   0.447 -0.5206  0.0433 -0.1251
 5746TIP3    H117202   0.745   6.363   0.473  2.0041 -1.1838 -1.5383
 5746TIP3    H217203   0.603   6.311   0.478  0.4819  2.7802  1.0327
 5747TIP3   OH217204   1.819   4.881   2.684 -0.2071  0.1194  0.0700
 5747TIP3    H117205   1.780   4.966   2.666 -0.4205  0.0050 -0.0184
 5747TIP3    H217206   1.807   4.831   2.603  1.1094  0.4437 -0.3422
 5748TIP3   OH217207   2.873   2.155   0.640  0.0210 -0.5654  0.2743
 5748TIP3    H117208   2.932   2.105   0.584  0.5075 -0.2486  0.4933
 5748TIP3    H217209   2.797   2.175   0.585 -0.5163 -2.1580  0.3939
 5749TIP3   OH217210   3.849   1.098   5.582  0.5221 -0.0494  0.0262
 5749TIP3    H117211   3.881   1.079   5.493  0.2860 -1.3891  0.2214
 5749TIP3    H217212   3.815   1.187   5.575  1.0357  0.0883 -1.0849
 5750TIP3   OH217213   6.790   1.489   1.396 -0.2276 -0.6956 -0.0985
 5750TIP3    H117214   6.759   1.420   1.336  2.4890 -0.5289 -1.8828
 5750TIP3    H217215   6.850   1.444   1.455 -0.7740 -0.3500  0.7359
 5751TIP3   OH217216   7.179   5.253   3.427  0.1751 -0.6837 -0.0384
 5751TIP3    H117217   7.116   5.217   3.489 -0.0810 -0.6514 -0.2788
 5751TIP3    H217218   7.228   5.318   3.478  0.6026 -1.3277  0.3804
 5752TIP3   OH217219   6.086   2.165   2.577 -0.1687 -0.0887 -0.3572
 5752TIP3    H117220   6.063   2.119   2.658 -1.6453  0.6046 -0.3352
 5752TIP3    H217221   6.079   2.099   2.509  1.8139 -0.8621  0.1343
 5753TIP3   OH217222   6.794   0.072   4.300  0.6643 -0.3027 -0.6811
 5753TIP3    H117223   6.868   0.112   4.345  0.3303  0.1086 -0.4917
 5753TIP3    H217224   6.802   0.104   4.210 -0.5711  1.6216 -0.1609
 5754TIP3   OH217225   3.431   0.339   1.050 -0.5545  0.3096  0.0079
 5754TIP3    H117226   3.360   0.343   0.986 -0.9524  1.1076  0.4851
 5754TIP3    H217227   3.496   0.401   1.017 -1.0549  1.2254  0.7158
 5755TIP3   OH217228   6.366   1.448   2.248 -0.0111 -0.2286  0.5506
 5755TIP3    H117229   6.394   1.436   2.158 -0.2121  1.5207  0.2217
 5755TIP3    H217230   6.434   1.405   2.300  2.8721  2.8964 -0.2622
 5756TIP3   OH217231   3.488   0.740   2.441 -0.0366 -0.4369 -0.0579
 5756TIP3    H117232   3.463   0.650   2.464 -2.6540 -0.2072 -1.6074
 5756TIP3    H217233   3.411   0.793   2.461  1.0482  1.3106 -0.2542
 5757TIP3   OH217234   1.639   3.371   3.296  0.2674  0.1551 -0.3454
 5757TIP3    H117235   1.548   3.342   3.300  0.8153 -1.6827  0.0857
 5757TIP3    H217236   1.675   3.328   3.218  0.6322  1.3443 -0.8546
 5758TIP3   OH217237   1.831   2.685   4.359 -0.1470  0.3388 -0.3788
 5758TIP3    H117238   1.792   2.651   4.279 -0.2024 -4.2461  1.2993
 5758TIP3    H217239   1.758   2.689   4.421  0.4120  1.0261  0.2599
 5759TIP3   OH217240   3.612   6.587   3.647 -0.2855 -0.0916  0.7084
 5759TIP3    H117241   3.660   6.653   3.696  0.3703 -1.7158  2.3800
 5759TIP3    H217242   3.616   6.508   3.702 -2.5394 -1.0525 -0.3553
 5760TIP3   OH217243   0.002   1.508   2.142  0.3519  0.3635 -0.0156
 5760TIP3    H117244   0.044   1.434   2.186  0.7693  0.0341 -0.9441
 5760TIP3    H217245   0.056   1.524   2.065 -2.3824 -1.5330 -2.5512
 5761TIP3   OH217246   3.596   2.242   5.199  0.2732  0.0024 -0.2499
 5761TIP3    H117247   3.666   2.243   5.134 -0.2606 -2.3277 -0.9787
 5761TIP3    H217248   3.516   2.229   5.147 -0.3892  0.0707  0.7366
 5762TIP3   OH217249   0.771   0.988   4.257 -0.1810  0.0323 -0.2534
 5762TIP3    H117250   0.764   0.897   4.226  0.9181  0.4125 -1.7617
 5762TIP3    H217251   0.711   0.993   4.331 -0.5013 -1.8412 -0.3332
 5763TIP3   OH217252   4.951   2.927   5.795  0.1769 -0.1416 -0.5022
 5763TIP3    H117253   4.919   3.016   5.811  0.3448 -0.0988 -0.4057
 5763TIP3    H217254   4.872   2.874   5.795  0.2022 -0.2245  0.9961
 5764TIP3   OH217255   6.474   0.269   5.411  0.5150  0.2204 -0.1796
 5764TIP3    H117256   6.492   0.219   5.331  2.2570 -2.1422  1.5215
 5764TIP3    H217257   6.381   0.254   5.428  0.7434 -1.6529 -0.3047
 5765TIP3   OH217258   0.381   0.402   4.229  0.6384 -0.1562 -0.1381
 5765TIP3    H117259   0.297   0.445   4.248  0.9223 -0.4884  2.2069
 5765TIP3    H217260   0.370   0.365   4.142 -2.1034 -1.1524  0.5302
 5766TIP3   OH217261   3.323   4.130   3.545  0.4312  0.1313  0.1054
 5766TIP3    H117262   3.413   4.121   3.577  0.2721 -1.6822  0.1924
 5766TIP3    H217263   3.273   4.156   3.623  0.6622 -0.3541  0.4262
 5767TIP3   OH217264   4.005   6.621   3.803 -0.1754  0.1681  0.1661
 5767TIP3    H117265   4.006   6.558   3.875 -3.6877 -1.1786 -0.7413
 5767TIP3    H217266   4.034   6.571   3.727  2.3898  1.2691  0.3413
 5768TIP3   OH217267   3.149   0.757   3.426 -0.0604 -0.1080  0.3516
 5768TIP3    H117268   3.210   0.777   3.498  0.9833  0.2616 -0.6085
 5768TIP3    H217269   3.204   0.753   3.348 -1.4443  1.7802 -0.8115
 5769TIP3   OH217270   1.977   1.630   2.144 -0.4836 -0.1562  0.3135
 5769TIP3    H117271   1.940   1.718   2.157  0.3880 -0.0289  2.4103
 5769TIP3    H217272   2.065   1.636   2.182 -0.4501 -1.9533  0.5846
 5770TIP3   OH217273   2.396   4.986   4.901  0.1629  0.7236  0.1374
 5770TIP3    H117274   2.342   5.050   4.855 -0.0227 -0.5837 -1.5979
 5770TIP3    H217275   2.463   5.038   4.946 -0.4048  2.1502 -0.5988
 5771TIP3   OH217276   1.676   0.980   5.481 -0.6217  0.1011  0.3186
 5771TIP3    H117277   1.661   1.069   5.514 -0.4241  0.9030 -1.6517
 5771TIP3    H217278   1.601   0.963   5.424 -1.1248 -1.3777  1.3679
 5772TIP3   OH217279   1.376   5.372   1.495 -0.4456  0.3353  0.6765
 5772TIP3    H117280   1.419   5.345   1.414 -0.3628 -1.5554  1.3104
 5772TIP3    H217281   1.313   5.439   1.467  0.3198  0.4974 -0.7810
 5773TIP3   OH217282   1.294   0.750   1.020  0.3990  0.3604  0.1824
 5773TIP3    H117283   1.226   0.754   1.088  0.2857 -0.8522  0.1743
 5773TIP3    H217284   1.368   0.707   1.063  0.9482  1.1264  0.0141
 5774TIP3   OH217285   5.298   3.832   4.979 -0.1226 -0.2980 -0.2037
 5774TIP3    H117286   5.358   3.761   4.999  0.3285  0.4540  1.3148
 5774TIP3    H217287   5.317   3.855   4.888  0.9115 -0.9917 -0.1790
 5775TIP3   OH217288   0.059   5.666   5.626  0.0706 -0.2395 -0.3756
 5775TIP3    H117289   0.035   5.722   5.700 -1.4391  0.1097 -1.0991
 5775TIP3    H217290   0.152   5.647   5.641  0.2385  1.1971  0.7067
 5776TIP3   OH217291   7.176   3.924   3.365 -0.1397 -0.3398  0.3439
 5776TIP3    H117292   7.124   3.855   3.324 -0.2045 -0.4849  0.6704
 5776TIP3    H217293   7.147   4.004   3.322  1.1676 -0.6842 -1.3128
 5777TIP3   OH217294   1.979   3.177   2.826 -0.4597 -0.2311 -0.1484
 5777TIP3    H117295   1.969   3.260   2.873  1.7014  0.9398 -1.5990
 5777TIP3    H217296   1.935   3.191   2.743 -0.2483 -0.6146 -0.3281
 5778TIP3   OH217297   2.588   4.039   2.470  0.5789 -0.0264  0.4095
 5778TIP3    H117298   2.514   3.990   2.433  0.7427 -0.5027  0.7001
 5778TIP3    H217299   2.557   4.065   2.557  0.6123  0.1060  0.3813
 5779TIP3   OH217300   6.947   3.522   5.805  0.3098 -0.6453 -0.4316
 5779TIP3    H117301   6.952   3.434   5.767 -0.2286 -0.7175 -0.3448
 5779TIP3    H217302   6.854   3.537   5.819  0.4348 -0.2511  0.0135
 5780TIP3   OH217303   6.266   0.403   3.311  0.0797 -0.1478 -0.4329
 5780TIP3    H117304   6.249   0.309   3.321 -0.7484  0.0203 -0.1938
 5780TIP3    H217305   6.216   0.429   3.234 -0.5899  0.3067  0.1375
 5781TIP3   OH217306   4.370   1.328   2.863  0.0111 -0.0436 -0.2352
 5781TIP3    H117307   4.441   1.305   2.803  1.4405  1.6858  0.7119
 5781TIP3    H217308   4.399   1.296   2.948 -0.7040 -0.0034  0.0303
 5782TIP3   OH217309   6.083   2.180   3.197 -0.6742  0.0059  0.3406
 5782TIP3    H117310   6.093   2.172   3.291 -1.2228  0.3218  0.4228
 5782TIP3    H217311   6.158   2.131   3.161 -1.0767 -1.0437  0.9155
 5783TIP3   OH217312   0.072   5.760   1.787 -0.7846  0.1548 -0.9197
 5783TIP3    H117313   0.156   5.807   1.792 -1.1377  0.6950  0.1702
 5783TIP3    H217314   0.084   5.700   1.713  0.3037  0.7227 -1.2452
 5784TIP3   OH217315   5.831   1.747   0.312  0.2850  0.3568  0.3180
 5784TIP3    H117316   5.839   1.723   0.404  0.2680  0.2850  0.3015
 5784TIP3    H217317   5.759   1.692   0.279  2.2161 -1.8728 -0.4741
 5785TIP3   OH217318   4.109   2.564   1.163 -0.2531 -0.2456  0.5039
 5785TIP3    H117319   4.134   2.657   1.163 -0.9489 -0.0543  0.6336
 5785TIP3    H217320   4.132   2.534   1.251 -2.1153  0.3939  1.2505
 5786TIP3   OH217321   1.888   3.218   1.221 -0.0084  0.8815  0.4897
 5786TIP3    H117322   1.822   3.287   1.219  1.0003  1.8700  0.3110
 5786TIP3    H217323   1.971   3.264   1.207  0.6352 -0.4313 -0.1806
 5787TIP3   OH217324   3.483   6.533   2.098  0.2152  0.2653 -0.1927
 5787TIP3    H117325   3.540   6.540   2.175  0.7735 -0.2269 -0.5523
 5787TIP3    H217326   3.496   6.443   2.068  0.5478  0.6668 -1.2812
 5788TIP3   OH217327   5.919   5.693   1.077  0.3044  0.2569  0.3492
 5788TIP3    H117328   5.933   5.688   1.172 -0.3260 -2.2203  0.3735
 5788TIP3    H217329   5.874   5.611   1.055  1.1486  0.3956 -2.2137
 5789TIP3   OH217330   1.195   1.224   1.499 -0.6379 -0.5018 -0.8949
 5789TIP3    H117331   1.144   1.144   1.484  0.2634 -1.0418 -1.1615
 5789TIP3    H217332   1.283   1.202   1.469  0.2309 -0.2055  1.2448
 5790TIP3   OH217333   7.207   1.684   2.643  0.0294  0.4937 -0.6376
 5790TIP3    H117334   7.111   1.682   2.642  0.0344 -0.0044 -0.7308
 5790TIP3    H217335   7.229   1.768   2.682 -0.4459  0.7407 -0.8933
 5791TIP3   OH217336   1.659   3.749   2.461 -0.3036 -0.0601 -0.0492
 5791TIP3    H117337   1.742   3.756   2.414  0.4858 -0.6116  1.1822
 5791TIP3    H217338   1.627   3.839   2.468  0.9264  0.3544  0.6672
 5792TIP3   OH217339   4.132   0.484   5.048  0.5264 -0.1983 -0.2665
 5792TIP3    H117340   4.189   0.424   5.000  1.4799  0.5191 -0.0837
 5792TIP3    H217341   4.083   0.530   4.980  0.6626 -0.3545 -0.4717
 5793TIP3   OH217342   4.966   5.793   1.355  0.0239 -0.2692  0.0232
 5793TIP3    H117343   4.985   5.709   1.396 -0.2502 -0.2537  0.1850
 5793TIP3    H217344   4.924   5.845   1.424  0.1132 -0.0312 -0.1003
 5794TIP3   OH217345   4.554   6.684   0.375 -0.3593 -0.2164 -0.6138
 5794TIP3    H117346   4.522   6.751   0.315 -2.2534 -0.4258  0.1043
 5794TIP3    H217347   4.574   6.731   0.456  0.1001 -0.2561 -0.7000
 5795TIP3   OH217348   0.024   6.111   2.081  0.4930 -0.2790  0.5923
 5795TIP3    H117349   0.066   6.095   2.166  2.0347  0.3659 -0.0097
 5795TIP3    H217350   0.096   6.135   2.023 -0.6347  0.0793 -0.7105
 5796TIP3   OH217351   0.259   5.765   1.193 -0.1074 -0.5928 -0.1181
 5796TIP3    H117352   0.330   5.724   1.144  1.0651  2.8998 -1.7306
 5796TIP3    H217353   0.290   5.768   1.283  1.3442 -0.1174 -0.6041
 5797TIP3   OH217354   5.794   1.272   5.847  0.2192  0.4111  0.0068
 5797TIP3    H117355   5.803   1.245   5.755 -0.7676 -0.1464  0.0627
 5797TIP3    H217356   5.882   1.297   5.873  0.4874  0.7428 -1.1499
 5798TIP3   OH217357   5.941   2.617   2.121  0.0993 -0.0678  0.0621
 5798TIP3    H117358   6.000   2.678   2.165 -1.1525  1.9359 -0.8926
 5798TIP3    H217359   5.873   2.673   2.082 -0.0779 -1.9148 -2.5213
 5799TIP3   OH217360   6.039   3.114   1.630  0.0002 -0.6138 -0.6849
 5799TIP3    H117361   6.023   3.115   1.536 -1.5091  0.0333 -0.4437
 5799TIP3    H217362   6.044   3.206   1.655 -0.8060 -0.7634  0.0580
 5800TIP3   OH217363   6.960   2.372   4.617  0.1514 -0.0589  0.2928
 5800TIP3    H117364   7.014   2.326   4.553 -1.2045 -0.0258 -0.9266
 5800TIP3    H217365   6.891   2.414   4.565 -1.1283 -0.2078  1.7909
 5801TIP3   OH217366   3.343   3.394   1.319 -0.3914 -0.1290 -0.1774
 5801TIP3    H117367   3.327   3.326   1.254 -2.3183  0.7635 -0.7151
 5801TIP3    H217368   3.311   3.474   1.277 -0.9456  0.5942  1.5659
 5802TIP3   OH217369   3.282   2.339   3.748 -0.2350 -0.3225  0.8882
 5802TIP3    H117370   3.228   2.391   3.688  0.9359  0.7270  0.7043
 5802TIP3    H217371   3.244   2.251   3.744  0.0877 -0.4501 -1.8382
 5803TIP3   OH217372   4.302   4.951   3.619 -0.0063  0.3041  0.0832
 5803TIP3    H117373   4.259   5.015   3.562 -2.1201 -1.0487  0.0470
 5803TIP3    H217374   4.328   5.001   3.696 -2.2042  1.1546  0.3507
 5804TIP3   OH217375   3.318   0.037   2.835 -0.3301  0.0419  0.2216
 5804TIP3    H117376   3.313  -0.043   2.782 -1.2212  0.5405 -0.4755
 5804TIP3    H217377   3.254   0.096   2.795 -0.6072  0.6445  1.5236
 5805TIP3   OH217378   1.257   0.806   0.526 -0.1644 -0.1257  0.9285
 5805TIP3    H117379   1.206   0.738   0.480  0.6422 -0.4459  0.4741
 5805TIP3    H217380   1.229   0.800   0.617 -0.7877 -0.4315  0.7240
 5806TIP3   OH217381   5.534   5.187   1.892  0.1310 -0.6377 -0.0895
 5806TIP3    H117382   5.601   5.255   1.889 -0.0199 -0.3925  1.4060
 5806TIP3    H217383   5.456   5.228   1.855  0.5679 -0.6643 -1.0745
 5807TIP3   OH217384   2.928   4.240   5.026 -0.3188  0.0291  0.0121
 5807TIP3    H117385   3.010   4.278   4.992  0.3439 -0.4620  1.0076
 5807TIP3    H217386   2.860   4.302   5.000  0.6701  1.6926  1.2209
 5808TIP3   OH217387   5.270   0.855   0.169  0.1768 -0.1858 -0.4270
 5808TIP3    H117388   5.325   0.866   0.091  0.7738 -1.8277 -0.2700
 5808TIP3    H217389   5.192   0.908   0.151  0.9977  0.7119 -1.4508
 5809TIP3   OH217390   1.629   4.544   0.442  0.1024  0.3258  0.0674
 5809TIP3    H117391   1.564   4.523   0.509 -1.4539  0.8691 -1.1808
 5809TIP3    H217392   1.686   4.467   0.438  0.2153  0.2779  1.9544
 5810TIP3   OH217393   4.605   3.194   5.097 -0.4619  0.0872 -0.1550
 5810TIP3    H117394   4.599   3.106   5.134  1.0698  0.2196  0.4879
 5810TIP3    H217395   4.562   3.251   5.161  3.0063  0.4548  2.1094
 5811TIP3   OH217396   4.406   4.983   5.546 -0.1622 -0.4999 -0.2473
 5811TIP3    H117397   4.409   4.896   5.584 -2.2570  0.1166  1.5450
 5811TIP3    H217398   4.450   5.039   5.610 -1.1865  0.1168 -0.0404
 5812TIP3   OH217399   2.246   2.341   3.299  0.0746  0.0347  0.2529
 5812TIP3    H117400   2.272   2.383   3.381 -0.7354 -0.2181  0.6455
 5812TIP3    H217401   2.308   2.268   3.289  0.8314  0.6830  0.0979
 5813TIP3   OH217402   5.457   6.333   4.788 -0.1421 -0.7314 -0.0155
 5813TIP3    H117403   5.404   6.355   4.711 -1.6782  0.1802  1.2211
 5813TIP3    H217404   5.545   6.317   4.754 -0.4584  0.9566 -1.8014
 5814TIP3   OH217405   0.833   5.770   4.745  0.5016 -0.0704 -0.3322
 5814TIP3    H117406   0.753   5.753   4.796  0.3259 -2.3572 -1.2493
 5814TIP3    H217407   0.853   5.862   4.762 -3.0603  1.0086 -1.1011
 5815TIP3   OH217408   1.090   5.554   5.582  0.3736  0.2799 -0.0804
 5815TIP3    H117409   1.046   5.541   5.498 -0.6019  1.5906  0.1894
 5815TIP3    H217410   1.023   5.534   5.647  0.3879  1.4910  0.3439
 5816TIP3   OH217411   5.271   0.618   0.293  0.3956  0.2707  0.0816
 5816TIP3    H117412   5.279   0.640   0.386 -1.7619  1.0711  0.1225
 5816TIP3    H217413   5.253   0.701   0.250 -2.2701 -0.5317 -0.5179
 5817TIP3   OH217414   0.929   2.680   0.851 -0.3687 -1.0137  0.3731
 5817TIP3    H117415   0.968   2.718   0.772  1.8709 -0.4570  1.6645
 5817TIP3    H217416   0.845   2.725   0.860 -0.4150 -0.6751 -1.3507
 5818TIP3   OH217417   3.629   5.402   0.781 -0.1266  0.4862  0.2682
 5818TIP3    H117418   3.644   5.493   0.808  2.8141  0.0096  0.5915
 5818TIP3    H217419   3.569   5.409   0.707 -2.1415  2.4298  1.9266
 5819TIP3   OH217420   2.578   0.665   0.467  0.3860  0.4970  0.4211
 5819TIP3    H117421   2.489   0.700   0.473 -0.2829 -0.4366 -2.5005
 5819TIP3    H217422   2.635   0.741   0.481 -0.8954  1.4692  0.5321
 5820TIP3   OH217423   3.084   3.540   2.003  0.2636 -0.5583 -0.3391
 5820TIP3    H117424   3.118   3.462   2.046 -0.1900 -1.8497 -2.2169
 5820TIP3    H217425   3.152   3.566   1.941  0.5378  0.7470  0.4722
 5821TIP3   OH217426   3.746   5.340   5.804  0.6399  0.4001 -0.4662
 5821TIP3    H117427   3.730   5.344   5.899 -0.8844  0.2804 -0.6811
 5821TIP3    H217428   3.769   5.430   5.780  1.3791  0.3614  0.0610
 5822TIP3   OH217429   6.255   5.048   4.091  0.2076  0.2368 -0.0381
 5822TIP3    H117430   6.212   5.131   4.070 -0.0172 -0.2204 -1.4394
 5822TIP3    H217431   6.348   5.068   4.094  0.0592  0.8799  1.3618
 5823TIP3   OH217432   4.303   1.620   4.975  0.1215  0.1808 -0.4783
 5823TIP3    H117433   4.305   1.708   5.013  1.6051  0.4149 -1.0281
 5823TIP3    H217434   4.258   1.630   4.891 -1.1600  0.0835  0.1741
 5824TIP3   OH217435   4.029   4.750   0.445 -0.2032  0.2451 -0.3881
 5824TIP3    H117436   3.941   4.772   0.415 -0.0332 -0.1481 -1.2249
 5824TIP3    H217437   4.016   4.683   0.512 -0.4676 -2.0968 -2.6294
 5825TIP3   OH217438   6.501   2.139   2.401  0.0894 -0.2059 -0.6882
 5825TIP3    H117439   6.591   2.111   2.416 -0.3290  0.0997  3.9610
 5825TIP3    H217440   6.447   2.069   2.438 -1.4395  0.9678 -0.5596
 5826TIP3   OH217441   1.554   1.178   3.453  0.5724 -0.5896  0.1494
 5826TIP3    H117442   1.574   1.101   3.507  0.7741 -0.5532  0.1267
 5826TIP3    H217443   1.530   1.246   3.516 -0.2872 -0.8647  0.1392
 5827TIP3   OH217444   4.715   4.400   3.342  0.1331  0.4821  0.4821
 5827TIP3    H117445   4.657   4.431   3.272  0.3031 -1.4290 -0.5876
 5827TIP3    H217446   4.666   4.330   3.385  0.2446  1.2845  1.9890
 5828TIP3   OH217447   5.642   2.105   4.221  0.2195 -0.4743 -0.1260
 5828TIP3    H117448   5.729   2.120   4.183 -0.8174 -0.2271 -2.6003
 5828TIP3    H217449   5.595   2.187   4.206 -0.1748 -0.2522  2.0816
 5829TIP3   OH217450   4.288   0.340   4.845 -0.0230 -0.0683  0.4701
 5829TIP3    H117451   4.328   0.418   4.807 -1.5725  1.0570  1.0093
 5829TIP3    H217452   4.257   0.289   4.770 -0.3009  0.5778  0.1382
 5830TIP3   OH217453   5.606   4.934   2.019 -0.7319 -0.0868  0.4271
 5830TIP3    H117454   5.600   4.984   1.937  1.7099 -0.3692  0.0004
 5830TIP3    H217455   5.669   4.984   2.072 -0.5500 -1.1074  1.1970
 5831TIP3   OH217456   6.230   4.593   4.822  0.1412  0.1155  0.1449
 5831TIP3    H117457   6.303   4.538   4.850 -2.0973 -2.3275  1.6403
 5831TIP3    H217458   6.202   4.638   4.901 -0.4949  0.4069 -0.2362
 5832TIP3   OH217459   5.678   2.454   0.438  0.3789 -0.2534 -0.0773
 5832TIP3    H117460   5.616   2.490   0.501  0.3565  2.9073 -1.7222
 5832TIP3    H217461   5.764   2.460   0.482  0.1385  0.0412  0.3562
 5833TIP3   OH217462   2.218   4.290   0.147  0.3033  0.2303  0.4142
 5833TIP3    H117463   2.210   4.311   0.240  0.2174 -1.7666  0.8895
 5833TIP3    H217464   2.145   4.232   0.128 -0.3974  1.5451 -1.2345
 5834TIP3   OH217465   3.390   3.407   5.549  0.6119 -0.4863  0.1163
 5834TIP3    H117466   3.482   3.421   5.570  1.2744  1.8308 -3.4178
 5834TIP3    H217467   3.389   3.327   5.495  0.7493  0.0207 -0.6542
 5835TIP3   OH217468   3.304   3.634   0.014 -0.2272 -0.0757 -0.4051
 5835TIP3    H117469   3.390   3.593   0.014  0.1231  0.5526  1.2707
 5835TIP3    H217470   3.243   3.561   0.023 -0.0019 -0.6456 -2.9901
 5836TIP3   OH217471   6.096   0.133   3.662 -0.4125 -0.2878 -0.6006
 5836TIP3    H117472   6.005   0.163   3.665  0.2577  1.8916 -0.3910
 5836TIP3    H217473   6.117   0.110   3.752 -0.0319  1.6935 -0.1366
 5837TIP3   OH217474   3.863   1.114   0.124  0.0223 -0.4809  0.5234
 5837TIP3    H117475   3.951   1.099   0.156 -0.0398 -0.8572  0.5159
 5837TIP3    H217476   3.866   1.203   0.087  0.0532  0.0170  1.6953
 5838TIP3   OH217477   5.909   2.023   1.570 -0.3456 -0.1965  0.1125
 5838TIP3    H117478   5.997   2.020   1.606 -0.3687 -0.8954  0.1259
 5838TIP3    H217479   5.917   1.982   1.483 -0.1601  2.0083 -0.9836
 5839TIP3   OH217480   4.419   5.817   5.658  0.3682 -0.0079 -0.0840
 5839TIP3    H117481   4.391   5.732   5.623 -1.0097  0.4980 -0.2913
 5839TIP3    H217482   4.342   5.849   5.705  0.8407  1.1569 -0.0887
 5840TIP3   OH217483   6.095   4.125   0.027  0.1792  0.3189 -0.3617
 5840TIP3    H117484   6.106   4.155  -0.063  1.3265 -1.1992 -0.7618
 5840TIP3    H217485   6.049   4.197   0.071  0.9258  1.7052 -1.7773
 5841TIP3   OH217486   4.225   2.315   3.753 -0.1574 -0.8082 -0.1544
 5841TIP3    H117487   4.157   2.266   3.799 -0.4350 -1.4609 -1.2161
 5841TIP3    H217488   4.217   2.405   3.786 -1.5779 -0.8641 -0.2903
 5842TIP3   OH217489   2.797   2.622   5.427  0.2318 -0.1211 -0.5620
 5842TIP3    H117490   2.886   2.644   5.398  1.4838 -3.0648  0.6425
 5842TIP3    H217491   2.810   2.556   5.496 -2.9137 -1.3548 -0.9868
 5843TIP3   OH217492   3.613   0.604   1.235  0.2546 -0.1916  0.3611
 5843TIP3    H117493   3.668   0.544   1.184 -0.2799  0.2212 -0.7474
 5843TIP3    H217494   3.638   0.691   1.204 -1.8050 -0.0404 -1.0584
 5844TIP3   OH217495   5.130   6.703   2.975 -0.1844 -0.2550  0.1642
 5844TIP3    H117496   5.152   6.782   2.927 -1.8854  0.8065  1.0509
 5844TIP3    H217497   5.161   6.718   3.064 -0.4614 -0.6018  0.3257
 5845TIP3   OH217498   6.268   5.762   3.879 -0.5196 -0.1461 -0.5250
 5845TIP3    H117499   6.317   5.736   3.801  0.7367 -2.1453  0.8384
 5845TIP3    H217500   6.322   5.732   3.952 -2.4664  0.1139  1.0989
 5846TIP3   OH217501   3.023   1.223   4.768  0.2633  0.4634  0.2110
 5846TIP3    H117502   3.077   1.259   4.697  1.3257  0.7696  1.1416
 5846TIP3    H217503   3.037   1.128   4.762  2.5944  0.6425  1.6825
 5847TIP3   OH217504   2.425   1.638   4.252 -0.1368  0.3167 -0.1484
 5847TIP3    H117505   2.418   1.574   4.323 -0.3423  1.1732  0.6350
 5847TIP3    H217506   2.370   1.603   4.182  0.7455 -0.9672 -0.2287
 5848TIP3   OH217507   3.950   0.485   0.562  0.1920 -0.1289  0.3018
 5848TIP3    H117508   4.005   0.545   0.611 -1.0975  1.2511  0.1425
 5848TIP3    H217509   3.886   0.453   0.626  1.1454 -1.7682  0.5051
 5849TIP3   OH217510   1.017   0.499   4.093 -0.1675 -0.3279  0.3494
 5849TIP3    H117511   0.944   0.468   4.147  0.1373  0.0438  0.9895
 5849TIP3    H217512   1.053   0.420   4.053 -0.6982 -0.5519  0.3143
 5850TIP3   OH217513   5.107   2.007   2.838  0.0735  0.5689  0.0782
 5850TIP3    H117514   5.030   2.020   2.894  1.7683  1.6573  2.3553
 5850TIP3    H217515   5.127   1.914   2.847  0.1110  0.6536  1.0826
 5851TIP3   OH217516   5.954   4.302   2.384 -0.2261  0.0312  0.5350
 5851TIP3    H117517   6.047   4.297   2.363 -0.5838 -0.3023 -1.1315
 5851TIP3    H217518   5.938   4.395   2.400  0.2680  0.1937  0.1318
 5852TIP3   OH217519   3.894   2.950   1.666  0.1771  0.1166 -0.2249
 5852TIP3    H117520   3.928   2.897   1.594 -1.3601  0.5509 -1.3167
 5852TIP3    H217521   3.917   3.040   1.643 -0.3082  0.2575 -0.1787
 5853TIP3   OH217522   6.886   5.546   5.747 -0.3024 -0.2737  0.2473
 5853TIP3    H117523   6.928   5.609   5.805 -0.3761 -0.4406  0.4798
 5853TIP3    H217524   6.956   5.514   5.691  0.0251 -1.0806  1.1009
 5854TIP3   OH217525   2.935   4.042   5.609 -0.0162  0.0163  0.0141
 5854TIP3    H117526   2.995   4.045   5.535  0.8624  0.9207  0.7340
 5854TIP3    H217527   2.885   3.962   5.596  0.3284 -0.0008 -1.3828
 5855TIP3   OH217528   1.673   6.455   2.856  0.2279 -1.3832  0.0918
 5855TIP3    H117529   1.726   6.406   2.792  0.6210 -2.3135  1.0977
 5855TIP3    H217530   1.613   6.506   2.802  1.6736 -0.8243 -1.0712
 5856TIP3   OH217531   2.838   1.586   3.072  0.2515  0.5123  0.5673
 5856TIP3    H117532   2.891   1.513   3.041 -0.7087 -0.0317  0.1718
 5856TIP3    H217533   2.885   1.618   3.150  2.5641  1.7334 -1.1821
 5857TIP3   OH217534   2.475   0.979   5.656 -0.2525  0.5493  0.0037
 5857TIP3    H117535   2.411   0.928   5.606 -0.3313  0.6881 -0.0380
 5857TIP3    H217536   2.505   1.046   5.595 -0.0121  0.4385  0.0005
 5858TIP3   OH217537   4.412   3.670   5.005 -0.1434 -0.7946  0.2965
 5858TIP3    H117538   4.321   3.642   5.015 -0.9565  1.1630 -1.0798
 5858TIP3    H217539   4.436   3.641   4.917 -0.7043  1.7692 -0.7975
 5859TIP3   OH217540   0.951   3.708   1.787 -0.2716 -0.3480 -0.0987
 5859TIP3    H117541   0.909   3.625   1.763 -0.4849  0.0773 -1.2961
 5859TIP3    H217542   1.017   3.684   1.851  0.7731 -1.6945 -1.6039
 5860TIP3   OH217543   5.112   2.312   5.661  0.5947  0.0182  0.5026
 5860TIP3    H117544   5.181   2.262   5.618  1.1088  0.3754  0.8891
 5860TIP3    H217545   5.051   2.246   5.695  2.3668 -0.5271  2.9070
 5861TIP3   OH217546   2.852   6.606   2.014  0.5172 -0.0422 -0.1266
 5861TIP3    H117547   2.817   6.548   1.947  0.4569 -1.9931  1.4715
 5861TIP3    H217548   2.866   6.549   2.090  1.4615  1.8591  1.2282
 5862TIP3   OH217549   5.551   3.358  -0.007  0.6033  0.2976 -0.2123
 5862TIP3    H117550   5.627   3.337   0.047 -0.1989 -0.9278  0.4894
 5862TIP3    H217551   5.537   3.452   0.006  1.7683  0.4561 -0.0680
 5863TIP3   OH217552   2.168   6.732   3.087  0.4612  0.4637 -0.6375
 5863TIP3    H117553   2.211   6.661   3.134  0.7929 -0.5468 -2.3792
 5863TIP3    H217554   2.136   6.691   3.006 -3.0124  1.3485  0.1122
 5864TIP3   OH217555   0.345   5.581   5.583 -0.3842  0.6940 -0.0913
 5864TIP3    H117556   0.402   5.647   5.624 -0.1477  0.8643 -0.6923
 5864TIP3    H217557   0.342   5.606   5.491 -1.6717  0.8616 -0.0200
 5865TIP3   OH217558   4.305   1.626   2.151  0.2390 -0.0823 -0.1979
 5865TIP3    H117559   4.302   1.647   2.244  0.5753 -2.5371  0.4448
 5865TIP3    H217560   4.395   1.643   2.125  0.5817 -0.9788  0.3710
 5866TIP3   OH217561   4.356   6.335   1.519 -0.5828  0.1907  0.2540
 5866TIP3    H117562   4.282   6.283   1.488 -1.7671  1.0681  1.4931
 5866TIP3    H217563   4.317   6.418   1.546  0.8348  0.6217  1.0845
 5867TIP3   OH217564   2.268   0.277   0.272 -0.8752  0.4259  0.0409
 5867TIP3    H117565   2.301   0.268   0.183 -1.8582 -0.7832 -0.2244
 5867TIP3    H217566   2.335   0.327   0.318  0.9891 -1.3076 -0.6562
 5868TIP3   OH217567   4.732   2.139   2.540  0.0664  0.1508  0.1783
 5868TIP3    H117568   4.749   2.187   2.621 -0.2205 -0.2627  0.4898
 5868TIP3    H217569   4.805   2.078   2.533 -0.1416 -0.1218  0.3648
 5869TIP3   OH217570   2.749   0.598   2.297  0.0954  0.0830  0.0493
 5869TIP3    H117571   2.837   0.614   2.332  0.3884 -0.0481 -0.6063
 5869TIP3    H217572   2.720   0.685   2.267  0.9266 -0.2146 -1.7869
 5870TIP3   OH217573   6.359   6.115   5.764  0.0451  0.2655  0.0639
 5870TIP3    H117574   6.424   6.046   5.750 -1.3855 -0.8206 -1.7109
 5870TIP3    H217575   6.284   6.087   5.713 -1.5370  1.8997  1.3796
 5871TIP3   OH217576   2.620   4.640   0.751  0.3483  0.1193  0.0341
 5871TIP3    H117577   2.649   4.686   0.829  0.7519 -1.4769  0.8731
 5871TIP3    H217578   2.548   4.584   0.781  0.6182 -0.6364 -0.6791
 5872TIP3   OH217579   3.665   0.952   4.485  0.0772  0.1401 -0.2426
 5872TIP3    H117580   3.594   0.909   4.534 -0.3377  0.5317 -0.5050
 5872TIP3    H217581   3.640   0.942   4.393  3.0657 -4.8059 -0.9144
 5873TIP3   OH217582   5.772   1.825   3.114  0.6265 -0.0420 -0.6569
 5873TIP3    H117583   5.762   1.748   3.058  0.6502  0.4839 -1.3992
 5873TIP3    H217584   5.724   1.895   3.068  0.1182  0.2514  0.2877
 5874TIP3   OH217585   1.582   2.466   4.822 -0.4298  0.1512  0.1617
 5874TIP3    H117586   1.671   2.499   4.813 -0.0680 -0.4845  1.3147
 5874TIP3    H217587   1.547   2.512   4.899 -0.8306 -0.1995  0.1926
 5875TIP3   OH217588   0.130   4.998   1.377  0.5225  0.0935 -0.1017
 5875TIP3    H117589   0.163   5.083   1.404  1.2144 -0.5955  1.3132
 5875TIP3    H217590   0.157   4.938   1.446 -2.4684 -0.8062  0.4502
 5876TIP3   OH217591   6.362   1.908   5.561  0.2778 -0.4171 -0.1419
 5876TIP3    H117592   6.442   1.857   5.548 -0.7166 -2.1119  0.0029
 5876TIP3    H217593   6.338   1.938   5.474  1.5262  0.8903 -0.0708
 5877TIP3   OH217594   4.987   1.060   1.847  0.0533  0.7243 -0.2030
 5877TIP3    H117595   5.034   1.001   1.787 -0.2418  1.6547 -1.3990
 5877TIP3    H217596   5.034   1.143   1.840  0.1699  0.7793  1.0825
 5878TIP3   OH217597   5.278   5.318   3.579 -0.6502  0.2787  0.3112
 5878TIP3    H117598   5.333   5.349   3.508  0.4554 -0.1454  0.9540
 5878TIP3    H217599   5.201   5.375   3.578 -0.7089  0.2068 -1.2725
 5879TIP3   OH217600   1.988   2.208   2.791  0.0573 -0.7473 -0.2294
 5879TIP3    H117601   1.974   2.266   2.867  0.4621 -1.9639  0.8152
 5879TIP3    H217602   1.917   2.230   2.731 -1.4771 -1.0993  1.3739
 5880TIP3   OH217603   0.369   5.183   3.429  0.1274  0.3400  0.3280
 5880TIP3    H117604   0.404   5.106   3.383  1.1539  1.1689 -0.3455
 5880TIP3    H217605   0.293   5.210   3.378  0.1892  0.1842  0.1538
 5881TIP3   OH217606   1.632   1.255   5.563 -0.2857  0.3038  0.0660
 5881TIP3    H117607   1.553   1.308   5.571 -0.0509  0.5822  0.5743
 5881TIP3    H217608   1.654   1.230   5.653 -0.8780 -1.3904 -0.2272
 5882TIP3   OH217609   0.525   3.784   4.816  0.6957  0.2076 -0.3530
 5882TIP3    H117610   0.540   3.757   4.907 -0.2045  0.1383 -0.2191
 5882TIP3    H217611   0.533   3.703   4.765 -0.4014 -0.0485 -0.1390
 5883TIP3   OH217612   5.008   2.252   1.551 -0.0865  0.2626 -0.0160
 5883TIP3    H117613   5.077   2.228   1.489 -1.7965  1.9840 -2.8421
 5883TIP3    H217614   5.044   2.326   1.600  1.0285 -0.6518  0.5917
 5884TIP3   OH217615   1.727   1.746   2.851 -0.4031  0.5039  0.2920
 5884TIP3    H117616   1.709   1.800   2.928 -0.7319  0.0363  0.5486
 5884TIP3    H217617   1.647   1.751   2.799 -0.9035 -0.7092  0.9091
 5885TIP3   OH217618   7.014   3.562   0.356  0.1742 -0.5523  0.3725
 5885TIP3    H117619   7.076   3.635   0.362  0.3599 -0.7316  0.6846
 5885TIP3    H217620   6.928   3.602   0.368 -0.0089  0.0645 -2.4674
 5886TIP3   OH217621   6.949   4.316   4.193 -0.1784  0.6621  0.0145
 5886TIP3    H117622   6.927   4.294   4.102  0.6729 -0.0616 -0.0261
 5886TIP3    H217623   6.965   4.410   4.192  2.7976  0.2519 -1.2503
 5887TIP3   OH217624   4.036   2.463   4.660  0.2145  0.2515  0.4156
 5887TIP3    H117625   3.977   2.484   4.588 -0.2888  0.3188  0.8371
 5887TIP3    H217626   4.027   2.368   4.671  2.3271 -0.2321 -1.3513
 5888TIP3   OH217627   4.491   5.699   5.088  0.7003  0.3528  0.0420
 5888TIP3    H117628   4.510   5.633   5.022  0.1062  1.2438 -1.0497
 5888TIP3    H217629   4.518   5.659   5.171  0.6115 -1.1311 -0.6245
 5889TIP3   OH217630   3.406   1.971   2.463 -0.0852  0.2526 -0.4864
 5889TIP3    H117631   3.379   1.879   2.459  1.3499 -0.1641 -2.4468
 5889TIP3    H217632   3.354   2.009   2.534 -0.5996 -2.1015  0.4883
 5890TIP3   OH217633   4.436   2.819   3.330  0.1717 -0.1988 -0.0197
 5890TIP3    H117634   4.395   2.733   3.341  0.3052 -0.1115  1.3798
 5890TIP3    H217635   4.527   2.799   3.307  0.3551 -0.4611  0.8771
 5891TIP3   OH217636   0.656   3.569   1.404  0.0019  0.4295  0.3955
 5891TIP3    H117637   0.700   3.502   1.352 -1.7418 -0.2521 -0.2967
 5891TIP3    H217638   0.609   3.520   1.472  0.1192  1.1100  0.9843
 5892TIP3   OH217639   6.974   5.231   2.031  0.2663  0.4627  0.1646
 5892TIP3    H117640   6.895   5.195   1.992  0.9816 -1.1203  0.0975
 5892TIP3    H217641   6.991   5.175   2.107  2.9222 -1.1899 -1.4887
 5893TIP3   OH217642   1.878   4.226   5.762  0.0225 -0.3700 -0.3039
 5893TIP3    H117643   1.803   4.259   5.712 -1.3371 -0.9847  1.2335
 5893TIP3    H217644   1.876   4.131   5.748 -1.2157 -0.7408  1.8729
 5894TIP3   OH217645   0.987   1.354   2.943 -0.0379 -0.2780  0.1147
 5894TIP3    H117646   1.026   1.348   2.856  1.1507  1.1561  0.5271
 5894TIP3    H217647   1.027   1.282   2.992 -1.0423 -1.3752 -0.6018
 5895TIP3   OH217648   6.039   3.655   2.392  0.6308 -0.2466  0.0716
 5895TIP3    H117649   6.012   3.570   2.425  0.5706  0.4372  1.8854
 5895TIP3    H217650   6.128   3.667   2.425  0.8105  0.2065 -0.5536
 5896TIP3   OH217651   3.900   1.898   2.957 -0.3766 -0.0658  0.1033
 5896TIP3    H117652   3.810   1.928   2.944 -0.5005  0.3365  1.6586
 5896TIP3    H217653   3.902   1.811   2.920 -1.5276 -0.2228  0.3717
 5897TIP3   OH217654   1.869   6.508   1.115  0.4080  0.3971  0.2614
 5897TIP3    H117655   1.890   6.415   1.116 -1.6535 -0.1530 -1.0590
 5897TIP3    H217656   1.880   6.536   1.206 -0.1187 -1.4287  0.9276
 5898TIP3   OH217657   3.580   5.190   2.104  0.8415 -0.3535  0.5282
 5898TIP3    H117658   3.661   5.228   2.070 -0.5366  1.9499 -0.4904
 5898TIP3    H217659   3.598   5.097   2.113  2.9933 -0.2124 -1.4580
 5899TIP3   OH217660   4.443   3.842   2.125  0.3541  0.2946 -0.4861
 5899TIP3    H117661   4.477   3.870   2.210 -1.0167  0.2766  0.0791
 5899TIP3    H217662   4.435   3.924   2.075  0.3902  0.3962 -0.3275
 5900TIP3   OH217663   3.582   5.689   2.831  0.1874 -0.1922 -0.4492
 5900TIP3    H117664   3.629   5.633   2.769  0.0808 -0.9221  0.1185
 5900TIP3    H217665   3.560   5.631   2.904 -0.9611  0.3093 -0.3787
 5901TIP3   OH217666   4.989   0.681   4.537 -0.3440 -0.7809 -0.0507
 5901TIP3    H117667   4.919   0.620   4.516  0.4471 -1.5009 -0.6461
 5901TIP3    H217668   5.031   0.701   4.453  0.1955 -0.4036  0.2953
 5902TIP3   OH217669   5.210   1.344   1.268  0.3859  0.6001 -0.4874
 5902TIP3    H117670   5.268   1.290   1.214 -1.0733 -0.2035 -1.3032
 5902TIP3    H217671   5.135   1.363   1.212 -0.7484  0.5360  0.9360
 5903TIP3   OH217672   1.981   5.136   0.214  0.0602 -0.0363 -0.7795
 5903TIP3    H117673   2.059   5.141   0.159  0.6434  1.7182  0.1403
 5903TIP3    H217674   1.933   5.217   0.194 -0.5727 -0.2016  0.0251
 5904TIP3   OH217675   5.348   3.886   1.957  0.0688 -0.2105 -0.5554
 5904TIP3    H117676   5.343   3.981   1.958 -1.3923 -0.2573 -0.1674
 5904TIP3    H217677   5.365   3.863   1.866  0.5572  0.4213 -0.6262
 5905TIP3   OH217678   1.292   1.799   5.606  0.4832  0.4392 -0.1889
 5905TIP3    H117679   1.347   1.819   5.530 -0.0498  2.0098 -0.2001
 5905TIP3    H217680   1.206   1.833   5.584 -0.6629 -2.3309 -0.3115
 5906TIP3   OH217681   2.802   0.362   0.752 -0.3286  0.5443 -0.0692
 5906TIP3    H117682   2.894   0.387   0.753  0.0704 -0.8058 -0.5392
 5906TIP3    H217683   2.798   0.283   0.805 -1.1249  0.2893 -0.4901
 5907TIP3   OH217684   4.932   0.357   2.182  0.1861 -0.3797  0.1237
 5907TIP3    H117685   4.929   0.451   2.202 -3.8628 -0.3210  0.0768
 5907TIP3    H217686   4.952   0.354   2.088  0.9491  0.3987  0.2480
 5908TIP3   OH217687   4.586   1.816   2.374  0.6666  0.1102  0.3016
 5908TIP3    H117688   4.611   1.803   2.282 -3.9201  0.6568 -1.2953
 5908TIP3    H217689   4.582   1.911   2.384  0.7319  0.0473  0.9382
 5909TIP3   OH217690   3.784   0.282   5.693 -0.6543 -0.1153  0.1243
 5909TIP3    H117691   3.781   0.270   5.788  2.2274 -0.6922  0.2273
 5909TIP3    H217692   3.777   0.376   5.680 -1.3722 -0.0509  0.8582
 5910TIP3   OH217693   1.177   5.108   3.719  0.0299  0.2555  0.6978
 5910TIP3    H117694   1.144   5.024   3.751 -0.3866 -0.0731 -0.5664
 5910TIP3    H217695   1.105   5.170   3.733 -0.4784 -0.0766 -0.3952
 5911TIP3   OH217696   1.783   4.877   4.929  0.0407 -0.0830  0.3089
 5911TIP3    H117697   1.840   4.954   4.936  0.6225 -0.3897 -0.8796
 5911TIP3    H217698   1.823   4.823   4.861 -0.3974 -1.4197  1.0685
 5912TIP3   OH217699   5.566   3.822   4.256 -0.6920 -0.7156 -0.5029
 5912TIP3    H117700   5.621   3.756   4.298  1.4257  0.7379 -0.8099
 5912TIP3    H217701   5.610   3.905   4.276 -4.2109  0.8987  1.4350
 5913TIP3   OH217702   4.467   4.246   4.986 -0.2378 -0.1457 -0.4348
 5913TIP3    H117703   4.536   4.243   5.052 -0.4644 -0.6611 -0.2152
 5913TIP3    H217704   4.423   4.330   5.001  1.2458  0.8683 -1.5162
 5914TIP3   OH217705   3.359   2.541   2.223  0.0642  0.4679 -0.1113
 5914TIP3    H117706   3.356   2.535   2.128 -0.1904  0.0323 -0.0808
 5914TIP3    H217707   3.271   2.571   2.248 -0.7445 -1.9281  0.1376
 5915TIP3   OH217708   0.436   4.527   0.157  0.2660 -0.6225 -0.0976
 5915TIP3    H117709   0.373   4.511   0.087 -0.7951  1.5866  0.2908
 5915TIP3    H217710   0.397   4.484   0.233  0.3090 -1.0845 -0.3285
 5916TIP3   OH217711   6.962   4.086   1.414  0.2793 -0.2010 -0.3823
 5916TIP3    H117712   7.028   4.078   1.345  1.1977  0.0937  0.4384
 5916TIP3    H217713   6.934   4.177   1.410 -0.7978 -0.5455 -1.3442
 5917TIP3   OH217714   0.438   2.770   5.490 -0.0703  0.1117  0.1780
 5917TIP3    H117715   0.523   2.805   5.518 -0.2926  0.2567  0.6950
 5917TIP3    H217716   0.457   2.682   5.459  0.2305  0.0488  0.5341
 5918TIP3   OH217717   0.745   0.668   1.699 -0.0718  0.5115 -0.3341
 5918TIP3    H117718   0.692   0.730   1.751 -1.8840 -2.0782  1.1652
 5918TIP3    H217719   0.684   0.636   1.632 -0.0993 -1.5818  0.6174
 5919TIP3   OH217720   0.897   1.122   3.994 -0.0302  0.3190 -0.6667
 5919TIP3    H117721   0.967   1.068   4.031  0.0444  1.5134  1.0514
 5919TIP3    H217722   0.943   1.191   3.946 -0.0994 -0.2651 -1.5949
 5920TIP3   OH217723   1.529   0.110   1.750 -0.2016  0.7861  0.4541
 5920TIP3    H117724   1.605   0.164   1.774  0.3256  0.7538 -1.0103
 5920TIP3    H217725   1.470   0.171   1.706  0.2134  0.2929 -0.8385
 5921TIP3   OH217726   6.753   6.198   2.097  0.5642 -0.3492 -0.0324
 5921TIP3    H117727   6.814   6.188   2.170 -0.3916 -1.3221  0.6678
 5921TIP3    H217728   6.705   6.115   2.094  0.7144 -0.4161 -1.9054
 5922TIP3   OH217729   4.845   5.783   0.684  0.3313  0.1120 -0.4558
 5922TIP3    H117730   4.845   5.754   0.775 -0.7308 -1.6144 -0.9555
 5922TIP3    H217731   4.932   5.760   0.652  0.3846 -0.1563 -0.1269
 5923TIP3   OH217732   0.867   0.037   4.793 -0.1374 -0.5555 -0.0462
 5923TIP3    H117733   0.916  -0.035   4.755  0.9129 -0.5014  1.1390
 5923TIP3    H217734   0.777   0.025   4.762  0.4688 -1.0579 -1.6882
 5924TIP3   OH217735   4.702   4.118   1.280 -0.6550 -0.1578  0.3895
 5924TIP3    H117736   4.690   4.180   1.352 -0.1374  1.4263 -0.8375
 5924TIP3    H217737   4.795   4.126   1.257 -1.0971  0.3896 -1.3343
 5925TIP3   OH217738   6.513   1.934   4.369 -0.2496 -0.6696 -0.4516
 5925TIP3    H117739   6.513   1.986   4.289  2.4792  1.0232  0.5058
 5925TIP3    H217740   6.582   1.973   4.423 -0.4180 -3.1789  1.7851
 5926TIP3   OH217741   4.504   0.624   0.770 -0.0907 -0.3176  0.3907
 5926TIP3    H117742   4.563   0.560   0.730 -0.0143 -0.0032  0.0025
 5926TIP3    H217743   4.421   0.577   0.781  0.0547 -0.5757  0.3842
 5927TIP3   OH217744   3.955   6.398   3.601 -0.0986  0.1462  0.1345
 5927TIP3    H117745   3.918   6.327   3.549  1.6829 -0.4185 -0.4445
 5927TIP3    H217746   4.022   6.437   3.545  2.6907 -1.1888  2.2997
 5928TIP3   OH217747   5.209   6.398   5.343  0.3303 -0.3210 -0.0205
 5928TIP3    H117748   5.276   6.389   5.411 -0.2706 -0.0050  0.6262
 5928TIP3    H217749   5.195   6.493   5.336  0.7283 -0.3215 -0.9286
 5929TIP3   OH217750   3.581   0.493   3.905 -0.3381  0.3337 -0.0320
 5929TIP3    H117751   3.675   0.511   3.913 -0.5836  2.1657 -0.6899
 5929TIP3    H217752   3.542   0.536   3.980 -0.6762 -0.2870  0.1529
 5930TIP3   OH217753   6.415   2.974   4.976  0.2629  0.2937  0.6694
 5930TIP3    H117754   6.413   3.045   5.041 -1.7718  1.2207 -0.3031
 5930TIP3    H217755   6.340   2.992   4.919  0.5078 -1.8894 -0.4476
 5931TIP3   OH217756   0.969   0.369   0.791 -0.1097  0.5695  0.1604
 5931TIP3    H117757   0.900   0.359   0.856  0.5386  1.2291  0.9786
 5931TIP3    H217758   0.932   0.334   0.710 -0.4751 -1.6078  1.1781
 5932TIP3   OH217759   2.748   5.103   4.158  0.0217 -0.1159  0.1746
 5932TIP3    H117760   2.824   5.125   4.211 -1.1132  0.1096  1.7737
 5932TIP3    H217761   2.729   5.183   4.109  0.1118  0.2171  0.6751
 5933TIP3   OH217762   4.476   2.242   5.180 -0.2697 -0.0434  0.3198
 5933TIP3    H117763   4.443   2.234   5.091 -2.8725 -0.0005  1.1883
 5933TIP3    H217764   4.482   2.152   5.212  0.3250 -0.0423  0.2115
 5934TIP3   OH217765   3.874   0.147   1.021  0.5429  0.1205 -0.0177
 5934TIP3    H117766   3.878   0.174   1.112  0.4882  0.8508 -0.2262
 5934TIP3    H217767   3.782   0.127   1.006  0.9751 -3.2438  0.9755
 5935TIP3   OH217768   3.498   1.818   3.983  0.5003 -0.0348  0.2304
 5935TIP3    H117769   3.592   1.835   3.985  0.2366  1.5255  1.9809
 5935TIP3    H217770   3.486   1.739   4.036  0.7856 -0.0891  0.2142
 5936TIP3   OH217771   5.597   3.631   0.020  0.7235 -0.3286  0.0450
 5936TIP3    H117772   5.597   3.708   0.076  2.2866  0.2142 -0.6694
 5936TIP3    H217773   5.689   3.613   0.003  0.3360  0.0433 -3.0130
 5937TIP3   OH217774   2.159   4.628   0.717 -0.2245 -0.3351  0.5751
 5937TIP3    H117775   2.235   4.578   0.746  0.6905  1.1731  0.9149
 5937TIP3    H217776   2.096   4.619   0.788  0.4841  0.1277  1.2837
 5938TIP3   OH217777   5.891   1.340   2.262  0.4449  0.3562 -0.6897
 5938TIP3    H117778   5.938   1.336   2.178  0.7447  1.1591 -0.5660
 5938TIP3    H217779   5.802   1.314   2.240  0.2920  1.4819 -1.4459
 5939TIP3   OH217780   4.405   2.569   1.821 -0.2319 -0.0832  0.3588
 5939TIP3    H117781   4.338   2.534   1.880 -0.8418 -0.5536 -0.5772
 5939TIP3    H217782   4.427   2.495   1.764 -0.2776  0.5696 -0.5362
 5940TIP3   OH217783   5.370   2.824   4.191 -0.5955 -0.7006  0.7252
 5940TIP3    H117784   5.382   2.730   4.203  1.6484 -0.5788 -0.1349
 5940TIP3    H217785   5.309   2.831   4.118  0.1859 -1.5219 -0.0325
 5941TIP3   OH217786   2.624   5.119   3.742  0.1909  0.1632 -0.1374
 5941TIP3    H117787   2.573   5.191   3.705  1.5367  0.9794 -0.4384
 5941TIP3    H217788   2.566   5.082   3.809 -0.8482  0.9734 -0.5449
 5942TIP3   OH217789   0.452   5.430   1.479  0.3868  0.7067  0.1399
 5942TIP3    H117790   0.398   5.501   1.514  0.6714  0.0148  2.1374
 5942TIP3    H217791   0.539   5.468   1.470  0.7362  0.4365  2.0234
 5943TIP3   OH217792   4.245   0.495   0.819 -0.1252 -0.0938  0.0034
 5943TIP3    H117793   4.230   0.526   0.730  0.5243  1.9717  0.5667
 5943TIP3    H217794   4.158   0.471   0.851 -1.1974  3.5548  0.3126
 5944TIP3   OH217795   1.871   0.090   2.814 -0.2368 -0.1964  0.5712
 5944TIP3    H117796   1.882   0.124   2.903 -0.7661 -2.0123  1.3719
 5944TIP3    H217797   1.834   0.002   2.826 -1.8269  0.1098 -1.4899
 5945TIP3   OH217798   1.375   3.368   3.566  0.2263 -0.4565 -0.3168
 5945TIP3    H117799   1.295   3.419   3.559 -0.3440 -1.3740 -0.6365
 5945TIP3    H217800   1.375   3.313   3.488  0.6011 -1.2493  0.2352
 5946TIP3   OH217801   2.638   3.532   5.237 -0.0504 -0.5041 -0.0425
 5946TIP3    H117802   2.666   3.536   5.329 -0.5874  0.2645  0.1037
 5946TIP3    H217803   2.708   3.577   5.189 -0.8224  1.1124  0.2814
 5947TIP3   OH217804   5.194   6.695   5.428  0.1173 -0.1819 -0.0933
 5947TIP3    H117805   5.218   6.730   5.513 -2.9341 -0.0733  0.8647
 5947TIP3    H217806   5.223   6.761   5.365  3.3413 -0.7393  0.6639
 5948TIP3   OH217807   2.397   5.683   4.273 -0.3106  0.1923 -0.6528
 5948TIP3    H117808   2.385   5.714   4.363 -0.4996  0.3843 -0.7442
 5948TIP3    H217809   2.311   5.649   4.248  0.0271 -0.9364 -0.3573
 5949TIP3   OH217810   2.338   2.518   3.488  0.4037 -0.1264 -0.5127
 5949TIP3    H117811   2.390   2.464   3.548  0.0765 -1.1198 -1.1157
 5949TIP3    H217812   2.398   2.588   3.462  1.0433 -0.5565 -0.2347
 5950TIP3   OH217813   1.264   3.606   4.908 -0.2288 -0.6368  0.2817
 5950TIP3    H117814   1.311   3.524   4.924 -2.1265 -1.3824  2.7483
 5950TIP3    H217815   1.199   3.584   4.841  0.5460 -0.5939 -0.4890
 5951TIP3   OH217816   6.162   0.965   2.267  0.7928  0.1092 -0.5208
 5951TIP3    H117817   6.183   0.874   2.291  0.4172 -0.1462 -1.1332
 5951TIP3    H217818   6.142   1.008   2.350 -1.6048 -1.0460 -0.4026
 5952TIP3   OH217819   5.898   4.633   2.573 -0.0480  0.9489 -0.0244
 5952TIP3    H117820   5.980   4.584   2.575 -0.2696  0.3615 -2.4786
 5952TIP3    H217821   5.838   4.578   2.523 -0.6949  3.0810 -1.7499
 5953TIP3   OH217822   3.817   4.706   4.915 -0.0396  0.1083  0.2078
 5953TIP3    H117823   3.760   4.754   4.854  0.6808  0.5971 -0.0896
 5953TIP3    H217824   3.892   4.764   4.929  0.2257 -0.3795  0.8724
 5954TIP3   OH217825   3.414   0.350   5.440  0.1839 -0.4915 -0.7574
 5954TIP3    H117826   3.424   0.269   5.389  1.6012 -1.0804  0.3853
 5954TIP3    H217827   3.414   0.321   5.531 -2.1599  0.5628 -0.3502
 5955TIP3   OH217828   1.986   2.442   4.322 -0.1812 -0.3447 -0.0742
 5955TIP3    H117829   1.966   2.523   4.369  0.7767  0.0316 -0.2875
 5955TIP3    H217830   2.067   2.411   4.362  0.4625 -0.1993 -1.2419
 5956TIP3   OH217831   2.996   4.017   1.777  0.1528  0.4948  0.3483
 5956TIP3    H117832   2.924   3.965   1.739  0.7833 -1.2176  1.3869
 5956TIP3    H217833   2.962   4.046   1.861  0.0446  1.2534  0.0525
 5957TIP3   OH217834   4.163   4.123   0.658 -0.0353  0.0329 -0.1955
 5957TIP3    H117835   4.211   4.108   0.739  1.0137 -1.2281 -1.0059
 5957TIP3    H217836   4.089   4.063   0.663  1.9912 -2.8496 -1.6727
 5958TIP3   OH217837   3.570   5.993   3.127 -0.6713 -0.0923 -0.7140
 5958TIP3    H117838   3.610   5.950   3.203 -2.8829 -0.5372  0.2691
 5958TIP3    H217839   3.622   5.963   3.053 -0.3164 -2.1311  0.2872
 5959TIP3   OH217840   1.831   0.751   1.140  0.1492  0.2026  0.5878
 5959TIP3    H117841   1.811   0.668   1.097 -3.2603  1.1110  0.0953
 5959TIP3    H217842   1.843   0.729   1.232  2.6437 -1.1607  0.0145
 5960TIP3   OH217843   5.340   3.764   0.458 -0.9360 -0.1372 -0.3906
 5960TIP3    H117844   5.417   3.708   0.464 -1.8084 -1.5926 -1.8055
 5960TIP3    H217845   5.366   3.846   0.499  1.1556 -0.7985 -0.2906
 5961TIP3   OH217846   7.205   4.539   0.217 -0.4326 -0.1756  0.3365
 5961TIP3    H117847   7.132   4.569   0.163 -1.4035 -0.7355  1.3002
 5961TIP3    H217848   7.182   4.450   0.242  0.6934 -0.4449  0.4818
 5962TIP3   OH217849   3.658   4.909   3.068  0.1004 -0.4492  0.4801
 5962TIP3    H117850   3.567   4.883   3.083 -0.3547  0.5897 -0.3627
 5962TIP3    H217851   3.681   4.960   3.146  0.7433 -2.5922  1.7683
 5963TIP3   OH217852   0.441   5.825   0.431 -0.4018  0.5706  0.1838
 5963TIP3    H117853   0.419   5.804   0.340  1.0262 -0.4719  0.0467
 5963TIP3    H217854   0.488   5.908   0.426  2.3119 -0.8591 -0.4776
 5964TIP3   OH217855   2.666   6.738   1.395 -0.1853  0.6185  0.2993
 5964TIP3    H117856   2.739   6.691   1.354 -0.0806  1.9862 -1.1652
 5964TIP3    H217857   2.591   6.722   1.338 -1.3304 -1.3970  2.1832
 5965TIP3   OH217858   6.908   6.740   4.833 -0.0030 -0.8781 -0.2074
 5965TIP3    H117859   6.948   6.766   4.750 -1.0654  1.5310 -0.0198
 5965TIP3    H217860   6.965   6.778   4.900 -1.8597  1.5988  0.0720
 5966TIP3   OH217861   5.175   1.575   5.661 -0.0912  0.5088  0.0130
 5966TIP3    H117862   5.236   1.637   5.702  2.4200 -0.4556 -2.0176
 5966TIP3    H217863   5.225   1.494   5.655 -2.0118 -0.6690 -0.7686
 5967TIP3   OH217864   1.123   3.472   4.700 -0.5591  0.1047  0.1057
 5967TIP3    H117865   1.126   3.377   4.709 -0.5568  0.1259  0.3295
 5967TIP3    H217866   1.030   3.494   4.700 -0.5808  0.0445 -0.5780
 5968TIP3   OH217867   3.059   0.602   1.302  0.1423  0.0965  0.4944
 5968TIP3    H117868   3.057   0.543   1.227  2.6337  0.4711  0.0244
 5968TIP3    H217869   2.969   0.632   1.312 -0.7857 -2.1360 -0.5429
 5969TIP3   OH217870   1.066   0.185   5.432 -0.0490 -0.1624  0.5697
 5969TIP3    H117871   1.013   0.263   5.452  1.5711  1.0754  0.2016
 5969TIP3    H217872   1.127   0.178   5.505 -0.8804 -1.7960  1.1698
 5970TIP3   OH217873   3.552   2.007   5.371  0.4942 -0.0601  0.0426
 5970TIP3    H117874   3.529   1.952   5.296 -0.4403 -0.1740  0.4043
 5970TIP3    H217875   3.581   2.089   5.332  1.2820 -0.5661 -0.4782
 5971TIP3   OH217876   5.544   4.862   2.839 -0.3781  0.0261  0.1393
 5971TIP3    H117877   5.634   4.854   2.808  0.6694  2.5376  2.1766
 5971TIP3    H217878   5.505   4.930   2.784  0.1418  1.4305  1.4322
 5972TIP3   OH217879   6.628   6.037   1.747  0.2795  0.5905 -0.2753
 5972TIP3    H117880   6.693   6.013   1.813 -0.3388  1.3670  0.6372
 5972TIP3    H217881   6.629   5.964   1.685  0.1007 -0.7002  1.1814
 5973TIP3   OH217882   2.564   5.692   4.689 -0.0466 -0.2190 -0.7209
 5973TIP3    H117883   2.549   5.683   4.783  0.0213  2.4577 -0.3831
 5973TIP3    H217884   2.657   5.710   4.680 -0.0618 -0.3954 -1.3128
 5974TIP3   OH217885   3.588   1.631   0.574 -0.1401 -0.2921  0.2315
 5974TIP3    H117886   3.639   1.708   0.547 -1.7145  0.5235 -0.5643
 5974TIP3    H217887   3.501   1.646   0.537 -0.7608 -2.0024  0.9037
 5975TIP3   OH217888   3.149   1.078   3.733 -0.3391 -0.0695  0.4251
 5975TIP3    H117889   3.204   1.003   3.710  1.0945  1.5159 -1.7654
 5975TIP3    H217890   3.067   1.063   3.686  0.3034  0.1619 -0.8104
 5976TIP3   OH217891   5.499   1.946   0.773  0.0476  0.2236 -0.0407
 5976TIP3    H117892   5.436   1.930   0.702  1.8412 -0.1491 -1.6300
 5976TIP3    H217893   5.584   1.925   0.734  0.9984 -1.3936  2.6673
 5977TIP3   OH217894   1.549   6.168   4.753  0.1608 -0.9795  0.7080
 5977TIP3    H117895   1.607   6.096   4.778  1.0094 -0.1772  1.1116
 5977TIP3    H217896   1.608   6.236   4.719 -0.4760  0.0685  1.6090
 5978TIP3   OH217897   0.150   4.431   4.282 -0.1040 -0.1143  0.4211
 5978TIP3    H117898   0.161   4.519   4.244 -0.0689  0.2701  1.2993
 5978TIP3    H217899   0.234   4.387   4.265 -0.2255 -0.0810 -0.2796
 5979TIP3   OH217900   0.662   1.361   4.255  0.3567  0.0704  0.5943
 5979TIP3    H117901   0.650   1.419   4.180 -0.0103  1.3915  1.6444
 5979TIP3    H217902   0.754   1.336   4.252  0.4732  0.5494  0.0155
 5980TIP3   OH217903   2.108   5.998   4.052  0.2142  0.0056  0.1369
 5980TIP3    H117904   2.070   6.061   3.991 -0.0929  0.8076  1.1206
 5980TIP3    H217905   2.033   5.962   4.099  0.4615 -0.4629  0.1786
 5981TIP3   OH217906   0.167   1.552   1.927 -0.1515 -0.2164 -0.3508
 5981TIP3    H117907   0.111   1.577   1.854  0.6982 -1.3447 -1.4230
 5981TIP3    H217908   0.226   1.626   1.939  0.0393 -0.2306 -1.1624
 5982TIP3   OH217909   3.256   2.621   1.713 -0.1489  0.4395  0.1761
 5982TIP3    H117910   3.213   2.688   1.659  1.8249  1.1239 -0.6396
 5982TIP3    H217911   3.223   2.538   1.679 -0.2952  0.9202 -0.8955
 5983TIP3   OH217912   4.270   4.389   2.672  0.4023  0.1813 -0.0690
 5983TIP3    H117913   4.336   4.458   2.672 -0.6077  1.2085 -1.6707
 5983TIP3    H217914   4.252   4.373   2.765  1.8445  0.8893  0.3591
 5984TIP3   OH217915   4.330   6.791   0.890 -0.1308 -0.1822 -0.1718
 5984TIP3    H117916   4.288   6.771   0.974  0.6350  1.7463  0.7448
 5984TIP3    H217917   4.258   6.807   0.830 -0.6910 -0.8886  0.2853
 5985TIP3   OH217918   1.684   2.136   5.739  0.2253  0.2218  0.3864
 5985TIP3    H117919   1.697   2.044   5.718  1.2088  0.0318  1.6931
 5985TIP3    H217920   1.615   2.165   5.679 -0.1878 -1.3841  0.0424
 5986TIP3   OH217921   0.657   2.572   1.121 -0.1520  0.6371  0.1109
 5986TIP3    H117922   0.746   2.570   1.156  0.2043  1.0631 -0.7464
 5986TIP3    H217923   0.601   2.550   1.196  0.6331  0.8873  0.7837
 5987TIP3   OH217924   2.151   5.967   5.415 -0.0030 -0.3865 -0.1166
 5987TIP3    H117925   2.214   5.987   5.483 -0.8892  0.1632  0.5630
 5987TIP3    H217926   2.068   6.001   5.448 -0.4555 -0.1031 -1.4678
 5988TIP3   OH217927   5.044   6.083   4.177 -0.1552  0.1158  0.1669
 5988TIP3    H117928   5.074   6.013   4.235 -0.7097  0.4156  0.8415
 5988TIP3    H217929   5.092   6.069   4.095  1.5114  0.3578  1.0601
 5989TIP3   OH217930   6.169   3.595   0.284  0.3050  0.1701 -0.0742
 5989TIP3    H117931   6.254   3.572   0.321  0.1395 -0.2694  0.0365
 5989TIP3    H217932   6.181   3.684   0.251  0.6937  0.2587  0.2951
 5990TIP3   OH217933   3.438   1.463   4.490 -0.3929 -0.4812 -0.2792
 5990TIP3    H117934   3.392   1.425   4.565 -1.4497  0.7239 -0.2885
 5990TIP3    H217935   3.382   1.444   4.415  0.2436 -0.9375 -0.6493
 5991TIP3   OH217936   6.257   3.329   3.553 -0.2734 -0.2531 -0.1197
 5991TIP3    H117937   6.191   3.261   3.546 -0.3651 -0.1231 -0.5615
 5991TIP3    H217938   6.292   3.338   3.464 -0.8442  0.8519 -0.2433
 5992TIP3   OH217939   6.072   1.104   4.503  0.1478  0.1881 -0.0836
 5992TIP3    H117940   6.095   1.193   4.530  0.7412  0.5667 -1.7572
 5992TIP3    H217941   5.990   1.086   4.548  1.0049  0.8140  1.8354
 5993TIP3   OH217942   2.447   0.737   2.453  0.3907 -0.5239  0.3494
 5993TIP3    H117943   2.468   0.751   2.546  0.9141  0.1774  0.1326
 5993TIP3    H217944   2.374   0.797   2.436  0.7428 -0.1532  0.1392
 5994TIP3   OH217945   0.493   2.637   3.794  0.3194  0.3677  0.6791
 5994TIP3    H117946   0.423   2.639   3.729  1.1614 -0.0921 -0.2755
 5994TIP3    H217947   0.473   2.710   3.853 -0.9516  0.2385  0.4329
 5995TIP3   OH217948   2.486   6.466   0.391 -0.0327 -0.6786  0.3806
 5995TIP3    H117949   2.425   6.429   0.456 -1.9064 -0.9297 -1.4078
 5995TIP3    H217950   2.461   6.423   0.309 -0.9565  2.9799 -1.4365
 5996TIP3   OH217951   4.991   4.981   0.652 -0.0525 -0.5097  0.8136
 5996TIP3    H117952   4.898   4.999   0.635 -0.3531 -2.1104  0.6703
 5996TIP3    H217953   5.036   5.016   0.575 -0.5314  0.2396  0.8603
 5997TIP3   OH217954   0.157   1.071   4.231 -0.0566 -0.3234 -0.1830
 5997TIP3    H117955   0.063   1.055   4.237  0.3321 -2.3870  1.1825
 5997TIP3    H217956   0.189   1.064   4.321  1.1193  2.8412 -0.2111
 5998TIP3   OH217957   0.471   0.874   5.121  0.3917 -0.5667  0.3004
 5998TIP3    H117958   0.408   0.940   5.090 -0.0579 -1.4088 -0.6557
 5998TIP3    H217959   0.422   0.822   5.184  0.7634  0.0381  1.0977
 5999TIP3   OH217960   1.593   6.117   3.000  0.4517 -0.1268 -0.2559
 5999TIP3    H117961   1.606   6.182   3.069  1.7128  0.4588 -1.0182
 5999TIP3    H217962   1.549   6.165   2.930 -2.0105 -1.0142  0.5460
 6000TIP3   OH217963   3.197   3.202   3.100 -0.3012 -0.2023 -0.2501
 6000TIP3    H117964   3.289   3.220   3.079  0.0962 -0.2101  1.3415
 6000TIP3    H217965   3.181   3.114   3.067 -0.0712  0.1911 -1.4739
 6001TIP3   OH217966   1.282   2.559   0.759  0.0090 -0.2977  0.1160
 6001TIP3    H117967   1.255   2.472   0.726  0.1615 -1.0939  1.9717
 6001TIP3    H217968   1.366   2.543   0.802  0.4573  0.9728 -0.2411
 6002TIP3   OH217969   4.806   4.151   0.142  0.5845  0.2056 -0.5068
 6002TIP3    H117970   4.861   4.199   0.081  2.3237 -2.0195 -0.7628
 6002TIP3    H217971   4.866   4.116   0.208 -0.5082 -2.0341 -0.6005
 6003TIP3   OH217972   0.685   6.619   4.354 -0.2242  0.0818  0.6576
 6003TIP3    H117973   0.686   6.525   4.369 -1.4956 -0.1553 -0.5267
 6003TIP3    H217974   0.757   6.653   4.408 -0.4618 -1.4102  1.9820
 6004TIP3   OH217975   0.674   5.683   2.916  0.0724 -0.2339 -0.0279
 6004TIP3    H117976   0.646   5.771   2.893 -0.7498  0.1314  2.1619
 6004TIP3    H217977   0.632   5.627   2.850  1.1774  1.0023 -1.8733
 6005TIP3   OH217978   5.234   0.323   0.698 -0.5063 -0.3801  0.1122
 6005TIP3    H117979   5.192   0.380   0.633 -0.4029 -0.4896 -0.0489
 6005TIP3    H217980   5.315   0.369   0.721 -0.4656 -0.4189  0.0471
 6006TIP3   OH217981   5.603   5.548   3.207 -0.1503  0.0223 -0.7116
 6006TIP3    H117982   5.536   5.528   3.141 -3.5181 -1.6771  2.8283
 6006TIP3    H217983   5.660   5.471   3.207 -0.8625 -0.5202 -0.8593
 6007TIP3   OH217984   3.853   5.909   5.160  0.5090 -0.0063 -0.3062
 6007TIP3    H117985   3.783   5.858   5.200  0.9830  0.4237  1.1366
 6007TIP3    H217986   3.906   5.845   5.113 -0.0563 -0.5281 -0.2492
 6008TIP3   OH217987   2.006   4.577   1.503 -0.4247  0.6628  0.0446
 6008TIP3    H117988   1.961   4.513   1.559 -1.8159  0.2665 -1.4688
 6008TIP3    H217989   2.098   4.553   1.510 -0.9842 -2.5346 -1.6050
 6009TIP3   OH217990   3.711   5.720   2.226 -0.2679 -0.1761 -0.0149
 6009TIP3    H117991   3.682   5.748   2.139  0.0860 -0.5638 -0.2576
 6009TIP3    H217992   3.757   5.638   2.211 -1.5591 -1.0814  0.7238
 6010TIP3   OH217993   4.529   2.740   4.789 -0.0645  1.0569  0.1153
 6010TIP3    H117994   4.438   2.742   4.760  0.0669 -0.0302 -0.4169
 6010TIP3    H217995   4.541   2.822   4.837 -0.9047  1.8826 -1.0377
 6011TIP3   OH217996   1.385   1.529   2.736 -0.1853 -0.0944  0.3319
 6011TIP3    H117997   1.358   1.615   2.768  2.7210  1.2281 -0.3441
 6011TIP3    H217998   1.308   1.494   2.692 -1.0647  2.8937 -0.7551
 6012TIP3   OH217999   4.024   5.328   3.916 -0.2901 -0.1868 -0.3389
 6012TIP3    H118000   4.035   5.237   3.944  0.0840  0.5516  2.2329
 6012TIP3    H218001   4.108   5.352   3.878  0.2932 -0.3699  0.7946
 6013TIP3   OH218002   2.630   6.709   2.722 -0.5822 -0.0379  0.3371
 6013TIP3    H118003   2.640   6.682   2.631 -0.8725  1.6732 -0.2428
 6013TIP3    H218004   2.698   6.774   2.736  1.2974 -2.2142  2.2413
 6014TIP3   OH218005   3.797   1.307   1.085 -0.4478 -0.1615  0.3541
 6014TIP3    H118006   3.763   1.250   1.016  0.3783 -1.2356  0.8017
 6014TIP3    H218007   3.806   1.249   1.161 -0.6768  0.8377  1.1630
 6015TIP3   OH218008   4.664   0.622   1.482 -0.1619  0.5089 -0.0986
 6015TIP3    H118009   4.604   0.664   1.544 -1.9789 -0.9455 -0.7651
 6015TIP3    H218010   4.745   0.672   1.489 -0.5960  1.0009  2.7236
 6016TIP3   OH218011   7.196   4.119   3.726 -0.0730 -0.0819 -0.2557
 6016TIP3    H118012   7.280   4.141   3.687  1.1446 -0.0864  2.2075
 6016TIP3    H218013   7.133   4.132   3.655  1.9170  0.3250 -2.0578
 6017TIP3   OH218014   5.141   5.633   1.024 -0.1805 -0.3418 -0.1076
 6017TIP3    H118015   5.213   5.670   1.074 -0.8579 -0.1642  0.7568
 6017TIP3    H218016   5.145   5.676   0.939  1.3598 -1.0975 -0.4509
 6018TIP3   OH218017   2.006   0.282   0.010  0.2162  0.0412 -0.8310
 6018TIP3    H118018   1.959   0.267   0.092 -0.6953 -1.5600 -1.5929
 6018TIP3    H218019   2.072   0.348   0.032  0.2940 -0.6531  1.2838
 6019TIP3   OH218020   0.212   2.038   5.716  0.5495 -0.1018 -0.3256
 6019TIP3    H118021   0.264   2.117   5.703  0.4255  0.6227  2.8055
 6019TIP3    H218022   0.128   2.058   5.676  1.3377  0.2686 -1.8913
 6020TIP3   OH218023   0.791   0.695   5.146 -0.6531  0.4847  0.4037
 6020TIP3    H118024   0.764   0.778   5.187 -3.5835  0.5622 -1.4338
 6020TIP3    H218025   0.779   0.630   5.215  0.8428  1.3901  1.6010
 6021TIP3   OH218026   3.831   0.519   0.125  0.2925  0.2813 -0.2404
 6021TIP3    H118027   3.900   0.582   0.147 -0.7731  1.7800 -0.9831
 6021TIP3    H218028   3.849   0.494   0.034 -0.0053  0.5254 -0.3710
 6022TIP3   OH218029   7.203   3.493   2.566 -0.3844  0.5576 -0.1055
 6022TIP3    H118030   7.145   3.557   2.525 -1.5074  0.7766  1.7202
 6022TIP3    H218031   7.163   3.474   2.650  0.5233 -1.7144 -0.0915
 6023TIP3   OH218032   4.701   1.158   0.359 -0.0775 -0.0056  0.0652
 6023TIP3    H118033   4.638   1.155   0.431  0.1583  0.0970  0.2776
 6023TIP3    H218034   4.699   1.070   0.321  0.1044 -0.1841  0.4658
 6024TIP3   OH218035   0.863   0.627   2.631  0.0077 -0.2890  0.0094
 6024TIP3    H118036   0.771   0.653   2.640 -0.4622 -1.6085 -0.6909
 6024TIP3    H218037   0.888   0.601   2.720  0.0118  0.9706  0.3954
 6025TIP3   OH218038   1.134   4.284   2.321  0.7567 -0.3271 -0.3498
 6025TIP3    H118039   1.210   4.299   2.376  0.2399 -0.0749  0.3055
 6025TIP3    H218040   1.102   4.198   2.347 -1.8160  1.3534  2.6354
 6026TIP3   OH218041   2.795   1.630   5.825  0.2557  0.1505  0.4929
 6026TIP3    H118042   2.774   1.697   5.760 -0.4933  1.4059  1.9734
 6026TIP3    H218043   2.716   1.620   5.877 -0.1032 -2.8456 -0.4083
 6027TIP3   OH218044   4.015   2.152   2.974 -0.2140  0.0594  0.1262
 6027TIP3    H118045   3.969   2.231   2.946 -1.1736 -0.0007  1.4380
 6027TIP3    H218046   3.947   2.085   2.977  0.0144 -0.1322  1.7052
 6028TIP3   OH218047   2.483   4.098   4.776  0.2212 -0.5417 -0.5686
 6028TIP3    H118048   2.494   4.107   4.870 -1.0466  0.4401 -0.4940
 6028TIP3    H218049   2.508   4.184   4.741  1.9763 -1.3037 -1.2727
 6029TIP3   OH218050   5.194   4.334   3.330  0.3280 -0.1503  0.0675
 6029TIP3    H118051   5.230   4.400   3.271  1.0760 -0.7682 -0.1868
 6029TIP3    H218052   5.180   4.257   3.274 -3.0173  0.5520 -0.2382
 6030TIP3   OH218053   5.991   3.693   5.424 -0.3176  0.1448  0.1767
 6030TIP3    H118054   5.931   3.740   5.483 -0.1044  0.5673  0.0669
 6030TIP3    H218055   5.934   3.643   5.366 -0.5335 -0.2083  0.6897
 6031TIP3   OH218056   1.521   0.742   5.864 -0.3228  0.7360  0.9036
 6031TIP3    H118057   1.495   0.748   5.772  1.9261  0.5608  0.2115
 6031TIP3    H218058   1.528   0.648   5.882 -0.5278  0.7731  1.1843
 6032TIP3   OH218059   6.859   6.611   1.935 -0.4727 -0.1030  0.4041
 6032TIP3    H118060   6.889   6.521   1.944  0.7683  0.3375  1.0172
 6032TIP3    H218061   6.932   6.656   1.893 -1.3060  0.5053 -0.4244
 6033TIP3   OH218062   2.562   0.621   1.800 -0.1271  0.0000 -0.4385
 6033TIP3    H118063   2.509   0.541   1.791  1.5602 -1.4271  1.4192
 6033TIP3    H218064   2.609   0.629   1.717 -0.7410 -0.6008 -0.8527
 6034TIP3   OH218065   5.264   0.798   2.706  0.5661  0.1520 -0.0295
 6034TIP3    H118066   5.212   0.720   2.688 -0.6321  0.7314  0.7738
 6034TIP3    H218067   5.296   0.825   2.620 -1.4598  0.4260 -0.7707
 6035TIP3   OH218068   0.260   0.926   0.633  0.2726  0.0186  0.5332
 6035TIP3    H118069   0.251   0.972   0.550 -2.4979  1.1273  1.3163
 6035TIP3    H218070   0.331   0.863   0.619  2.3165  2.5283 -1.5220
 6036TIP3   OH218071   2.245   0.509   3.243 -0.0461  0.0201 -0.4111
 6036TIP3    H118072   2.181   0.487   3.311  1.0071  0.7435  0.8490
 6036TIP3    H218073   2.287   0.426   3.222 -0.4421 -0.2254 -0.2519
 6037TIP3   OH218074   4.781   6.013   1.521  0.1765 -0.1205 -0.0653
 6037TIP3    H118075   4.847   6.060   1.572 -0.0015 -0.1192  0.1671
 6037TIP3    H218076   4.741   5.952   1.584 -0.5621  0.4094 -0.0104
 6038TIP3   OH218077   3.303   2.966   2.258 -0.3895 -0.3142  0.0084
 6038TIP3    H118078   3.217   2.924   2.257 -0.4208 -0.3106 -1.7075
 6038TIP3    H218079   3.358   2.907   2.308 -0.6486 -1.9997 -1.5742
 6039TIP3   OH218080   1.291   4.094   2.114 -0.0945 -0.8880 -0.2449
 6039TIP3    H118081   1.340   4.104   2.196 -0.8610 -0.1584  0.1424
 6039TIP3    H218082   1.284   3.999   2.101  1.1712 -0.9980 -0.1688
 6040TIP3   OH218083   1.534   3.167   0.819 -0.1779 -0.4206  0.0617
 6040TIP3    H118084   1.627   3.160   0.840 -0.3220 -3.4678  0.0689
 6040TIP3    H218085   1.523   3.258   0.791  2.8111 -0.0117 -0.1287
 6041TIP3   OH218086   4.522   5.732   3.428 -0.0219 -0.2033  0.4046
 6041TIP3    H118087   4.501   5.788   3.503 -0.7880 -0.9529  0.7703
 6041TIP3    H218088   4.517   5.643   3.462 -0.6484 -0.5735 -0.5989
 6042TIP3   OH218089   3.663   1.530   1.146  0.9369 -0.0231  0.1393
 6042TIP3    H118090   3.698   1.450   1.108  1.7605  0.8448 -0.9878
 6042TIP3    H218091   3.693   1.528   1.237  1.1477 -0.8726  0.0578
 6043TIP3   OH218092   4.442   5.992   4.863 -0.3808 -0.1814 -0.2087
 6043TIP3    H118093   4.436   6.064   4.800 -0.2017 -0.7145 -0.8490
 6043TIP3    H218094   4.529   5.954   4.847 -0.3367 -0.3269  0.3634
 6044TIP3   OH218095   2.391   5.280   3.118 -0.5378 -0.4375 -0.4559
 6044TIP3    H118096   2.434   5.242   3.041  0.6933  0.4724 -0.2608
 6044TIP3    H218097   2.385   5.373   3.097  0.0185 -0.1442  0.6306
 6045TIP3   OH218098   0.615   4.163   4.829 -0.1981  0.0341  0.3633
 6045TIP3    H118099   0.586   4.156   4.738  3.1193  0.7245 -0.8924
 6045TIP3    H218100   0.669   4.085   4.844  0.4466  0.6224  1.2363
 6046TIP3   OH218101   3.234   5.003   5.428 -0.4518 -0.2709 -0.1659
 6046TIP3    H118102   3.321   4.966   5.410 -0.4701 -0.5362  0.2664
 6046TIP3    H218103   3.204   4.956   5.507  0.1301  1.6625  1.2793
 6047TIP3   OH218104   0.204   1.251   1.175 -0.3932  0.1591  0.0876
 6047TIP3    H118105   0.128   1.271   1.120 -1.3383  2.0483  1.9442
 6047TIP3    H218106   0.208   1.155   1.177 -0.9144  0.0109 -2.3633
 6048TIP3   OH218107   2.600   0.429   4.633 -0.0846  0.2424  0.1292
 6048TIP3    H118108   2.684   0.435   4.678  1.2461 -1.2099 -1.9646
 6048TIP3    H218109   2.552   0.361   4.680 -1.1448  2.5779  2.7264
 6049TIP3   OH218110   3.698   1.948   3.380  0.1250  0.1498  0.5529
 6049TIP3    H118111   3.695   1.853   3.394 -0.4123 -0.1882 -1.4631
 6049TIP3    H218112   3.790   1.968   3.367  0.0937 -0.4486 -0.8076
 6050TIP3   OH218113   1.571   5.109   3.193 -0.0325  0.7453  0.3898
 6050TIP3    H118114   1.548   5.048   3.124  1.5302  0.0266  0.4597
 6050TIP3    H218115   1.516   5.083   3.267 -0.2569  0.2128  0.0445
 6051TIP3   OH218116   4.998   1.037   2.479 -0.0944 -0.3141 -0.4437
 6051TIP3    H118117   4.949   1.119   2.491 -0.2831 -0.3406 -1.0357
 6051TIP3    H218118   5.012   1.031   2.385  0.3893 -0.6959 -0.3494
 6052TIP3   OH218119   2.167   5.487  -0.002 -0.1914  0.0681  0.1892
 6052TIP3    H118120   2.193   5.528   0.081  0.3245 -0.0076  0.0673
 6052TIP3    H218121   2.199   5.547  -0.069  1.3814 -0.9670 -0.0188
 6053TIP3   OH218122   3.791   4.434   4.890 -0.2089 -0.5180  0.0630
 6053TIP3    H118123   3.742   4.397   4.964  1.2606 -0.7589  0.9549
 6053TIP3    H218124   3.794   4.528   4.907 -1.2609 -0.3378 -0.5835
 6054TIP3   OH218125   0.262   3.999   2.068 -0.0429 -0.3063 -0.4290
 6054TIP3    H118126   0.251   3.926   2.129 -1.3515 -0.4167 -0.7759
 6054TIP3    H218127   0.329   4.054   2.109 -0.2866 -0.8129  0.6931
 6055TIP3   OH218128   2.452   4.338   2.672 -0.6576  0.2156 -0.0064
 6055TIP3    H118129   2.486   4.357   2.585  0.8144  2.9029  1.0310
 6055TIP3    H218130   2.357   4.347   2.663 -0.6237 -0.6269 -1.5140
 6056TIP3   OH218131   3.653   4.847   4.741 -0.4156 -0.5109 -0.1434
 6056TIP3    H118132   3.628   4.931   4.778  0.5667  0.3680 -1.3612
 6056TIP3    H218133   3.625   4.852   4.649  0.9935 -0.8765 -0.6218
 6057TIP3   OH218134   4.170   6.333   3.807 -0.1204 -0.0130 -0.2595
 6057TIP3    H118135   4.136   6.353   3.894 -1.3050  0.9531 -0.8955
 6057TIP3    H218136   4.092   6.323   3.753  0.5796 -1.4552 -1.0436
 6058TIP3   OH218137   6.503   1.483   0.426 -0.2009 -0.1300  0.3554
 6058TIP3    H118138   6.420   1.524   0.450 -0.0645  0.4607 -0.1342
 6058TIP3    H218139   6.569   1.537   0.469 -0.0415 -0.1436  0.1291
 6059TIP3   OH218140   2.032   4.251   2.367  0.6620  0.2720 -0.4958
 6059TIP3    H118141   2.125   4.262   2.389  0.5508  0.4655 -0.1207
 6059TIP3    H218142   2.015   4.321   2.304  0.5437  0.8068  0.1242
 6060TIP3   OH218143   3.072   1.873   0.843  0.0430 -0.7798  0.0676
 6060TIP3    H118144   3.102   1.844   0.757  0.1722  0.4778 -0.3263
 6060TIP3    H218145   3.141   1.934   0.873 -0.7542 -0.0101  0.3724
 6061TIP3   OH218146   5.116   0.141   4.260  0.6696 -0.2676 -0.1800
 6061TIP3    H118147   5.170   0.187   4.324 -1.0024  0.0321  1.0821
 6061TIP3    H218148   5.033   0.125   4.305 -0.1112 -1.2232 -1.8470
 6062TIP3   OH218149   0.239   5.974   0.764 -0.2390 -0.7535 -0.4451
 6062TIP3    H118150   0.224   5.966   0.670 -0.3031  0.5754 -0.5730
 6062TIP3    H218151   0.334   5.971   0.773  0.0234  2.5673 -0.9924
 6063TIP3   OH218152   4.957   4.474   3.387 -0.3741 -0.0977 -0.6917
 6063TIP3    H118153   4.877   4.438   3.348 -0.3431 -0.5911 -0.3146
 6063TIP3    H218154   5.027   4.416   3.357 -0.1395  0.3715 -1.0752
 6064TIP3   OH218155   2.543   2.401   0.596 -0.0852 -0.7432 -0.0295
 6064TIP3    H118156   2.507   2.329   0.544 -0.4081 -2.1523  2.0256
 6064TIP3    H218157   2.470   2.434   0.647  0.6630 -0.9902  1.2559
 6065TIP3   OH218158   0.790   1.845   2.566 -0.0897  0.1026  0.6163
 6065TIP3    H118159   0.700   1.864   2.542  0.0574  0.3404  0.2455
 6065TIP3    H218160   0.783   1.781   2.638 -0.5196 -1.2854 -0.6186
 6066TIP3   OH218161   3.348   6.078   0.554 -0.3422 -0.0404 -0.4606
 6066TIP3    H118162   3.435   6.049   0.527 -0.2804  0.0843 -0.3960
 6066TIP3    H218163   3.299   5.997   0.568 -0.8496 -0.1242 -2.4739
 6067TIP3   OH218164   1.686   2.680   1.914  0.4588  0.1697 -0.1744
 6067TIP3    H118165   1.772   2.675   1.957  2.1407 -1.1906 -3.2908
 6067TIP3    H218166   1.648   2.593   1.928 -0.9761  1.1020  2.0897
 6068TIP3   OH218167   2.234   1.038   0.644  0.4125  0.3058 -0.3377
 6068TIP3    H118168   2.167   1.031   0.577 -1.3344  0.9216  1.2435
 6068TIP3    H218169   2.186   1.034   0.727  2.2725  1.2887  0.8770
 6069TIP3   OH218170   3.110   0.164   5.472 -0.3242  0.2068  0.0929
 6069TIP3    H118171   3.068   0.193   5.553  0.6748  1.1413  0.2974
 6069TIP3    H218172   3.162   0.088   5.498 -0.4358  0.1720  0.2150
 6070TIP3   OH218173   0.815   1.091   2.104  0.3201 -0.1746 -0.3008
 6070TIP3    H118174   0.772   1.047   2.178 -0.0618 -0.1058 -0.4803
 6070TIP3    H218175   0.747   1.096   2.036  0.4815  0.3311 -0.4271
 6071TIP3   OH218176   5.050   3.333   5.596  0.3385  0.0997 -0.1970
 6071TIP3    H118177   4.998   3.397   5.645 -0.0237 -0.3062 -0.0514
 6071TIP3    H218178   5.098   3.285   5.664  1.6610  1.1075 -0.3722
 6072TIP3   OH218179   4.378   4.330   1.421 -0.2927  0.1574 -0.3319
 6072TIP3    H118180   4.304   4.278   1.391 -0.1027  0.4453 -1.3401
 6072TIP3    H218181   4.379   4.319   1.516 -0.8556 -0.8626 -0.4367
 6073TIP3   OH218182   3.898  -0.022   4.311 -0.6092  0.0582  0.0043
 6073TIP3    H118183   3.881   0.067   4.339 -0.5322 -0.7513  3.0374
 6073TIP3    H218184   3.992  -0.035   4.327 -0.6364 -0.5718 -0.2943
 6074TIP3   OH218185   6.553   3.933   0.594 -0.0913 -0.2961 -0.0174
 6074TIP3    H118186   6.488   3.959   0.529  0.2552  1.3402  0.2506
 6074TIP3    H218187   6.544   3.998   0.664  2.7492  0.8509 -0.5908
 6075TIP3   OH218188   4.731   1.313   3.575 -0.4188 -0.5438  0.7093
 6075TIP3    H118189   4.705   1.259   3.501  2.4858 -0.1411 -0.7597
 6075TIP3    H218190   4.714   1.259   3.652  0.9980 -2.9924 -0.5904
 6076TIP3   OH218191   6.411   3.598   0.090 -0.1365 -0.2289 -0.0188
 6076TIP3    H118192   6.459   3.524   0.128  1.5505  1.0364  0.3975
 6076TIP3    H218193   6.411   3.580  -0.004 -1.2294 -1.5615  0.1822
 6077TIP3   OH218194   7.200   3.004   2.464 -0.7606 -0.3587  0.0672
 6077TIP3    H118195   7.121   2.956   2.488 -0.0344 -1.1782  0.8873
 6077TIP3    H218196   7.170   3.093   2.446 -1.8555 -0.6481  0.4313
 6078TIP3   OH218197   5.318   4.373   1.809  0.4245  0.5613  0.3833
 6078TIP3    H118198   5.227   4.395   1.830  0.6521  0.2104  1.8536
 6078TIP3    H218199   5.344   4.440   1.745 -1.5405 -0.7077 -1.9317
 6079TIP3   OH218200   0.773   4.541   5.584 -0.3795 -0.0096  0.1878
 6079TIP3    H118201   0.707   4.588   5.533 -0.2075  0.8545  0.7354
 6079TIP3    H218202   0.847   4.530   5.525  0.1598  1.7487  0.4645
 6080TIP3   OH218203   4.674   0.845   0.800  0.3063 -0.2726  0.0684
 6080TIP3    H118204   4.594   0.799   0.774 -0.0874  0.1473  0.5124
 6080TIP3    H218205   4.671   0.847   0.896  1.2180 -0.8881  0.1312
 6081TIP3   OH218206   6.470   4.146   4.386  0.1736  0.3970  0.0914
 6081TIP3    H118207   6.539   4.172   4.326  1.4984  0.3623  1.5191
 6081TIP3    H218208   6.505   4.166   4.473 -1.5865  0.2823  0.8718
 6082TIP3   OH218209   2.585   3.406   0.193 -0.3254 -1.2874  0.1410
 6082TIP3    H118210   2.569   3.428   0.101  1.9215 -2.9856 -0.7455
 6082TIP3    H218211   2.578   3.311   0.197  1.5974 -1.4296  1.2418
 6083TIP3   OH218212   3.409   4.021   5.434 -0.0216  0.2220  1.0741
 6083TIP3    H118213   3.330   3.972   5.408  1.0788 -1.4754  0.8070
 6083TIP3    H218214   3.444   4.054   5.351  1.1018 -1.5004  0.8169
 6084TIP3   OH218215   5.743   2.192   5.108 -0.1969  0.0292  0.2256
 6084TIP3    H118216   5.774   2.165   5.195 -1.0658  0.7164  0.7589
 6084TIP3    H218217   5.788   2.133   5.047  1.0248  0.0496  1.0799
 6085TIP3   OH218218   3.701   3.117   3.178 -0.0418  0.0150  0.4920
 6085TIP3    H118219   3.759   3.126   3.102 -0.6493 -1.5859 -0.1934
 6085TIP3    H218220   3.743   3.050   3.232 -1.1404 -1.0807  0.0436
 6086TIP3   OH218221   4.125   3.045   0.819 -0.3124 -0.5426 -0.0082
 6086TIP3    H118222   4.114   3.135   0.849 -1.0878 -0.7771  0.4359
 6086TIP3    H218223   4.077   3.040   0.737  0.8759 -0.2014 -0.7554
 6087TIP3   OH218224   5.684   6.661   1.242 -0.0686  0.1942 -0.2287
 6087TIP3    H118225   5.596   6.688   1.267  0.6823  1.4439  1.1503
 6087TIP3    H218226   5.689   6.569   1.269 -1.2556 -0.1862 -1.2183
 6088TIP3   OH218227   2.733   2.362   4.024 -0.4211  0.4558 -0.2541
 6088TIP3    H118228   2.760   2.453   4.009 -0.1175  0.3520 -0.3424
 6088TIP3    H218229   2.725   2.325   3.936 -0.3707  0.3469 -0.2129
 6089TIP3   OH218230   1.414   0.250   0.821  0.3989 -0.7514 -0.6500
 6089TIP3    H118231   1.351   0.215   0.759  1.2003  1.3136 -2.7797
 6089TIP3    H218232   1.444   0.332   0.782  0.8117  0.8226  2.5994
 6090TIP3   OH218233   3.939   6.257   5.715  0.4111 -0.3378  0.1549
 6090TIP3    H118234   4.030   6.282   5.698 -0.3579  1.5928 -1.3743
 6090TIP3    H218235   3.906   6.227   5.631 -1.0219  1.2029  0.1281
 6091TIP3   OH218236   3.873   5.043   2.318  0.0753 -0.0316  0.6936
 6091TIP3    H118237   3.807   5.013   2.380  0.0263 -1.1858  0.1125
 6091TIP3    H218238   3.837   5.022   2.232  0.9239 -0.1116  0.3476
 6092TIP3   OH218239   5.825   2.104   5.351  0.2632  0.1896 -0.1627
 6092TIP3    H118240   5.804   2.012   5.336 -0.3136  0.4341 -0.9489
 6092TIP3    H218241   5.760   2.133   5.416  0.5873 -0.0074  0.2549
 6093TIP3   OH218242   0.950   4.449   3.654  0.4331  0.3468 -0.0386
 6093TIP3    H118243   0.933   4.462   3.747  0.0162  0.3737 -0.1189
 6093TIP3    H218244   1.041   4.475   3.643  0.3124  0.9035  0.2528
 6094TIP3   OH218245   6.230   3.598   5.507 -0.3391 -0.7381  0.8255
 6094TIP3    H118246   6.141   3.625   5.484 -0.6081 -2.4535 -0.3499
 6094TIP3    H218247   6.284   3.626   5.433  0.4377  1.6055  2.1684
 6095TIP3   OH218248   3.518   4.423   3.911  0.5821 -0.1160  0.1729
 6095TIP3    H118249   3.568   4.477   3.849 -0.1269 -0.6133 -0.8612
 6095TIP3    H218250   3.475   4.486   3.968  0.9251  0.3634 -0.0871
 6096TIP3   OH218251   6.696   5.529   2.510 -0.6843 -0.1590  0.2417
 6096TIP3    H118252   6.667   5.438   2.502  0.5869 -0.5777  0.2788
 6096TIP3    H218253   6.645   5.564   2.583 -0.9455 -0.9315  0.4381
 6097TIP3   OH218254   3.587   1.083   0.277 -0.2256  0.2856  0.2289
 6097TIP3    H118255   3.662   1.035   0.242  0.5862 -0.2483  2.5208
 6097TIP3    H218256   3.614   1.175   0.276 -0.5255  0.3757 -1.1942
 6098TIP3   OH218257   6.583   0.033   1.434  0.2176  0.0160  0.1566
 6098TIP3    H118258   6.510   0.070   1.384  0.4808  0.0372 -0.2162
 6098TIP3    H218259   6.643   0.107   1.448  0.9744 -0.3431 -1.0027
 6099TIP3   OH218260   2.368   1.002   0.361  0.1054  0.1701 -0.3204
 6099TIP3    H118261   2.357   0.912   0.392 -0.1328 -0.3798 -1.9088
 6099TIP3    H218262   2.416   0.993   0.279 -1.7068  1.2952 -1.5860
 6100TIP3   OH218263   0.106   2.474   1.600 -0.2192  0.1398  0.3428
 6100TIP3    H118264   0.045   2.436   1.664 -1.5176  1.9492  0.2489
 6100TIP3    H218265   0.068   2.451   1.515  0.5930 -0.8179  0.2210
 6101TIP3   OH218266   5.192   0.251   0.334  0.3072  0.3568  0.2579
 6101TIP3    H118267   5.144   0.324   0.375  1.2625  0.5254  1.1059
 6101TIP3    H218268   5.150   0.172   0.370 -0.9363  0.4486 -0.9003
 6102TIP3   OH218269   1.379   3.324   4.928  0.0196  0.1444  0.1022
 6102TIP3    H118270   1.467   3.361   4.924 -0.1394  0.8370  1.8888
 6102TIP3    H218271   1.388   3.236   4.893  1.1857  0.5826 -0.7734
 6103TIP3   OH218272   1.270   4.247   5.099 -0.3961  0.4237 -0.0512
 6103TIP3    H118273   1.338   4.244   5.167 -0.3024  2.5489  0.0210
 6103TIP3    H218274   1.232   4.159   5.099 -0.5224  0.3789  2.8782
 6104TIP3   OH218275   4.494   0.323   3.663 -0.0141  0.4996  0.1340
 6104TIP3    H118276   4.572   0.354   3.711 -0.1078 -0.5555  0.9895
 6104TIP3    H218277   4.444   0.403   3.646 -0.5545  0.8322  2.8352
 6105TIP3   OH218278   0.349   5.313   4.184 -0.4940  0.1783  0.0768
 6105TIP3    H118279   0.266   5.298   4.229 -0.8601 -0.0144 -0.6511
 6105TIP3    H218280   0.383   5.226   4.167 -0.5642  0.2421 -0.3924
 6106TIP3   OH218281   4.614   1.828   3.398  0.5135 -0.6092 -0.0498
 6106TIP3    H118282   4.655   1.913   3.381 -0.5773  0.1692  1.0632
 6106TIP3    H218283   4.578   1.836   3.486  0.6124 -2.3343  0.1800
 6107TIP3   OH218284   1.743   0.674   4.982  0.9164 -0.2770  0.1326
 6107TIP3    H118285   1.754   0.671   5.077  0.2752 -1.7434  0.1888
 6107TIP3    H218286   1.732   0.582   4.956  0.2203  0.1615 -1.2423
 6108TIP3   OH218287   2.733   5.563   1.016  0.0214  0.5927  0.0077
 6108TIP3    H118288   2.639   5.580   1.027 -0.3567  0.5355 -2.6041
 6108TIP3    H218289   2.748   5.484   1.069 -0.8241  1.8739  2.3535
 6109TIP3   OH218290   6.527   3.885   1.472  0.0041 -0.4869 -0.8585
 6109TIP3    H118291   6.477   3.846   1.544 -0.5496  0.3483 -0.7821
 6109TIP3    H218292   6.615   3.850   1.483 -0.2725 -1.0308 -0.2774
 6110TIP3   OH218293   4.676   5.286   2.007  0.5555  0.6562 -0.0818
 6110TIP3    H118294   4.713   5.275   1.919  1.0918  0.2807  0.1905
 6110TIP3    H218295   4.749   5.312   2.062  0.7357 -1.3339  0.7208
 6111TIP3   OH218296   4.099   2.239   1.236  0.1148  0.0904  0.4806
 6111TIP3    H118297   4.092   2.316   1.292  0.0916 -0.5142  1.3382
 6111TIP3    H218298   4.080   2.165   1.295  0.6400 -0.6011 -0.2022
 6112TIP3   OH218299   5.314   3.898   3.588  0.4462  0.2326  0.1445
 6112TIP3    H118300   5.286   3.893   3.497 -1.3222  0.0666  0.6433
 6112TIP3    H218301   5.308   3.992   3.610  1.6099  0.3769 -0.1023
 6113TIP3   OH218302  -0.028   2.073   1.351 -0.4845 -0.2443  0.1514
 6113TIP3    H118303   0.054   2.119   1.368 -0.0530 -0.6736 -0.7132
 6113TIP3    H218304  -0.002   1.982   1.338 -0.9672 -0.1945 -1.2452
 6114TIP3   OH218305   5.459   0.616   2.560 -0.0438 -0.2594  0.6409
 6114TIP3    H118306   5.458   0.712   2.555 -0.0869 -0.0254  3.3853
 6114TIP3    H218307   5.534   0.596   2.615  0.5099 -1.9026 -0.6519
 6115TIP3   OH218308   2.256   6.659   0.009 -0.5479  0.2534  0.4456
 6115TIP3    H118309   2.233   6.620  -0.075 -1.1451  0.4672  0.5016
 6115TIP3    H218310   2.243   6.589   0.073 -2.8969  0.8582  0.7171
 6116TIP3   OH218311   0.128   0.980   5.547 -0.1474  0.2788 -0.0424
 6116TIP3    H118312   0.141   1.044   5.617 -0.2876  1.9008 -1.4322
 6116TIP3    H218313   0.079   1.027   5.480 -1.9218 -1.8532 -0.3751
 6117TIP3   OH218314   6.593   0.252   2.343 -0.3868 -0.5881 -0.0672
 6117TIP3    H118315   6.530   0.294   2.284 -0.0198 -2.4155 -1.8718
 6117TIP3    H218316   6.548   0.174   2.374 -0.0136 -0.4320  0.8819
 6118TIP3   OH218317   5.068   5.505   3.530 -0.6082 -0.5163 -0.1518
 6118TIP3    H118318   5.080   5.579   3.469 -1.5866  0.1396  0.4323
 6118TIP3    H218319   5.013   5.443   3.481 -0.2710 -0.6013 -0.4284
 6119TIP3   OH218320   2.965   0.984   3.548 -0.5778 -0.6218  0.0688
 6119TIP3    H118321   2.987   1.004   3.457  0.9662 -0.0939  0.5293
 6119TIP3    H218322   2.947   0.890   3.548  2.2990 -1.2595 -0.3169
 6120TIP3   OH218323   0.409   4.093   0.409  0.1396 -0.2360 -0.2389
 6120TIP3    H118324   0.502   4.073   0.409  0.1966 -0.1716 -1.9487
 6120TIP3    H218325   0.379   4.074   0.498  1.7806 -0.2036  0.3463
 6121TIP3   OH218326   6.022   4.149   4.750 -0.1272 -0.2580 -0.3455
 6121TIP3    H118327   6.017   4.076   4.812  0.8749  0.3320  0.4688
 6121TIP3    H218328   6.051   4.109   4.668  0.2364 -0.8036  0.0438
 6122TIP3   OH218329   2.533   1.874   4.069 -0.6128 -0.5075  0.3124
 6122TIP3    H118330   2.602   1.902   4.130 -0.8801 -1.1512  0.9204
 6122TIP3    H218331   2.452   1.882   4.120 -1.0718  0.8148 -0.5823
 6123TIP3   OH218332   4.114   2.992   0.034  0.0027 -0.6245  0.2655
 6123TIP3    H118333   4.104   2.898   0.048 -0.5473 -0.5493  0.3761
 6123TIP3    H218334   4.209   3.006   0.031  0.0913 -1.3326 -0.7602
 6124TIP3   OH218335   0.358   0.179   2.228 -0.1275 -0.1953 -0.8628
 6124TIP3    H118336   0.266   0.197   2.245 -0.3804 -0.4701 -1.8734
 6124TIP3    H218337   0.359   0.135   2.143  0.8112 -1.5825 -0.1611
 6125TIP3   OH218338   2.678   6.782   0.296 -0.5284 -0.1449 -0.4459
 6125TIP3    H118339   2.684   6.751   0.206 -0.7842  1.2043 -0.9610
 6125TIP3    H218340   2.584   6.789   0.313 -0.4800  0.3772 -0.3692
 6126TIP3   OH218341   0.566   2.873   0.274  0.2883 -0.0750 -0.2436
 6126TIP3    H118342   0.649   2.907   0.241 -0.3028  1.4013 -0.2518
 6126TIP3    H218343   0.531   2.942   0.330  1.1252 -2.3298  3.4521
 6127TIP3   OH218344   1.409   4.591   4.788  0.0660 -0.5040  0.0765
 6127TIP3    H118345   1.380   4.673   4.749  0.7363 -0.2157  0.1686
 6127TIP3    H218346   1.497   4.576   4.752  0.1054 -0.9828  0.3523
 6128TIP3   OH218347   4.874   4.096   2.905 -0.4445  0.3257  0.0587
 6128TIP3    H118348   4.828   4.073   2.825  0.3127 -0.2221 -0.2231
 6128TIP3    H218349   4.946   4.034   2.911 -0.2525  0.6129  0.9559
 6129TIP3   OH218350   5.384   1.312   0.479  0.6233 -0.2517 -0.2098
 6129TIP3    H118351   5.418   1.257   0.549  2.6161  1.9437  0.6715
 6129TIP3    H218352   5.380   1.254   0.402 -0.0340 -2.2796  1.2697
 6130TIP3   OH218353   5.045   4.644   5.310  0.7682  0.2324 -0.2503
 6130TIP3    H118354   5.012   4.592   5.237 -2.1637  0.9797  0.3969
 6130TIP3    H218355   5.067   4.580   5.377 -1.2765 -0.3185 -0.0369
 6131TIP3   OH218356   5.976   5.254   4.942 -0.5227 -0.2811 -0.0038
 6131TIP3    H118357   5.895   5.262   4.992 -0.4111 -0.5730  0.2256
 6131TIP3    H218358   6.044   5.287   5.002 -0.1987 -1.8965  0.5640
 6132TIP3   OH218359   5.488   6.594   0.535 -0.5537  0.3284  0.6280
 6132TIP3    H118360   5.537   6.587   0.616  0.2284 -1.0000  0.0752
 6132TIP3    H218361   5.547   6.638   0.474 -1.6047  2.5053  1.0938
 6133TIP3   OH218362   3.154   4.228   1.723 -0.0826  0.2082 -0.7035
 6133TIP3    H118363   3.113   4.143   1.707 -0.3766 -0.3733  2.4735
 6133TIP3    H218364   3.152   4.238   1.818  2.2374  2.6727 -0.7993
 6134TIP3   OH218365   4.416   1.499   3.436  0.1373  0.4360 -0.3118
 6134TIP3    H118366   4.405   1.513   3.530  0.7874  1.5818 -0.3843
 6134TIP3    H218367   4.460   1.415   3.429  1.3370  0.9820  0.4880
 6135TIP3   OH218368   5.275   4.871   5.079 -0.4469  0.0824 -0.1497
 6135TIP3    H118369   5.189   4.851   5.042 -0.7053  0.1317  0.4233
 6135TIP3    H218370   5.273   4.834   5.167  1.0924 -2.4048 -1.0469
 6136TIP3   OH218371   3.553   5.523   3.053 -0.5140 -0.1488  0.2598
 6136TIP3    H118372   3.536   5.561   3.139  0.2785 -0.6584  0.6544
 6136TIP3    H218373   3.647   5.504   3.054 -0.6110 -0.6811 -0.5103
 6137TIP3   OH218374   0.068   2.475   0.071 -0.0744 -0.3478  0.5192
 6137TIP3    H118375   0.035   2.506  -0.013 -0.2695 -0.2606  0.6264
 6137TIP3    H218376   0.064   2.380   0.066 -0.7841 -0.3314  0.7054
 6138TIP3   OH218377   1.280   4.715   4.230  0.2155  0.0702 -0.0488
 6138TIP3    H118378   1.368   4.749   4.245  0.0943  0.2449  0.2694
 6138TIP3    H218379   1.273   4.707   4.135  0.7240 -0.3405 -0.0540
 6139TIP3   OH218380   0.081   4.460   1.133  0.6430 -0.0495  0.6915
 6139TIP3    H118381   0.004   4.491   1.086  0.5067  0.8459  1.4704
 6139TIP3    H218382   0.149   4.452   1.066  0.1678  0.1631  0.1758
 6140TIP3   OH218383   2.123   5.187   2.007 -0.5615  0.1143 -0.3848
 6140TIP3    H118384   2.212   5.220   1.996 -0.4876 -0.0992 -0.4326
 6140TIP3    H218385   2.113   5.180   2.102 -0.8446  0.9905 -0.3370
 6141TIP3   OH218386   2.330   1.817   1.569  0.3888  0.0935  0.0825
 6141TIP3    H118387   2.363   1.896   1.527 -0.3541  0.0694 -0.5683
 6141TIP3    H218388   2.237   1.834   1.583 -0.3821 -1.5442 -2.2853
 6142TIP3   OH218389   4.929   1.706   2.455  0.3988 -0.3858  0.7177
 6142TIP3    H118390   4.924   1.661   2.371  3.6630  0.1585  0.1059
 6142TIP3    H218391   4.987   1.652   2.509  0.5313  0.6590  1.6734
 6143TIP3   OH218392   6.889   4.825   5.233  0.8692  0.1843 -1.1118
 6143TIP3    H118393   6.975   4.864   5.253  0.4139  1.0292 -0.7109
 6143TIP3    H218394   6.909   4.742   5.190  2.0144 -2.2618  3.4875
 6144TIP3   OH218395   0.749   4.506   0.452  0.0469  0.6361  0.3533
 6144TIP3    H118396   0.768   4.472   0.540  1.0591  1.6253  0.5336
 6144TIP3    H218397   0.820   4.473   0.397 -1.0803 -0.7709 -0.3426
 6145TIP3   OH218398   2.591   1.997   2.811  0.4594 -0.0247 -0.0829
 6145TIP3    H118399   2.629   2.071   2.857  1.4048 -0.7171  0.2743
 6145TIP3    H218400   2.498   2.001   2.833  0.3799  1.4118 -0.5865
 6146TIP3   OH218401   1.295   5.984   5.273  0.1266 -0.0820  0.0030
 6146TIP3    H118402   1.380   5.979   5.230  0.3492 -0.4886  0.4859
 6146TIP3    H218403   1.307   6.048   5.344 -0.7175  1.9735 -1.5935
 6147TIP3   OH218404   3.190   2.565   0.290  0.3863  0.4218  0.1741
 6147TIP3    H118405   3.105   2.599   0.319  0.3727  1.8819 -1.4028
 6147TIP3    H218406   3.251   2.590   0.360 -0.3094  0.1647  0.8900
 6148TIP3   OH218407   1.901   3.893   0.350  0.0642  0.5352 -0.2045
 6148TIP3    H118408   1.919   3.848   0.267 -0.5405 -0.3714  0.1359
 6148TIP3    H218409   1.986   3.927   0.378  0.1539  1.4771 -1.5411
 6149TIP3   OH218410   4.404   1.271   4.263  0.1765 -0.2573  0.6449
 6149TIP3    H118411   4.460   1.262   4.187 -0.3223 -0.4064  0.2874
 6149TIP3    H218412   4.443   1.342   4.315  0.4876 -0.1274  0.2318
 6150TIP3   OH218413   1.968   1.851   4.912 -0.3622 -0.3211  0.3146
 6150TIP3    H118414   1.893   1.910   4.903 -0.0686 -0.1461 -1.1976
 6150TIP3    H218415   2.036   1.888   4.855  0.8638 -0.5299  1.5677
 6151TIP3   OH218416   1.579   4.148   2.617  0.2811 -0.5859 -0.0923
 6151TIP3    H118417   1.628   4.121   2.694  0.7217  0.8680  0.1630
 6151TIP3    H218418   1.626   4.108   2.543 -0.4017 -2.3502  0.3733
 6152TIP3   OH218419   2.399   5.793   2.979 -0.0332  0.4824 -0.1628
 6152TIP3    H118420   2.367   5.703   2.977  0.6098  0.2587 -0.5984
 6152TIP3    H218421   2.371   5.826   3.065 -0.1548 -0.1701  0.0573
 6153TIP3   OH218422   2.415   2.309   0.861 -0.6208  0.2888  0.0276
 6153TIP3    H118423   2.453   2.257   0.790  1.6170 -0.0455  1.3930
 6153TIP3    H218424   2.403   2.396   0.822 -1.4027 -0.3852 -1.3350
 6154TIP3   OH218425   3.041   0.152   4.655  0.0085 -0.3657  0.2656
 6154TIP3    H118426   3.124   0.187   4.623 -0.3629 -0.3635 -0.7527
 6154TIP3    H218427   2.998   0.119   4.576 -0.4333 -1.4777  0.9451
 6155TIP3   OH218428   2.468   2.101   4.384 -0.0932 -0.7763 -1.0941
 6155TIP3    H118429   2.481   2.188   4.346 -1.8287  0.5003  0.9538
 6155TIP3    H218430   2.396   2.064   4.334  1.9692 -2.0097 -3.3354
 6156TIP3   OH218431   1.432   6.361   5.239 -0.5013 -0.0392  0.2923
 6156TIP3    H118432   1.427   6.332   5.148 -2.8099  1.2572 -0.0626
 6156TIP3    H218433   1.476   6.446   5.235 -0.9273  0.1830  0.3557
 6157TIP3   OH218434   2.634   1.977   5.149  0.3120  0.2181  0.0944
 6157TIP3    H118435   2.553   2.028   5.143  1.7481  2.7139  0.2343
 6157TIP3    H218436   2.675   1.988   5.063  0.4645 -1.1149 -0.0131
 6158TIP3   OH218437   3.585   0.513   1.887  0.4042  0.5100  0.2135
 6158TIP3    H118438   3.613   0.504   1.978 -1.6818  0.8403  0.9545
 6158TIP3    H218439   3.529   0.591   1.886 -0.0724  0.1942 -1.2329
 6159TIP3   OH218440   6.593   1.944   5.833  0.2275 -0.5898  0.1918
 6159TIP3    H118441   6.525   2.003   5.799  0.1485 -1.5453 -1.3833
 6159TIP3    H218442   6.614   1.980   5.919 -1.3772  0.4653  0.1963
 6160TIP3   OH218443   6.460   3.135   1.980  0.0765 -0.6677  1.0309
 6160TIP3    H118444   6.457   3.054   1.929  1.1886 -0.7481  1.0655
 6160TIP3    H218445   6.553   3.148   1.998  0.2013  1.8544 -0.9600
 6161TIP3   OH218446   1.490   2.770   1.378 -0.0967 -0.2647  0.4553
 6161TIP3    H118447   1.404   2.787   1.338 -0.8325 -2.6559  0.8536
 6161TIP3    H218448   1.537   2.720   1.311 -0.1858 -1.6019  1.3529
 6162TIP3   OH218449   3.426   2.857   5.743 -0.5983 -0.4911 -0.1865
 6162TIP3    H118450   3.481   2.898   5.676  0.2153 -0.4424  0.5064
 6162TIP3    H218451   3.487   2.829   5.811 -1.4086 -0.6120  0.5073
 6163TIP3   OH218452   6.925   5.920   1.450  0.5583 -0.4768  0.1006
 6163TIP3    H118453   6.899   6.008   1.476 -1.1181 -0.8131 -0.2654
 6163TIP3    H218454   6.957   5.879   1.530  1.4200  0.4702  0.2587
 6164TIP3   OH218455   4.612   4.308   3.785  0.7020  0.7636 -0.0752
 6164TIP3    H118456   4.685   4.258   3.749  0.2433  0.6011 -0.8102
 6164TIP3    H218457   4.644   4.341   3.869  1.6934  0.8780 -0.4838
 6165TIP3   OH218458   1.431   6.511   0.908 -0.2417  0.3447  0.0151
 6165TIP3    H118459   1.346   6.469   0.922  1.1224 -2.4681  0.4781
 6165TIP3    H218460   1.471   6.461   0.837  1.4604  0.8800  0.5469
 6166TIP3   OH218461   0.758   0.278   4.522 -0.1016  0.0724 -0.2718
 6166TIP3    H118462   0.669   0.313   4.517 -0.4811 -0.4710  1.6739
 6166TIP3    H218463   0.747   0.183   4.518  0.1537 -0.0927  1.6533
 6167TIP3   OH218464   2.696   1.677   4.308  0.0896 -0.3634  0.1823
 6167TIP3    H118465   2.607   1.682   4.274  0.4926 -1.0222 -1.0053
 6167TIP3    H218466   2.693   1.729   4.389 -1.2732 -0.0837 -0.0186
 6168TIP3   OH218467   6.373   0.790   3.711 -0.0204 -0.3204 -0.2630
 6168TIP3    H118468   6.421   0.854   3.762 -0.5598  0.2842 -0.4945
 6168TIP3    H218469   6.309   0.842   3.661 -0.4400 -1.0295 -0.4834
 6169TIP3   OH218470   4.272   1.877   1.396  0.3339 -0.2112 -0.0039
 6169TIP3    H118471   4.259   1.825   1.476 -0.1260 -0.3300 -0.1579
 6169TIP3    H218472   4.282   1.812   1.327  2.3841 -0.1675  0.1775
 6170TIP3   OH218473   6.036   2.114   0.150 -0.0024  0.0035  0.1587
 6170TIP3    H118474   6.104   2.175   0.122  1.7682 -1.5067  0.9652
 6170TIP3    H218475   6.020   2.059   0.073 -1.0900  0.9856 -0.3468
 6171TIP3   OH218476   2.313   5.425   5.509 -0.0194 -0.6011 -0.2688
 6171TIP3    H118477   2.402   5.432   5.475  0.3666  0.4823  0.8799
 6171TIP3    H218478   2.321   5.369   5.586 -0.0647  0.5941  0.6317
 6172TIP3   OH218479   6.412   4.750   4.138  0.5659  0.2110  0.1682
 6172TIP3    H118480   6.452   4.818   4.192 -0.0868  0.2076  0.6682
 6172TIP3    H218481   6.393   4.794   4.055  1.6427  0.1947 -0.0903
 6173TIP3   OH218482   1.294   0.954   1.717 -0.6924 -0.0614 -0.2949
 6173TIP3    H118483   1.270   0.863   1.736  0.8435 -0.2679  0.9610
 6173TIP3    H218484   1.220   0.989   1.669 -1.7024 -1.7314 -0.0524
 6174TIP3   OH218485   1.870   2.866   3.286  0.0745  0.2725 -0.5544
 6174TIP3    H118486   1.789   2.904   3.253  0.5700  2.1550  0.2414
 6174TIP3    H218487   1.853   2.848   3.378  0.3937  0.1990 -0.5087
 6175TIP3   OH218488   1.641   2.884   0.598 -0.5428  0.3740 -0.2452
 6175TIP3    H118489   1.577   2.878   0.669 -1.7114 -1.3685 -1.3854
 6175TIP3    H218490   1.636   2.976   0.571  0.2187  1.1923  2.1129
 6176TIP3   OH218491   3.602   3.171   4.618 -0.4994 -0.6908  0.4974
 6176TIP3    H118492   3.541   3.170   4.692 -1.8425  1.1615 -0.5168
 6176TIP3    H218493   3.667   3.237   4.642 -1.3783  0.4757 -0.2909
 6177TIP3   OH218494   1.877   0.131   5.693 -0.4178 -0.0629  0.1491
 6177TIP3    H118495   1.796   0.080   5.695 -0.7009  0.3939  0.3783
 6177TIP3    H218496   1.903   0.138   5.785 -1.6486  2.2084  0.3700
 6178TIP3   OH218497   3.144   5.669   4.436 -0.3666  0.0853 -0.1515
 6178TIP3    H118498   3.140   5.699   4.527 -1.1021  0.7742 -0.4040
 6178TIP3    H218499   3.229   5.698   4.405 -0.3640  0.3883  0.1347
 6179TIP3   OH218500   2.618   3.293   3.081  0.3932  0.1891 -0.9224
 6179TIP3    H118501   2.567   3.364   3.121 -0.0923 -0.8764  0.4226
 6179TIP3    H218502   2.602   3.302   2.987 -1.1992  0.7202 -0.6340
 6180TIP3   OH218503   1.215   5.081   2.494  0.0551 -0.2596 -0.0590
 6180TIP3    H118504   1.282   5.138   2.456 -0.3554 -0.8553 -1.7684
 6180TIP3    H218505   1.140   5.089   2.434 -0.4656 -1.6090  0.3745
 6181TIP3   OH218506   1.947   0.804   3.847  0.1895 -0.7039  0.3867
 6181TIP3    H118507   1.897   0.764   3.776 -0.0801  1.2955 -0.6167
 6181TIP3    H218508   1.883   0.819   3.917 -0.3575  0.4928 -0.3303
 6182TIP3   OH218509   6.712   5.926   4.855 -0.3379 -0.2299 -0.7257
 6182TIP3    H118510   6.654   5.998   4.880  0.1037  0.3000 -1.1967
 6182TIP3    H218511   6.764   5.961   4.783  0.3254 -0.8096 -0.5396
 6183TIP3   OH218512   3.550   4.514   2.353  0.3619 -0.5214 -0.5257
 6183TIP3    H118513   3.609   4.441   2.374  0.3019 -1.0352 -2.0276
 6183TIP3    H218514   3.605   4.578   2.308  0.3186  0.1881  0.3995
 6184TIP3   OH218515   5.312   5.270   1.725 -0.7587 -0.1712 -0.3866
 6184TIP3    H118516   5.217   5.284   1.717 -1.0300 -1.2567  0.7392
 6184TIP3    H218517   5.326   5.180   1.696 -0.5606 -1.1352  2.4066
 6185TIP3   OH218518   3.202   1.211   1.045 -0.0253  0.8789 -0.3529
 6185TIP3    H118519   3.135   1.221   0.977 -0.8755 -0.4331  0.2463
 6185TIP3    H218520   3.152   1.213   1.127  1.0962  3.6528  0.3734
 6186TIP3   OH218521   2.753   5.475   1.998 -0.2776 -0.7236  0.4765
 6186TIP3    H118522   2.811   5.517   1.935  0.5404 -0.2095  1.5366
 6186TIP3    H218523   2.809   5.416   2.047 -0.3143  0.6983  2.3580
 6187TIP3   OH218524   4.056   3.567   0.945  0.1568 -0.5819 -0.0200
 6187TIP3    H118525   4.078   3.641   1.002 -2.1803  1.6079 -1.7396
 6187TIP3    H218526   4.074   3.599   0.857 -2.2011 -1.5324 -0.9098
 6188TIP3   OH218527   0.292   6.578   1.255 -0.2428 -0.2052  0.1536
 6188TIP3    H118528   0.372   6.527   1.247  0.4167  0.8303 -0.0501
 6188TIP3    H218529   0.282   6.594   1.349 -0.9526 -1.4491  0.3136
 6189TIP3   OH218530   0.175   3.167   4.194  0.3524  0.3280 -0.1542
 6189TIP3    H118531   0.151   3.241   4.138 -0.6323 -0.3616 -0.6768
 6189TIP3    H218532   0.119   3.095   4.164 -0.1388 -0.0986  1.6474
 6190TIP3   OH218533   7.110   1.065   5.829  0.7735 -0.1567  0.0529
 6190TIP3    H118534   7.086   1.142   5.881  0.0372  0.4620 -1.1521
 6190TIP3    H218535   7.073   0.991   5.877  0.7116  0.3288  0.7679
 6191TIP3   OH218536   0.393   4.465   2.066 -0.1619  0.1787 -0.5879
 6191TIP3    H118537   0.464   4.523   2.036  0.8534 -1.4113 -1.3843
 6191TIP3    H218538   0.404   4.385   2.014 -0.5546 -1.3505  1.5642
 6192TIP3   OH218539   2.481   1.120   1.072  0.1801  0.4273 -0.6175
 6192TIP3    H118540   2.408   1.119   1.134 -0.8091 -0.3463 -1.7593
 6192TIP3    H218541   2.513   1.210   1.075  0.2807  0.3734  1.1290
 6193TIP3   OH218542   1.211   2.791   4.411 -1.1382  0.2305 -0.3121
 6193TIP3    H118543   1.272   2.804   4.339 -0.7890 -1.0672 -0.2763
 6193TIP3    H218544   1.137   2.848   4.391 -0.8933  0.1364 -1.5264
 6194TIP3   OH218545   2.966   5.900   3.802 -0.5334 -0.5263  0.2330
 6194TIP3    H118546   3.001   5.811   3.791 -1.1308 -0.6314 -0.9618
 6194TIP3    H218547   2.900   5.892   3.870  0.7072 -0.6060  1.4920
 6195TIP3   OH218548   0.823   3.420   2.082  0.0154 -0.2183 -0.0318
 6195TIP3    H118549   0.852   3.406   1.991  0.9830 -0.8861  0.3627
 6195TIP3    H218550   0.779   3.338   2.105 -0.1872 -0.0661  0.1204
 6196TIP3   OH218551   0.766   3.152   2.101 -0.0875  0.2537 -0.4262
 6196TIP3    H118552   0.796   3.092   2.170 -0.8872  0.1655 -0.1415
 6196TIP3    H218553   0.760   3.097   2.023 -2.1137 -0.3897  0.1359
 6197TIP3   OH218554   2.347   5.418   4.647  0.3600  0.7674 -0.0941
 6197TIP3    H118555   2.334   5.431   4.741  1.0941 -2.5576  0.5966
 6197TIP3    H218556   2.432   5.458   4.628  0.2294  1.4204  0.6724
 6198TIP3   OH218557   2.169   3.200   5.172  0.2062 -0.6477  0.3427
 6198TIP3    H118558   2.080   3.181   5.202 -0.0906 -0.2782 -0.2737
 6198TIP3    H218559   2.220   3.210   5.252 -0.3174 -0.8159  0.7033
 6199TIP3   OH218560   6.364   3.339   0.586 -0.0140 -0.2396 -0.2906
 6199TIP3    H118561   6.271   3.318   0.592  0.0686 -0.4113  0.5856
 6199TIP3    H218562   6.397   3.327   0.675  1.3316 -2.4205 -0.9869
 6200TIP3   OH218563   6.379   0.460   0.010  0.3485 -0.0429  0.5920
 6200TIP3    H118564   6.344   0.538   0.051 -0.1304 -0.1695  0.4302
 6200TIP3    H218565   6.303   0.403  -0.003  0.4041  0.1790 -0.8881
 6201TIP3   OH218566   4.969   1.967   4.493  0.4798  0.1106 -0.0370
 6201TIP3    H118567   4.916   1.896   4.529  0.7699 -1.6112 -2.7252
 6201TIP3    H218568   5.056   1.954   4.530  0.2734 -0.2484  0.3247
 6202TIP3   OH218569   5.141   1.856   1.482 -0.0993 -0.4104 -0.4381
 6202TIP3    H118570   5.126   1.790   1.415 -0.1889 -1.3630  0.4947
 6202TIP3    H218571   5.062   1.910   1.482 -0.5808 -1.1097 -0.3222
 6203TIP3   OH218572   1.811   1.936   2.042  0.4578  0.4163 -0.4024
 6203TIP3    H118573   1.747   1.869   2.020  1.4397 -1.1775  1.2324
 6203TIP3    H218574   1.892   1.908   1.999  0.3883  1.7821 -1.5014
 6204TIP3   OH218575   6.262   3.802   5.764 -0.2848  0.0466 -0.4025
 6204TIP3    H118576   6.247   3.847   5.681 -2.4671 -2.3218 -1.4135
 6204TIP3    H218577   6.230   3.713   5.750 -0.8273 -0.4394  3.0247
 6205TIP3   OH218578   1.432   1.626   4.723  0.1838  0.1799  0.0044
 6205TIP3    H118579   1.457   1.569   4.651  3.3584 -0.8906  1.7470
 6205TIP3    H218580   1.477   1.709   4.705  0.2282  0.2183  0.2794
 6206TIP3   OH218581   5.749   4.583   0.264 -0.2215 -0.1146 -0.2360
 6206TIP3    H118582   5.770   4.571   0.172 -0.7160 -0.5037 -0.3038
 6206TIP3    H218583   5.690   4.510   0.285 -0.2971  0.1002  0.3257
 6207TIP3   OH218584   0.659   5.617   1.445  0.5309 -0.5394  0.6538
 6207TIP3    H118585   0.689   5.649   1.360  2.6399 -0.8991  1.2193
 6207TIP3    H218586   0.737   5.619   1.500 -0.4829 -1.6576  2.1916
 6208TIP3   OH218587   5.696   3.155   3.472  0.0278 -0.2552 -0.1750
 6208TIP3    H118588   5.757   3.085   3.494 -0.6450 -1.2480 -1.3834
 6208TIP3    H218589   5.668   3.136   3.383 -0.4994  1.3284 -0.3793
 6209TIP3   OH218590   2.041   3.747   5.674 -0.0998  0.4814 -0.7491
 6209TIP3    H118591   2.120   3.775   5.629  0.0943  0.9636 -0.1164
 6209TIP3    H218592   1.984   3.824   5.673 -1.0647 -0.1967 -2.2420
 6210TIP3   OH218593   6.657   5.480   5.322  0.1323  0.5552 -0.8295
 6210TIP3    H118594   6.609   5.562   5.314  1.9113  1.7271 -0.1963
 6210TIP3    H218595   6.677   5.455   5.232 -0.8427  0.5255 -1.0514
 6211TIP3   OH218596   2.795   5.040   2.839  0.3064  0.1233  0.1829
 6211TIP3    H118597   2.875   4.987   2.832 -0.6350 -1.2270 -0.9799
 6211TIP3    H218598   2.793   5.090   2.758  0.5492  1.0498  0.7341
 6212TIP3   OH218599   0.475   4.250   2.542  1.1129  0.1151  0.2195
 6212TIP3    H118600   0.434   4.276   2.624 -0.5079  0.2564 -0.5843
 6212TIP3    H218601   0.474   4.154   2.543 -0.2834  0.0978 -0.2382
 6213TIP3   OH218602   5.738   6.118   4.307 -0.5436 -0.1562  0.6023
 6213TIP3    H118603   5.728   6.212   4.323 -0.6061  0.2001 -1.2994
 6213TIP3    H218604   5.753   6.080   4.393 -0.8942  1.5529  1.4493
 6214TIP3   OH218605   5.312   5.530   5.438 -0.1125 -0.3248 -0.9728
 6214TIP3    H118606   5.362   5.538   5.519 -0.2119  1.7279 -1.0449
 6214TIP3    H218607   5.339   5.446   5.400 -0.1534 -1.3784  1.2179
 6215TIP3   OH218608   4.981   2.015   0.512  0.1179 -0.2188  0.5755
 6215TIP3    H118609   4.918   1.944   0.501  1.0864 -0.9586 -0.3757
 6215TIP3    H218610   4.950   2.062   0.589 -0.1802 -2.0601  1.6406
 6216TIP3   OH218611   2.890   6.754   3.274 -0.0343 -0.3544 -0.3985
 6216TIP3    H118612   2.976   6.766   3.235 -0.2287  0.3946 -0.6041
 6216TIP3    H218613   2.845   6.837   3.260 -1.1800 -1.1003 -1.2817
 6217TIP3   OH218614   2.314   3.048   0.233  0.1088  0.4056 -0.2377
 6217TIP3    H118615   2.239   3.098   0.201  0.5850  0.7369 -0.8500
 6217TIP3    H218616   2.383   3.064   0.169  0.6402 -0.0699  0.2049
 6218TIP3   OH218617   3.422   4.679   3.468  0.0881 -0.3884  0.3148
 6218TIP3    H118618   3.443   4.586   3.454  0.3744 -0.1877 -0.6392
 6218TIP3    H218619   3.378   4.680   3.554 -1.4734 -1.6488 -0.4059
 6219TIP3   OH218620   2.286   5.597   1.825  0.1871 -0.4862 -0.0772
 6219TIP3    H118621   2.220   5.530   1.845 -0.1968 -0.6510 -1.7465
 6219TIP3    H218622   2.254   5.676   1.868  0.7168 -1.3516  2.0451
 6220TIP3   OH218623   0.348   6.405   5.382  0.5223  0.5015 -0.4007
 6220TIP3    H118624   0.443   6.408   5.375  0.5809  0.6091  0.2889
 6220TIP3    H218625   0.331   6.346   5.456  0.0171 -0.2069 -1.0583
 6221TIP3   OH218626   6.142   4.561   2.014 -0.3053  0.4392  0.2251
 6221TIP3    H118627   6.110   4.501   2.081  0.9411 -2.4093 -1.5586
 6221TIP3    H218628   6.235   4.570   2.032 -0.3785  1.4423  0.1405
 6222TIP3   OH218629   5.111   6.233   5.662 -0.5170 -0.0470 -1.0900
 6222TIP3    H118630   5.190   6.180   5.650 -0.8488 -0.4276 -1.6408
 6222TIP3    H218631   5.122   6.274   5.748  0.4273  0.1676 -1.3109
 6223TIP3   OH218632   4.204   1.888   5.061  0.4155 -0.3308 -0.4983
 6223TIP3    H118633   4.205   1.926   5.149 -0.1252 -0.5214 -0.4075
 6223TIP3    H218634   4.125   1.925   5.020  1.2800  0.6864 -1.3205
 6224TIP3   OH218635   5.429   5.950   0.146  0.2611  0.3476  0.2434
 6224TIP3    H118636   5.466   5.866   0.173  0.7074  0.8198  1.1548
 6224TIP3    H218637   5.477   5.973   0.067  1.1174  0.3927  0.7619
 6225TIP3   OH218638   4.045   5.532   0.379  0.0692 -0.4853  0.5654
 6225TIP3    H118639   3.996   5.451   0.393  0.1771 -0.4476  1.1854
 6225TIP3    H218640   4.013   5.565   0.294 -2.5369  0.6299  1.8706
 6226TIP3   OH218641   4.370   5.818   3.222 -0.3154  0.2155 -0.2406
 6226TIP3    H118642   4.433   5.748   3.243  0.0160  0.3630 -0.7399
 6226TIP3    H218643   4.287   5.787   3.259  0.0648  0.0558  0.4987
 6227TIP3   OH218644   7.034   6.555   5.706 -0.2272 -0.4279  0.3627
 6227TIP3    H118645   6.958   6.603   5.674 -0.1848 -1.3559 -1.2355
 6227TIP3    H218646   7.062   6.604   5.783 -1.5904  0.7336  0.1742
 6228TIP3   OH218647   4.583   4.731   3.123  0.3146 -0.0880  0.1209
 6228TIP3    H118648   4.544   4.806   3.167  1.3624 -0.8251  2.4785
 6228TIP3    H218649   4.667   4.763   3.089  0.1688  0.1130 -0.0546
 6229TIP3   OH218650   2.909   6.599   1.717  0.0837  0.3100  0.1375
 6229TIP3    H118651   2.823   6.632   1.694 -0.3488  0.4437  1.8226
 6229TIP3    H218652   2.958   6.676   1.745  0.5968  0.1649 -0.3346
 6230TIP3   OH218653   1.612   3.342   5.309  0.2082  0.5800  0.1106
 6230TIP3    H118654   1.517   3.349   5.317  0.0402 -1.2390  0.2739
 6230TIP3    H218655   1.645   3.347   5.399  0.1816  0.4658  0.1278
 6231TIP3   OH218656   2.414   4.718   4.918  0.2406  0.1773 -0.2361
 6231TIP3    H118657   2.367   4.679   4.845  1.7143 -0.2317 -1.0179
 6231TIP3    H218658   2.407   4.812   4.905 -1.0834  0.1534  0.1681
 6232TIP3   OH218659   2.282   4.440   1.508 -0.1938 -0.5013 -0.0738
 6232TIP3    H118660   2.259   4.347   1.514  2.2361 -1.2104 -0.5125
 6232TIP3    H218661   2.330   4.458   1.589 -0.8630  0.4791  0.1315
 6233TIP3   OH218662   2.961   5.481   5.605 -0.2858  0.2527 -0.0789
 6233TIP3    H118663   2.904   5.486   5.682  0.3612 -0.3125  0.4517
 6233TIP3    H218664   2.930   5.551   5.548 -1.9508 -0.4695 -0.1269
 6234TIP3   OH218665   2.413   2.095   4.661 -0.4770 -0.1130 -0.1630
 6234TIP3    H118666   2.462   2.162   4.710 -0.1491 -0.9598  0.6826
 6234TIP3    H218667   2.453   2.096   4.574 -2.0290  2.4424 -0.9543
 6235TIP3   OH218668   0.166   5.160   0.266 -0.1785 -0.2570 -0.2979
 6235TIP3    H118669   0.092   5.155   0.206 -0.1630 -0.8384 -0.2670
 6235TIP3    H218670   0.152   5.242   0.314  0.2565  0.6458 -1.6655
 6236TIP3   OH218671   1.168   0.960   5.018 -0.0414  0.0979  0.2312
 6236TIP3    H118672   1.147   0.887   4.960  1.6642  0.4715 -0.9358
 6236TIP3    H218673   1.106   1.029   4.993 -0.4698 -0.3353  0.0786
 6237TIP3   OH218674   0.503   3.072   2.136 -0.0719 -0.3471  0.0710
 6237TIP3    H118675   0.584   3.123   2.132 -0.3688  0.0611 -1.1742
 6237TIP3    H218676   0.449   3.116   2.202 -0.8181  1.7342 -1.8157
 6238TIP3   OH218677   0.054   3.365   0.877  0.3010  0.2114 -0.5562
 6238TIP3    H118678  -0.009   3.323   0.819  1.0323 -2.5008  0.4622
 6238TIP3    H218679   0.136   3.366   0.827  0.3141  0.3510 -0.5335
 6239TIP3   OH218680   3.521   1.408   2.473  0.0309  0.3828 -0.2931
 6239TIP3    H118681   3.481   1.473   2.416 -0.5826  1.5375  1.3873
 6239TIP3    H218682   3.461   1.334   2.471  0.7507 -0.2179 -2.2482
 6240TIP3   OH218683   6.905   2.366   3.305 -0.8535 -0.6237 -0.3296
 6240TIP3    H118684   6.918   2.369   3.400  0.9520 -0.5230 -0.5557
 6240TIP3    H218685   6.826   2.418   3.290  0.1393  1.3497  0.8946
 6241TIP3   OH218686   3.400   5.720   4.345 -0.0853 -0.3053  1.1564
 6241TIP3    H118687   3.477   5.774   4.362 -0.6550  0.6360  0.8790
 6241TIP3    H218688   3.419   5.675   4.263 -1.0716  2.4708 -0.7768
 6242TIP3   OH218689   4.924   2.703   2.384  0.3023  0.7346 -0.2552
 6242TIP3    H118690   5.012   2.668   2.384  0.5048  1.2029  0.7893
 6242TIP3    H218691   4.869   2.633   2.349  0.6847 -0.6416  1.7496
 6243TIP3   OH218692   3.334   2.523   1.955 -0.4192  0.0945  0.2303
 6243TIP3    H118693   3.282   2.567   1.887 -1.3365 -0.7309  0.3756
 6243TIP3    H218694   3.383   2.456   1.908 -1.5762 -0.9403  0.4338
 6244TIP3   OH218695   4.059   4.863   4.919 -0.0897 -0.2667  0.7541
 6244TIP3    H118696   4.036   4.956   4.926  2.2975  0.2893  2.5179
 6244TIP3    H218697   4.154   4.863   4.907  0.0184 -2.5065  1.2443
 6245TIP3   OH218698   4.511   3.404   2.179 -0.0132  0.2048 -0.4735
 6245TIP3    H118699   4.579   3.464   2.148  0.2041  1.3733  2.0256
 6245TIP3    H218700   4.461   3.455   2.243 -0.9202 -1.7623  0.4651
 6246TIP3   OH218701   4.739   0.482   5.718  0.3057  0.3894  0.7625
 6246TIP3    H118702   4.828   0.449   5.705 -0.6301 -1.3767 -2.4650
 6246TIP3    H218703   4.697   0.416   5.773 -0.1960 -1.5093 -1.6779
 6247TIP3   OH218704   0.518   3.552   4.256 -0.0111 -0.0829  0.0436
 6247TIP3    H118705   0.458   3.626   4.241  0.9868  0.5061 -1.2488
 6247TIP3    H218706   0.590   3.590   4.306 -0.0795 -0.4774  0.4420
 6248TIP3   OH218707   3.939   4.187   1.646 -0.3527  0.2852  0.0525
 6248TIP3    H118708   3.899   4.243   1.579 -1.3103 -1.1058 -0.5873
 6248TIP3    H218709   3.964   4.107   1.600  2.0514  0.5799  0.7096
 6249TIP3   OH218710   2.426   6.014   5.249  0.2437 -0.5266  0.7234
 6249TIP3    H118711   2.357   5.982   5.308  0.5573 -0.8239  0.9305
 6249TIP3    H218712   2.486   6.061   5.307 -0.9806  1.7673  0.2303
 6250TIP3   OH218713   5.524   1.650   3.099  0.6770 -0.2992 -0.6410
 6250TIP3    H118714   5.437   1.611   3.104  0.7392 -0.3603 -0.0298
 6250TIP3    H218715   5.583   1.575   3.089  0.7805 -0.3679  0.3558
 6251TIP3   OH218716   7.133   4.228   5.885  0.6005 -0.7656  0.4842
 6251TIP3    H118717   7.181   4.150   5.859  0.4443 -0.4962 -0.6770
 6251TIP3    H218718   7.063   4.236   5.821  0.8251  0.5139  0.3702
 6252TIP3   OH218719   3.976   5.418   1.183  0.3553 -0.6136  0.4980
 6252TIP3    H118720   3.961   5.513   1.181  1.1694 -0.4769  0.7465
 6252TIP3    H218721   3.888   5.381   1.183  0.0215  0.1489  0.6693
 6253TIP3   OH218722   5.598   4.986   3.082  0.7761 -0.0761  0.2669
 6253TIP3    H118723   5.557   4.922   3.024  0.7164 -2.2703  2.5830
 6253TIP3    H218724   5.671   5.022   3.030 -0.2193 -0.7270 -1.6838
 6254TIP3   OH218725   6.876   6.078   2.658 -0.1815 -0.0783 -0.3325
 6254TIP3    H118726   6.860   6.172   2.644  1.5395  1.3080  4.6954
 6254TIP3    H218727   6.959   6.061   2.613 -0.1995  1.0040 -0.8141
 6255TIP3   OH218728   2.610   0.070   1.458 -0.7477  0.5782 -0.5033
 6255TIP3    H118729   2.654   0.143   1.413  2.4863 -1.7493 -1.5185
 6255TIP3    H218730   2.655   0.065   1.543 -1.3785  0.1396 -0.1915
 6256TIP3   OH218731   6.376   5.393   3.941 -0.3795  0.0525 -0.3906
 6256TIP3    H118732   6.435   5.405   4.015  0.5475 -0.9221 -0.9401
 6256TIP3    H218733   6.431   5.353   3.873 -1.6774 -0.8849 -0.9247
 6257TIP3   OH218734   4.211   6.726   5.008  0.3183 -0.5232  0.2520
 6257TIP3    H118735   4.202   6.729   4.912  0.0225 -1.5624  0.2425
 6257TIP3    H218736   4.302   6.701   5.022  0.6107  0.4723  0.2708
 6258TIP3   OH218737   2.106   3.643   2.074 -0.8598 -0.1009 -0.3716
 6258TIP3    H118738   2.033   3.588   2.046 -0.0545 -1.1078 -0.5850
 6258TIP3    H218739   2.114   3.626   2.168 -1.6898  0.9970 -0.0846
 6259TIP3   OH218740   4.807   1.096   3.350  0.0262 -0.9171 -0.4709
 6259TIP3    H118741   4.877   1.044   3.312 -0.4835 -0.4811 -2.0643
 6259TIP3    H218742   4.726   1.057   3.317 -0.5460 -1.4926  1.4380
 6260TIP3   OH218743   5.348   6.630   5.876 -0.6828 -0.5277  0.6629
 6260TIP3    H118744   5.393   6.559   5.830 -3.2326 -0.8975 -1.5150
 6260TIP3    H218745   5.417   6.674   5.926  2.1297 -0.9640 -2.4924
 6261TIP3   OH218746   0.193   2.182   1.038 -0.2444 -0.1977  0.1224
 6261TIP3    H118747   0.167   2.091   1.049 -0.5445 -0.0511  0.7043
 6261TIP3    H218748   0.123   2.232   1.081  0.1744  0.2787  0.2706
 6262TIP3   OH218749   0.658   4.681   4.728 -0.2769  0.3764 -0.6245
 6262TIP3    H118750   0.653   4.596   4.771  0.3040  0.7248  0.1682
 6262TIP3    H218751   0.739   4.678   4.677  1.5384  1.5159  1.9257
 6263TIP3   OH218752   2.487   4.182   1.490 -0.0833  0.5951 -0.0592
 6263TIP3    H118753   2.450   4.130   1.561  0.6332  0.3263  0.1242
 6263TIP3    H218754   2.454   4.141   1.410  1.5665 -1.0481  0.0296
 6264TIP3   OH218755   1.162   6.088   2.959  0.3842 -0.4782 -0.0987
 6264TIP3    H118756   1.228   6.029   2.996  0.6620  0.7389  1.4880
 6264TIP3    H218757   1.200   6.176   2.968 -0.8940  0.1342 -0.3578
 6265TIP3   OH218758   4.340   1.494   3.175 -0.1712 -0.2109  0.2354
 6265TIP3    H118759   4.362   1.582   3.144  0.2154 -0.5219 -0.4053
 6265TIP3    H218760   4.368   1.494   3.267  0.8187  0.0110 -0.0459
 6266TIP3   OH218761   2.954   5.463   4.098 -0.1172 -0.2724  0.3237
 6266TIP3    H118762   2.896   5.455   4.174  0.6322 -1.1606  0.8310
 6266TIP3    H218763   2.908   5.417   4.028 -1.5387  1.8516 -0.2640
 6267TIP3   OH218764   1.516   1.848   1.163  0.0475 -0.3671 -0.5467
 6267TIP3    H118765   1.503   1.773   1.221 -1.0431 -0.4832 -0.9290
 6267TIP3    H218766   1.586   1.821   1.103  1.0315 -0.3314  0.5379
 6268TIP3   OH218767   6.380   2.901   5.425 -0.3361  0.4467 -0.3697
 6268TIP3    H118768   6.427   2.887   5.343 -1.7487  3.6584 -1.9040
 6268TIP3    H218769   6.394   2.993   5.446 -2.5055  0.4840  1.3254
 6269TIP3   OH218770   0.443   6.180   5.526  0.1066  0.0014  0.3547
 6269TIP3    H118771   0.528   6.225   5.525 -0.1086  0.4155  0.1026
 6269TIP3    H218772   0.413   6.187   5.616  0.6396 -0.7309  0.5963
 6270TIP3   OH218773   4.946   4.142   5.034  0.6781  0.1072 -0.0791
 6270TIP3    H118774   5.008   4.084   4.990  0.7021 -1.5046  1.9388
 6270TIP3    H218775   5.000   4.201   5.086  0.5960  0.8931 -0.8673
 6271TIP3   OH218776   1.740   6.021   4.865 -0.7242 -0.2197  0.8418
 6271TIP3    H118777   1.769   6.095   4.919 -1.4198  0.5787  0.1391
 6271TIP3    H218778   1.809   5.955   4.876  0.7875  1.1739  0.1414
 6272TIP3   OH218779   3.700   4.674   2.149  0.0162  0.3058 -0.4326
 6272TIP3    H118780   3.650   4.740   2.102 -0.9360  0.7539  1.1471
 6272TIP3    H218781   3.790   4.706   2.147 -0.1157  0.6269 -1.3859
 6273TIP3   OH218782   1.013   1.291   3.234  0.3712 -0.3104  0.0304
 6273TIP3    H118783   1.072   1.308   3.308 -0.6315  0.1563  0.7481
 6273TIP3    H218784   0.956   1.221   3.265 -1.2107  1.0707  0.4205
 6274TIP3   OH218785   0.485   2.543   4.206 -0.8240  0.2029 -0.3894
 6274TIP3    H118786   0.469   2.474   4.270 -1.8807 -0.0069 -0.8532
 6274TIP3    H218787   0.535   2.500   4.137  0.2368  0.4064  0.2462
 6275TIP3   OH218788   1.257   0.198   4.406  0.6658  0.1426  0.5244
 6275TIP3    H118789   1.190   0.212   4.339  0.9567  1.4235  0.4856
 6275TIP3    H218790   1.335   0.172   4.357  0.6627  0.3172  0.4265
 6276TIP3   OH218791   3.862   2.107   0.808 -0.7056 -0.3486 -0.0762
 6276TIP3    H118792   3.880   2.020   0.844 -0.6521  0.4040  1.8603
 6276TIP3    H218793   3.925   2.117   0.737 -1.0109 -2.0454 -0.6270
 6277TIP3   OH218794   0.171   1.326   1.772  0.9253 -0.0788 -0.8205
 6277TIP3    H118795   0.124   1.367   1.844 -0.6406 -0.9846 -1.2579
 6277TIP3    H218796   0.171   1.391   1.702  1.0383  0.2184 -0.5432
 6278TIP3   OH218797   3.763   1.146   0.646 -0.6896  0.0167  0.3443
 6278TIP3    H118798   3.740   1.229   0.603  1.2555 -0.8596 -2.7158
 6278TIP3    H218799   3.703   1.082   0.607 -0.2814 -0.4690  0.5133
 6279TIP3   OH218800   0.198   2.583   4.199 -0.4364  0.0423  0.4469
 6279TIP3    H118801   0.183   2.674   4.223 -0.8870  0.2595 -0.6241
 6279TIP3    H218802   0.292   2.578   4.179 -0.2126  0.0352  1.4267
 6280TIP3   OH218803   2.742   2.477   1.648  0.3911  0.6483 -0.3751
 6280TIP3    H118804   2.806   2.408   1.630 -1.5211 -1.1921 -0.4802
 6280TIP3    H218805   2.661   2.430   1.669 -1.1444  2.8695 -0.9595
 6281TIP3   OH218806   2.319   4.840   1.269 -0.4871  0.1106  0.3807
 6281TIP3    H118807   2.412   4.857   1.283 -0.4943 -0.2230  0.8421
 6281TIP3    H218808   2.303   4.868   1.178  0.3779 -1.1300 -0.1892
 6282TIP3   OH218809   2.874   6.016   4.499 -0.1785 -0.0978 -0.3806
 6282TIP3    H118810   2.809   6.074   4.541  0.2490 -0.9011  1.4951
 6282TIP3    H218811   2.928   6.075   4.447 -0.3614  1.0666  0.6976
 6283TIP3   OH218812   1.333   1.321   3.126  0.3180  0.3771  0.4111
 6283TIP3    H118813   1.240   1.327   3.147  0.3904 -0.3068  0.9696
 6283TIP3    H218814   1.335   1.298   3.033 -0.0300  2.1114 -0.0685
 6284TIP3   OH218815   3.686   0.394   4.835 -0.0836  0.6927  0.2200
 6284TIP3    H118816   3.591   0.395   4.850  0.0869  0.3827  1.5056
 6284TIP3    H218817   3.696   0.389   4.740 -1.3938 -0.8313  0.1153
 6285TIP3   OH218818   0.149   1.383   0.701 -0.0236 -0.0809 -0.0463
 6285TIP3    H118819   0.179   1.450   0.639 -0.7031 -1.3235 -1.8036
 6285TIP3    H218820   0.056   1.371   0.679 -0.2769 -0.5701  1.2250
 6286TIP3   OH218821   0.336   3.450   5.406  0.1502  0.7814 -0.1314
 6286TIP3    H118822   0.250   3.409   5.405  0.5040 -0.0243  1.0052
 6286TIP3    H218823   0.357   3.463   5.498  1.0718  1.3577 -0.3956
 6287TIP3   OH218824   1.332   4.942   0.224  0.4261 -0.5974  0.4369
 6287TIP3    H118825   1.261   5.002   0.248  1.0356  0.3122  0.0405
 6287TIP3    H218826   1.408   4.999   0.210  0.5500 -1.2354 -1.8381
 6288TIP3   OH218827   0.981   5.217   2.583  0.0107 -0.7898 -0.7086
 6288TIP3    H118828   0.999   5.270   2.506  2.0383 -0.3296  0.0139
 6288TIP3    H218829   1.042   5.144   2.577 -0.4993 -1.2883 -0.0399
 6289TIP3   OH218830   4.995   0.749   0.933  0.1739 -0.0315 -0.2780
 6289TIP3    H118831   5.031   0.710   0.854 -0.8115 -1.3240 -0.1250
 6289TIP3    H218832   4.904   0.722   0.934 -0.2957  1.4563  0.3947
 6290TIP3   OH218833   1.637   4.453   5.013  0.6468 -0.0124  0.6570
 6290TIP3    H118834   1.732   4.441   5.019  0.6307 -0.6452 -0.2297
 6290TIP3    H218835   1.609   4.393   4.945 -0.0909  1.6965 -0.6286
 6291TIP3   OH218836   0.503   4.772   4.964  0.1608  0.1486  0.2903
 6291TIP3    H118837   0.407   4.771   4.961  0.0480  0.9057  2.2008
 6291TIP3    H218838   0.530   4.787   4.873 -1.6048  1.6912 -0.0397
 6292TIP3   OH218839   2.124   6.593   0.338  0.0144 -0.4005 -0.0518
 6292TIP3    H118840   2.112   6.498   0.330 -0.6041 -0.2865 -0.5205
 6292TIP3    H218841   2.093   6.614   0.426 -2.6952 -0.2186 -0.9682
 6293TIP3   OH218842   3.556   5.283   2.347 -0.5017  0.1042  0.0021
 6293TIP3    H118843   3.573   5.254   2.257 -0.0025 -0.2027  0.1922
 6293TIP3    H218844   3.504   5.363   2.337  1.8209  1.6371 -0.6514
 6294TIP3   OH218845   1.322   3.207   4.385 -0.7131  0.1545 -0.0304
 6294TIP3    H118846   1.350   3.298   4.396  0.3579 -0.2771  0.9351
 6294TIP3    H218847   1.323   3.193   4.290  3.0872  0.0045 -0.1268
 6295TIP3   OH218848   4.313   3.722   3.682  0.0566  0.5694  0.1449
 6295TIP3    H118849   4.313   3.810   3.720 -0.4892  0.0752  1.3432
 6295TIP3    H218850   4.243   3.725   3.616 -0.7088  0.7402  0.9441
 6296TIP3   OH218851   7.070   1.534   4.348 -0.2609 -0.8102  0.5952
 6296TIP3    H118852   6.983   1.520   4.310 -1.1581  0.1914  2.1859
 6296TIP3    H218853   7.056   1.598   4.417  2.3943  2.2957 -1.4995
 6297TIP3   OH218854   3.060   4.854   5.107  0.0636  0.1807  0.2649
 6297TIP3    H118855   3.127   4.790   5.134 -1.3745 -2.4285 -1.8429
 6297TIP3    H218856   3.109   4.936   5.095  2.6234 -1.2262  0.2667
 6298TIP3   OH218857   1.844   3.896   1.457 -0.3107  0.6532  0.1752
 6298TIP3    H118858   1.831   3.889   1.551 -0.4275  2.2533  0.3036
 6298TIP3    H218859   1.889   3.980   1.445 -1.4941  1.1252 -1.2861
 6299TIP3   OH218860   7.173   5.673   5.124  0.2749  0.7853 -0.1357
 6299TIP3    H118861   7.180   5.579   5.139  0.6362  0.7789 -0.3336
 6299TIP3    H218862   7.219   5.688   5.041 -2.0686  0.7562 -1.5270
 6300TIP3   OH218863   1.142   5.473   1.367 -0.3121  0.3224  0.0420
 6300TIP3    H118864   1.073   5.423   1.324 -0.2781 -0.1405  0.5063
 6300TIP3    H218865   1.174   5.533   1.300  0.1513 -0.7907 -0.7691
 6301TIP3   OH218866   4.231   3.151   4.383  0.2891  0.4428  0.1022
 6301TIP3    H118867   4.264   3.241   4.381 -1.1888  1.0077  0.2960
 6301TIP3    H218868   4.182   3.142   4.302  1.4659 -0.6163 -0.5127
 6302TIP3   OH218869   6.618   4.333   4.019 -0.6431 -0.2348 -0.3667
 6302TIP3    H118870   6.539   4.279   4.011 -0.4110 -0.4147 -1.5513
 6302TIP3    H218871   6.589   4.409   4.071 -1.4159 -0.6368 -0.1959
 6303TIP3   OH218872   5.485   1.593   5.098  0.0539  0.7422 -0.3186
 6303TIP3    H118873   5.436   1.674   5.086 -1.4949  0.0510  1.1103
 6303TIP3    H218874   5.456   1.536   5.027  0.8203  1.2401 -1.0606
 6304TIP3   OH218875   4.488   5.216   1.532  0.2566  0.9375  0.0448
 6304TIP3    H118876   4.426   5.147   1.507 -0.6446  1.3067  1.1875
 6304TIP3    H218877   4.449   5.296   1.498  0.4681  1.0869  0.1557
 6305TIP3   OH218878   7.171   4.044   0.245 -0.0573  0.1952  1.0817
 6305TIP3    H118879   7.095   4.029   0.188  1.0238 -0.6573 -0.1764
 6305TIP3    H218880   7.154   3.988   0.321  0.6265 -2.3263 -0.4820
 6306TIP3   OH218881   1.930   5.215   1.049 -0.4316 -0.0890 -0.0876
 6306TIP3    H118882   1.963   5.302   1.071 -0.9359 -0.2949  1.6330
 6306TIP3    H218883   1.867   5.195   1.118  1.6940 -2.9504  1.2450
 6307TIP3   OH218884   1.377   0.490   4.460 -0.3026 -0.0115 -0.4387
 6307TIP3    H118885   1.374   0.400   4.492  1.4995 -0.0433 -0.2629
 6307TIP3    H218886   1.331   0.541   4.528 -0.7493 -0.7051 -0.2147
 6308TIP3   OH218887   3.050   4.924   1.486  0.5394 -0.5852  0.1173
 6308TIP3    H118888   3.082   4.949   1.400 -0.1136 -0.2270 -0.0279
 6308TIP3    H218889   3.090   4.839   1.504  1.8982  0.0310  0.1221
 6309TIP3   OH218890   1.415   6.232   5.455  0.1026  0.1389 -0.7983
 6309TIP3    H118891   1.406   6.281   5.374 -3.4084  0.8854 -0.1171
 6309TIP3    H218892   1.406   6.298   5.524 -0.3141 -0.9052  0.1741
 6310TIP3   OH218893   1.864   6.777   0.275  0.6606  0.6469 -0.7163
 6310TIP3    H118894   1.953   6.799   0.247  0.2897  0.6563 -1.9470
 6310TIP3    H218895   1.820   6.748   0.195 -1.0961  2.7287 -0.6094
 6311TIP3   OH218896   1.045   5.810   5.383  0.2312 -0.4366 -0.3043
 6311TIP3    H118897   1.088   5.731   5.352  0.2343 -0.4844 -0.1808
 6311TIP3    H218898   1.115   5.861   5.425  0.0419 -0.8337  0.5213
 6312TIP3   OH218899   0.698   5.298   2.570 -0.1664  0.4326  0.4063
 6312TIP3    H118900   0.670   5.285   2.660 -0.4094 -0.0220  0.2657
 6312TIP3    H218901   0.780   5.250   2.562 -0.1779  0.4190  0.3659
 6313TIP3   OH218902   4.343   2.336   0.183  0.1223 -0.3505 -0.5991
 6313TIP3    H118903   4.379   2.378   0.261 -1.4811  1.6296 -0.8299
 6313TIP3    H218904   4.362   2.243   0.194  0.6099 -0.0221  1.7665
 6314TIP3   OH218905   5.388   0.211   2.492 -0.4462 -0.2242  0.3167
 6314TIP3    H118906   5.421   0.121   2.491  0.2787 -0.0054 -2.2333
 6314TIP3    H218907   5.354   0.225   2.404 -1.8701  1.5678  1.0822
 6315TIP3   OH218908   4.434   0.941   1.838  0.0623  0.3504  0.1625
 6315TIP3    H118909   4.517   0.989   1.844  0.2009  0.3045 -1.0189
 6315TIP3    H218910   4.370   1.007   1.811 -0.0357  0.1649 -0.0678
 6316TIP3   OH218911   4.411   3.533   2.397 -0.4243 -0.2964  0.5628
 6316TIP3    H118912   4.326   3.575   2.382  0.5165  1.0246 -1.5325
 6316TIP3    H218913   4.433   3.554   2.488 -0.3955  3.1680 -0.1284
 6317TIP3   OH218914   3.079   4.529   1.906  0.4584 -0.2508  0.1720
 6317TIP3    H118915   3.044   4.618   1.916 -0.9503 -0.8433  0.7051
 6317TIP3    H218916   3.055   4.504   1.816  0.3285 -0.3090  0.2225
 6318TIP3   OH218917   2.949   0.308   2.156 -0.6279 -0.0413 -0.3052
 6318TIP3    H118918   2.968   0.263   2.238  0.9904  1.7836  0.4041
 6318TIP3    H218919   2.855   0.292   2.141 -0.4385 -2.4103  0.5728
 6319TIP3   OH218920   5.173   4.104   1.003  0.5699  0.5879 -0.3958
 6319TIP3    H118921   5.197   4.190   0.969  0.7779  0.2380 -1.1603
 6319TIP3    H218922   5.238   4.044   0.965  1.4383  0.2995  1.4192
 6320TIP3   OH218923   4.121   2.280   3.505 -0.0843  0.4220 -0.0843
 6320TIP3    H118924   4.085   2.191   3.500  0.6432  0.1440 -0.5084
 6320TIP3    H218925   4.153   2.288   3.595  2.2821 -0.7429 -0.7296
 6321TIP3   OH218926   0.664   1.746   4.544  0.5603 -0.3611 -0.7462
 6321TIP3    H118927   0.620   1.772   4.464  0.7000 -0.2338 -0.7824
 6321TIP3    H218928   0.684   1.828   4.588 -0.9039 -0.4679  0.1735
 6322TIP3   OH218929   0.267   3.207   2.879 -0.1365  0.1693 -0.0046
 6322TIP3    H118930   0.176   3.182   2.888 -1.1561  3.6719  1.1546
 6322TIP3    H218931   0.274   3.243   2.790 -0.3372  1.2607  0.4017
 6323TIP3   OH218932   4.989   1.276   5.485  0.2667 -0.3238  0.4864
 6323TIP3    H118933   4.992   1.256   5.579  0.7290  1.5603  0.9242
 6323TIP3    H218934   4.897   1.298   5.468  0.0548 -1.2847  0.3326
 6324TIP3   OH218935   0.154   1.137   5.770 -0.2814 -0.1866  0.2433
 6324TIP3    H118936   0.214   1.098   5.834 -0.6642 -1.6255 -0.2195
 6324TIP3    H218937   0.067   1.117   5.804 -0.4959 -1.1542 -0.7806
 6325TIP3   OH218938   0.460   4.443   0.718 -0.2056 -0.1695  0.3497
 6325TIP3    H118939   0.498   4.368   0.673 -1.9055 -0.2747 -1.0460
 6325TIP3    H218940   0.534   4.503   0.732  0.8377 -1.2709 -0.2501
 6326TIP3   OH218941   0.151   0.270   0.929  0.3738 -0.1690 -0.2664
 6326TIP3    H118942   0.217   0.303   0.867  0.2256  0.4372 -0.1095
 6326TIP3    H218943   0.159   0.328   1.005  0.2413 -0.6240  0.0952
 6327TIP3   OH218944   1.059   6.683   3.910 -0.1846 -0.1165  0.1296
 6327TIP3    H118945   1.051   6.738   3.988 -2.0581  0.2078 -0.2599
 6327TIP3    H218946   1.000   6.610   3.926 -0.9660  0.2106 -1.1933
 6328TIP3   OH218947   6.464   5.527   1.997  0.1054  0.0799  0.2013
 6328TIP3    H118948   6.515   5.600   1.963  0.6918 -0.2387  0.3956
 6328TIP3    H218949   6.468   5.461   1.928 -0.8088  0.3897 -0.1758
 6329TIP3   OH218950   5.584   3.445   4.470 -0.2850  0.0040 -0.0424
 6329TIP3    H118951   5.577   3.366   4.417 -1.6801 -0.0930  0.2400
 6329TIP3    H218952   5.560   3.417   4.558  0.1063  0.5576  0.2490
 6330TIP3   OH218953   6.922   0.803   5.578 -0.2694  0.0012  0.1897
 6330TIP3    H118954   6.842   0.762   5.612 -0.1921 -1.2189 -1.0392
 6330TIP3    H218955   6.945   0.752   5.501  1.0118  1.1136 -0.2108
 6331TIP3   OH218956   4.499   6.214   1.311 -0.2016 -0.3574  0.1036
 6331TIP3    H118957   4.441   6.214   1.387  0.6435  0.8126  0.7700
 6331TIP3    H218958   4.502   6.122   1.283 -3.6974 -0.2600 -1.0375
 6332TIP3   OH218959   5.998   6.661   1.862 -0.4827 -0.2583  0.6732
 6332TIP3    H118960   6.093   6.668   1.866 -0.4719  1.9267 -1.4480
 6332TIP3    H218961   5.981   6.567   1.863  1.5885 -0.6822  2.2435
 6333TIP3   OH218962   2.460   5.067   1.065 -0.7694 -0.1343 -0.4926
 6333TIP3    H118963   2.428   5.073   1.155  0.6552 -0.2763  0.0507
 6333TIP3    H218964   2.477   5.158   1.040  0.8329 -0.2075  0.1762
 6334TIP3   OH218965   3.797   2.348   2.689 -0.3891  0.6708 -0.1096
 6334TIP3    H118966   3.792   2.252   2.691 -1.0824  0.7118  0.0693
 6334TIP3    H218967   3.734   2.377   2.754 -1.8985  1.3011 -1.7973
 6335TIP3   OH218968   3.469   2.015   1.444  0.4644  0.2289 -0.2367
 6335TIP3    H118969   3.412   1.995   1.370 -0.3984  0.7689  0.2746
 6335TIP3    H218970   3.545   2.058   1.404 -0.5517  1.6619 -0.7126
 6336TIP3   OH218971   4.479   1.053   2.565 -0.5843 -0.5160  0.2122
 6336TIP3    H118972   4.476   1.000   2.645  0.6939 -0.5707  0.2458
 6336TIP3    H218973   4.572   1.069   2.550 -0.9182  1.5394  0.0635
 6337TIP3   OH218974   4.175   0.264   0.549  0.1682  0.1457 -0.4464
 6337TIP3    H118975   4.177   0.352   0.586 -0.7840 -0.6398  1.6329
 6337TIP3    H218976   4.101   0.265   0.489 -0.6210  0.4668  0.4952
 6338TIP3   OH218977   3.253   0.860   1.163  0.3647 -0.3535  0.1829
 6338TIP3    H118978   3.187   0.853   1.232  0.6535  0.5068  0.5562
 6338TIP3    H218979   3.265   0.770   1.132  0.1304 -0.7358  1.1669
 6339TIP3   OH218980   5.915   1.023   1.237  0.2850  0.3017  0.1575
 6339TIP3    H118981   5.988   1.036   1.297  0.4874  1.6911 -0.3390
 6339TIP3    H218982   5.838   1.056   1.285 -0.3111 -2.3040  1.1709
 6340TIP3   OH218983   3.012   0.831   1.007  0.6388  0.0665 -0.3525
 6340TIP3    H118984   3.070   0.880   1.064 -0.8622  1.4387  0.0638
 6340TIP3    H218985   3.022   0.872   0.921 -0.4498  1.0091 -0.0529
 6341TIP3   OH218986   2.312   1.326   1.194  0.0248  0.6381  0.3094
 6341TIP3    H118987   2.305   1.282   1.279  2.2987  0.0128  0.2100
 6341TIP3    H218988   2.268   1.267   1.133  0.5338 -0.1259  0.6597
 6342TIP3   OH218989   3.727   0.160   2.764 -0.4933  0.3737 -0.2457
 6342TIP3    H118990   3.687   0.080   2.731  0.4589 -0.1601 -0.1430
 6342TIP3    H218991   3.736   0.216   2.687 -1.1300  0.3723 -0.3245
 6343TIP3   OH218992   6.835   1.002   4.200 -0.2111 -0.2752 -0.1059
 6343TIP3    H118993   6.812   1.013   4.292  1.4331 -2.2349  0.6219
 6343TIP3    H218994   6.882   1.082   4.177 -1.2996  0.5634  0.4966
 6344TIP3   OH218995   1.345   2.610   3.575 -0.1318  0.3846 -0.1473
 6344TIP3    H118996   1.259   2.600   3.615  0.0662  0.5894  0.3331
 6344TIP3    H218997   1.381   2.521   3.573 -0.0816  0.3924  0.2701
 6345TIP3   OH218998   1.174   6.219   4.027  0.1373  0.4916 -0.3575
 6345TIP3    H118999   1.135   6.210   3.940  1.5778  0.4504 -1.0171
 6345TIP3    H219000   1.132   6.149   4.078 -0.9342  0.6983 -0.9158
 6346TIP3   OH219001   4.649   5.414   2.771 -0.3682  0.0146 -0.0259
 6346TIP3    H119002   4.660   5.329   2.814  0.0481 -0.0650 -0.2882
 6346TIP3    H219003   4.649   5.394   2.678  0.0221  0.3342 -0.0979
 6347TIP3   OH219004   6.818   3.900   2.394  0.3951  0.2736  0.2844
 6347TIP3    H119005   6.770   3.821   2.415  1.1799 -0.6050 -1.0819
 6347TIP3    H219006   6.785   3.966   2.456 -1.8332 -0.5284  0.0395
 6348TIP3   OH219007   6.707   0.630   5.690 -0.0425  0.1633  0.0866
 6348TIP3    H119008   6.725   0.675   5.772  0.1106  0.7531 -0.2685
 6348TIP3    H219009   6.790   0.588   5.667 -0.4025 -1.0069  0.8386
 6349TIP3   OH219010   3.810   4.616   5.179  0.0539 -0.3343  0.2816
 6349TIP3    H119011   3.883   4.666   5.216 -0.1221  0.2026 -0.0884
 6349TIP3    H219012   3.793   4.657   5.095  0.7312 -1.8350 -0.6152
 6350TIP3   OH219013   5.520   0.353   1.058  0.3858  0.1406 -0.1512
 6350TIP3    H119014   5.449   0.290   1.073  1.0454 -0.8900 -1.1373
 6350TIP3    H219015   5.517   0.412   1.133 -0.9807 -0.3915  0.2319
 6351TIP3   OH219016   4.721   2.828   0.463 -0.1479  0.0084  0.4372
 6351TIP3    H119017   4.733   2.866   0.550 -1.7374  0.8794  0.3198
 6351TIP3    H219018   4.792   2.864   0.410  1.3261 -1.1685  1.5292
 6352TIP3   OH219019   6.275   3.880   2.255  0.9330 -0.1205  0.0309
 6352TIP3    H119020   6.307   3.969   2.244  0.8146 -0.1496 -0.5580
 6352TIP3    H219021   6.186   3.890   2.291  0.5090  0.0339 -1.0225
 6353TIP3   OH219022   5.698   3.511   1.706  0.5056 -0.0639  0.6168
 6353TIP3    H119023   5.623   3.479   1.657 -0.3873  0.2453  1.7272
 6353TIP3    H219024   5.700   3.605   1.690  0.8844 -0.1227  0.2993
 6354TIP3   OH219025   4.926   0.470   1.759 -0.4140 -0.6683 -0.5898
 6354TIP3    H119026   5.013   0.499   1.730  0.0311 -1.2974  0.0989
 6354TIP3    H219027   4.875   0.551   1.765  0.1864 -0.2688 -0.7723
 6355TIP3   OH219028   5.920   4.007   2.044 -0.3880  0.0975 -0.1743
 6355TIP3    H119029   5.882   3.931   1.999  1.0311 -1.6960  1.4520
 6355TIP3    H219030   6.010   4.012   2.011 -0.6165  1.4499 -0.6548
 6356TIP3   OH219031   1.103   2.959   2.275  0.6326  0.4090  0.3892
 6356TIP3    H119032   1.104   3.051   2.302 -0.8418  0.5474  0.0724
 6356TIP3    H219033   1.195   2.935   2.268  1.0434  1.9652  0.1205
 6357TIP3   OH219034   6.439   3.906   2.870 -0.4703 -0.7215  0.3531
 6357TIP3    H119035   6.373   3.844   2.837  1.1270 -1.8788 -0.8043
 6357TIP3    H219036   6.478   3.862   2.945  0.0607 -0.7294  0.0751
 6358TIP3   OH219037   5.595   3.361   3.891  0.2570 -0.1432  0.5019
 6358TIP3    H119038   5.685   3.394   3.890  0.0353  0.6105  2.2784
 6358TIP3    H219039   5.557   3.395   3.810  1.5780 -0.5756 -0.3434
 6359TIP3   OH219040   5.897   3.363   5.783 -0.5354  0.1753 -0.4173
 6359TIP3    H119041   5.966   3.324   5.729 -0.4748 -2.4721  1.4287
 6359TIP3    H219042   5.944   3.414   5.849 -0.4547  0.0971 -0.4150
 6360TIP3   OH219043   4.313   4.450   5.169 -0.0301  0.1256  0.2259
 6360TIP3    H119044   4.231   4.462   5.121  0.4064 -1.0985 -0.8936
 6360TIP3    H219045   4.290   4.392   5.242  0.0360 -1.2256 -0.7843
 6361TIP3   OH219046   0.527   0.188   1.953  0.3066  0.5370  0.6847
 6361TIP3    H119047   0.598   0.124   1.943  1.1204  1.2598  1.6702
 6361TIP3    H219048   0.452   0.146   1.912  1.4035 -0.0546 -0.8316
 6362TIP3   OH219049   4.188   0.744   2.529 -0.8341 -0.0771  0.2381
 6362TIP3    H119050   4.267   0.698   2.500 -0.0539  1.3865 -0.0541
 6362TIP3    H219051   4.215   0.790   2.609 -0.5532  2.6226 -1.3077
 6363TIP3   OH219052   3.851   2.139   1.930  0.7893  0.0380 -0.2553
 6363TIP3    H119053   3.888   2.056   1.958  1.1956 -0.9209 -3.2965
 6363TIP3    H219054   3.910   2.171   1.862 -1.4198  0.8054 -1.9375
 6364TIP3   OH219055   2.289   2.118   2.797  0.4401  0.5188 -0.1938
 6364TIP3    H119056   2.210   2.172   2.787  0.8210  1.0828 -0.2183
 6364TIP3    H219057   2.256   2.031   2.819 -0.1927  0.7312 -0.2738
 6365TIP3   OH219058   0.910   0.651   3.773  0.2785 -0.1340 -0.1776
 6365TIP3    H119059   0.954   0.712   3.832  0.2956  0.6772 -1.0133
 6365TIP3    H219060   0.817   0.661   3.792  0.1599  1.3142 -1.3709
 6366TIP3   OH219061   2.665   2.733   1.696 -0.2118  0.0850 -0.9459
 6366TIP3    H119062   2.699   2.721   1.784 -1.1793 -2.1897 -0.8165
 6366TIP3    H219063   2.694   2.655   1.648 -1.3537  0.3199 -2.0833
 6367TIP3   OH219064   5.286   2.827   1.590 -0.1466  0.2617  0.7408
 6367TIP3    H119065   5.210   2.786   1.548  0.4554 -1.4139  1.2316
 6367TIP3    H219066   5.256   2.916   1.609 -0.6226  1.0047 -2.7296
 6368TIP3   OH219067   1.724   5.181   1.224 -0.2795  0.5714  0.0935
 6368TIP3    H119068   1.647   5.234   1.205 -0.0450  0.5183 -1.1007
 6368TIP3    H219069   1.710   5.149   1.313 -0.6224  2.2990  0.7071
 6369TIP3   OH219070   7.103   5.449   5.613  0.1350 -0.1614  0.4004
 6369TIP3    H119071   7.151   5.531   5.603 -0.3908  0.0840 -0.1819
 6369TIP3    H219072   7.155   5.399   5.675  0.1744  0.8273  1.1895
 6370TIP3   OH219073   5.317   6.025   4.860  0.4255 -0.3971  0.0972
 6370TIP3    H119074   5.235   6.050   4.818  0.6364  1.5445  0.7464
 6370TIP3    H219075   5.385   6.047   4.796  0.6177  0.8180  0.6921
 6371TIP3   OH219076   1.902   6.100   1.934  0.4250  0.4778 -0.3944
 6371TIP3    H119077   1.977   6.159   1.921  1.7457 -1.1912 -0.8004
 6371TIP3    H219078   1.926   6.020   1.886 -1.8075  0.0073 -0.8496
 6372TIP3   OH219079   1.244   4.722   5.714 -0.1803 -0.3843 -0.0324
 6372TIP3    H119080   1.193   4.800   5.734 -0.1601 -0.7294  1.4460
 6372TIP3    H219081   1.179   4.652   5.709 -0.1097 -0.4160 -0.5450
 6373TIP3   OH219082   3.867   3.196   2.401  0.5653 -0.0805  0.0430
 6373TIP3    H119083   3.796   3.204   2.465 -0.4435 -0.2062 -1.0271
 6373TIP3    H219084   3.901   3.107   2.414  1.4221  0.4272  1.4443
 6374TIP3   OH219085   6.643   2.804   1.577 -0.2549  0.1789  0.0125
 6374TIP3    H119086   6.692   2.807   1.659 -0.4842  1.2329  0.1290
 6374TIP3    H219087   6.578   2.734   1.590 -0.9551  0.9992  1.1309
 6375TIP3   OH219088   3.559   0.786   1.732  0.1601 -0.8202 -0.4777
 6375TIP3    H119089   3.586   0.723   1.665  1.0032 -0.9581 -0.0290
 6375TIP3    H219090   3.481   0.747   1.772  0.4983 -1.4395 -0.4104
 6376TIP3   OH219091   2.833   5.837   1.376 -0.1960  0.0731 -0.1856
 6376TIP3    H119092   2.868   5.778   1.443  0.7906  1.3797  0.4891
 6376TIP3    H219093   2.898   5.837   1.306  1.3125  2.5249  1.0820
 6377TIP3   OH219094   5.739   5.823   4.212  0.3898  0.2216 -0.0077
 6377TIP3    H119095   5.768   5.894   4.154  0.8235  1.5103  1.7219
 6377TIP3    H219096   5.746   5.859   4.300 -0.8130 -1.4825  0.8427
 6378TIP3   OH219097   3.395   4.401   2.139  0.1379 -0.4248 -0.2583
 6378TIP3    H119098   3.325   4.465   2.150  0.1050 -0.5564  0.2988
 6378TIP3    H219099   3.466   4.432   2.196  1.2476  0.7012 -2.1323
 6379TIP3   OH219100   2.925   1.483   2.355  0.2680  0.4070  0.5684
 6379TIP3    H119101   2.890   1.446   2.275  0.3018  0.6313  0.4496
 6379TIP3    H219102   2.864   1.455   2.424 -0.9216  1.9353  0.1793
 6380TIP3   OH219103   1.825   4.404   2.911 -0.7711 -0.1892  0.1130
 6380TIP3    H119104   1.748   4.367   2.867  1.1644 -1.9570 -2.0821
 6380TIP3    H219105   1.835   4.491   2.871 -2.1824  0.5274  1.2241
 6381TIP3   OH219106   1.315   5.630   3.466 -0.1155 -0.1965 -0.1817
 6381TIP3    H119107   1.266   5.551   3.487  0.1697 -0.2903  0.1441
 6381TIP3    H219108   1.305   5.640   3.372  0.6621 -1.1783 -0.3908
 6382TIP3   OH219109   1.666   5.893   2.710 -0.2501  0.5532  0.0708
 6382TIP3    H119110   1.635   5.965   2.656  0.3970  2.0610  1.5954
 6382TIP3    H219111   1.592   5.833   2.715 -0.8632  1.1659 -1.1233
 6383TIP3   OH219112   5.915   1.119   3.267  0.2165  0.0660 -0.1331
 6383TIP3    H119113   6.002   1.135   3.304 -0.4537 -0.0205  1.5961
 6383TIP3    H219114   5.860   1.100   3.344 -1.4135  0.5082 -1.1497
 6384TIP3   OH219115   3.950   3.987   0.342 -0.3090 -0.0363 -0.1090
 6384TIP3    H119116   3.966   3.924   0.412  0.3503 -0.2009 -0.3927
 6384TIP3    H219117   3.859   4.014   0.353 -0.1046  0.2215  1.0358
 6385TIP3   OH219118   1.371   3.031   4.889 -0.3205 -0.1036  0.2159
 6385TIP3    H119119   1.344   3.001   4.802  0.5375  0.3907 -0.2384
 6385TIP3    H219120   1.334   2.967   4.949 -1.8739  0.1444 -0.4135
 6386TIP3   OH219121   5.727   3.717   2.567 -0.3189  0.1913  0.6768
 6386TIP3    H119122   5.769   3.682   2.488 -0.0536  0.0245  0.8908
 6386TIP3    H219123   5.793   3.774   2.606 -0.2244 -0.2165  1.1140
 6387TIP3   OH219124   5.941   4.928   0.057 -0.3663  0.0112  0.1020
 6387TIP3    H119125   5.931   4.985   0.133  0.9591  1.9849 -1.1265
 6387TIP3    H219126   5.867   4.950  -0.000 -0.6543 -0.5710  0.2363
 6388TIP3   OH219127   4.417   4.385   0.958 -0.0609 -0.2078  0.3152
 6388TIP3    H119128   4.390   4.464   1.004 -2.0261 -1.4747  1.5078
 6388TIP3    H219129   4.478   4.341   1.018 -1.0059 -0.8373  0.8454
 6389TIP3   OH219130   1.114   1.701   2.046  0.7753  0.2997 -0.0069
 6389TIP3    H119131   1.069   1.776   2.084  1.2207 -0.0405  1.2548
 6389TIP3    H219132   1.046   1.634   2.037  0.7368  0.2467  0.6088
 6390TIP3   OH219133   2.900   6.121   0.823 -0.3845  0.1771  0.0964
 6390TIP3    H119134   2.894   6.042   0.769  0.9448  0.6216 -0.7543
 6390TIP3    H219135   2.883   6.193   0.763 -0.5438  0.5965  0.6332
 6391TIP3   OH219136   3.709   2.550   1.807 -0.8880  0.1881  0.5792
 6391TIP3    H119137   3.785   2.608   1.809  0.1280 -1.0291 -0.7410
 6391TIP3    H219138   3.688   2.540   1.714 -2.0828 -0.2377  0.8739
 6392TIP3   OH219139   6.916   3.577   1.637 -0.4680 -0.5312  0.1484
 6392TIP3    H119140   6.965   3.549   1.560  0.3461 -0.7942  0.7523
 6392TIP3    H219141   6.824   3.575   1.609 -0.0931  2.5499 -1.8862
 6393TIP3   OH219142   6.371   0.154   1.299  0.0613  0.5571 -0.4750
 6393TIP3    H119143   6.322   0.094   1.243 -0.6500  0.9472 -0.2773
 6393TIP3    H219144   6.421   0.208   1.238 -1.2885  1.4901 -0.7947
 6394TIP3   OH219145   2.891   2.212   4.215  0.5031  0.1852  0.1254
 6394TIP3    H119146   2.853   2.239   4.132  1.4052  0.2466 -0.2715
 6394TIP3    H219147   2.979   2.249   4.215  0.0731  1.3271  1.6927
 6395TIP3   OH219148   0.163   0.708   5.499  0.1081 -0.4186  0.1200
 6395TIP3    H119149   0.113   0.689   5.419 -1.4509 -1.8288  1.3590
 6395TIP3    H219150   0.160   0.804   5.506 -0.8079 -0.3516 -0.8704
 6396TIP3   OH219151   4.573   0.468   3.408 -0.0597 -0.4462  0.5399
 6396TIP3    H119152   4.505   0.482   3.343  0.8089  1.4452 -0.0289
 6396TIP3    H219153   4.546   0.388   3.454 -3.9100  1.3830  1.8863
 6397TIP3   OH219154   0.580   0.093   4.723  0.0484  0.3236  0.3038
 6397TIP3    H119155   0.599   0.042   4.644  0.3726  0.8283  0.0503
 6397TIP3    H219156   0.575   0.184   4.692  1.2488  0.6598  1.0345
 6398TIP3   OH219157   2.403   1.232   0.836 -0.4226 -0.2420 -0.5452
 6398TIP3    H119158   2.370   1.314   0.872  2.8582  1.3874 -0.8761
 6398TIP3    H219159   2.405   1.171   0.911 -1.3751  0.4819  0.0828
 6399TIP3   OH219160   6.867   3.435   4.930  0.6105 -0.4426  0.0487
 6399TIP3    H119161   6.904   3.408   5.013  1.2869  1.2939  0.3519
 6399TIP3    H219162   6.942   3.442   4.871  0.4493  0.4902 -0.0707
 6400TIP3   OH219163   6.108   0.174   1.748  0.7777 -0.0047  0.0981
 6400TIP3    H119164   6.021   0.204   1.774 -0.3800 -0.6969 -2.6764
 6400TIP3    H219165   6.129   0.105   1.812 -1.0293 -0.3435  0.3812
 6401TIP3   OH219166   7.024   4.206   1.813 -0.4511 -0.3302  0.0721
 6401TIP3    H119167   7.099   4.195   1.872  0.1992  0.8633 -0.5054
 6401TIP3    H219168   7.005   4.300   1.814 -0.0784 -0.1800 -2.0032
 6402TIP3   OH219169   1.442   6.193   3.331 -0.2177  0.0511  0.2180
 6402TIP3    H119170   1.528   6.235   3.336 -0.9635  2.4794 -3.2878
 6402TIP3    H219171   1.460   6.102   3.310  1.5305  0.5788 -0.7149
 6403TIP3   OH219172   4.484   2.021   3.121 -0.0895 -0.5951  0.2661
 6403TIP3    H119173   4.522   2.108   3.132  0.8089 -1.1326  1.8709
 6403TIP3    H219174   4.551   1.972   3.072 -1.2879  0.0030 -2.1121
 6404TIP3   OH219175   1.941   3.493   5.766  0.1288  0.3155  0.0090
 6404TIP3    H119176   1.846   3.506   5.767 -0.4726 -3.0139 -0.7080
 6404TIP3    H219177   1.977   3.581   5.757 -2.8515  1.7253  0.4906
 6405TIP3   OH219178   6.274   6.460   1.574 -0.1324  0.0763  0.3172
 6405TIP3    H119179   6.358   6.497   1.601 -0.4759  0.3297  1.0818
 6405TIP3    H219180   6.293   6.369   1.550  0.4663  0.3230 -0.1610
 6406TIP3   OH219181   2.021   4.337   0.785 -0.0796  0.2357 -0.0539
 6406TIP3    H119182   2.050   4.246   0.777  0.8895  0.5860 -0.6962
 6406TIP3    H219183   2.079   4.375   0.851  1.4704  1.1293 -1.8454
 6407TIP3   OH219184   4.741   1.593   0.730 -0.3623  0.0166 -0.0371
 6407TIP3    H119185   4.648   1.610   0.746 -0.6733 -0.9469 -0.7248
 6407TIP3    H219186   4.742   1.513   0.677  0.6784  1.7252 -2.8533
 6408TIP3   OH219187   6.235   2.744   1.159  0.4704 -0.0180  0.9406
 6408TIP3    H119188   6.217   2.769   1.068  0.2174 -0.4729  0.8610
 6408TIP3    H219189   6.208   2.820   1.211 -1.4613 -0.5597  0.8067
 6409TIP3   OH219190   2.748   4.393   4.910 -0.7583  0.0986  0.5405
 6409TIP3    H119191   2.707   4.472   4.944  0.3113  1.0218 -0.2305
 6409TIP3    H219192   2.790   4.421   4.829 -0.4162 -1.2864  0.2111
 6410TIP3   OH219193   3.533   5.027   1.620 -0.5021 -0.3671 -0.3796
 6410TIP3    H119194   3.589   4.986   1.554  1.1127 -0.0354  0.7008
 6410TIP3    H219195   3.471   4.959   1.646  0.3051 -1.2159 -0.6357
 6411TIP3   OH219196   0.141   3.145   1.869 -0.6870  0.8157 -0.0054
 6411TIP3    H119197   0.230   3.163   1.899  0.1120 -1.2258 -0.9555
 6411TIP3    H219198   0.133   3.195   1.788 -0.3408  0.8537 -0.0190
 6412TIP3   OH219199   1.621   5.761   2.098  0.0026 -0.5134 -0.3189
 6412TIP3    H119200   1.665   5.845   2.116 -1.2715  0.5777 -2.0317
 6412TIP3    H219201   1.563   5.748   2.173 -0.8392  0.9052 -0.6817
 6413TIP3   OH219202   3.008   6.430   1.492 -0.2016 -0.2003 -0.0566
 6413TIP3    H119203   3.012   6.356   1.552  2.6624  0.0100  0.1420
 6413TIP3    H219204   2.973   6.502   1.545 -0.6936 -0.8013  0.4417
 6414TIP3   OH219205   1.652   0.195   3.865  0.6150 -0.1592  0.3054
 6414TIP3    H119206   1.560   0.182   3.889 -0.5354  1.6824 -2.5444
 6414TIP3    H219207   1.664   0.290   3.866  1.4818 -0.1677 -2.4604
 6415TIP3   OH219208   0.045   4.304   3.279  0.5946  0.1278 -0.3217
 6415TIP3    H119209   0.095   4.293   3.360 -0.2564  0.9407  0.3289
 6415TIP3    H219210   0.109   4.338   3.217  0.7507  1.7194  0.6600
 6416TIP3   OH219211   4.236   3.962   1.194 -0.1322 -0.2824  0.1907
 6416TIP3    H119212   4.194   3.876   1.194 -0.1407 -0.2775  0.6397
 6416TIP3    H219213   4.250   3.981   1.101  1.6815 -1.6341  0.1293
 6417TIP3   OH219214   5.808   4.786   2.778  0.2597 -0.2686  0.1683
 6417TIP3    H119215   5.846   4.737   2.706 -0.5392  1.3548 -1.4271
 6417TIP3    H219216   5.841   4.743   2.857  1.8222 -1.5838 -1.1516
 6418TIP3   OH219217   5.731   4.808   5.067 -0.0738  0.2869  0.0534
 6418TIP3    H119218   5.718   4.804   4.973  1.2552 -2.7436 -0.1139
 6418TIP3    H219219   5.669   4.744   5.103 -1.4475  2.2797  1.4245
 6419TIP3   OH219220   0.214   4.752   4.991  0.5313 -0.2553  0.4294
 6419TIP3    H119221   0.251   4.699   5.062  1.0006 -0.6921 -0.1266
 6419TIP3    H219222   0.180   4.688   4.929  0.7333  0.1082 -0.0569
 6420TIP3   OH219223   4.808   2.372   0.517 -0.0199  0.0350  0.0214
 6420TIP3    H119224   4.832   2.455   0.556  0.9164 -0.4818  0.5888
 6420TIP3    H219225   4.795   2.313   0.591  0.8976 -0.7265 -0.4021
 6421TIP3   OH219226   2.680   5.855   3.751  0.0101  0.5937  0.7513
 6421TIP3    H119227   2.664   5.950   3.750  2.1383  1.0196  2.1193
 6421TIP3    H219228   2.678   5.832   3.844 -0.5581 -0.7451  0.4239
 6422TIP3   OH219229   4.560   3.518   0.232  0.1681  0.0503  0.3408
 6422TIP3    H119230   4.552   3.467   0.312  0.6318  0.5695  0.7230
 6422TIP3    H219231   4.577   3.452   0.164  1.8175 -0.2517  0.9916
 6423TIP3   OH219232   6.125   4.949   4.333 -0.1592 -0.3763  0.1398
 6423TIP3    H119233   6.172   4.948   4.250  0.5004  1.0236  0.4545
 6423TIP3    H219234   6.150   5.033   4.374 -0.3406 -1.0890  1.8143
 6424TIP3   OH219235   3.027   4.579   5.000 -0.5039 -0.1994  0.0993
 6424TIP3    H119236   3.110   4.600   5.042 -0.7414 -1.5645  1.3224
 6424TIP3    H219237   2.996   4.662   4.964  1.5660  0.2664 -0.7383
 6425TIP3   OH219238   2.621   4.100   5.771 -0.2268  0.2294  0.3272
 6425TIP3    H119239   2.529   4.090   5.795  0.2251 -0.3615  1.9009
 6425TIP3    H219240   2.636   4.032   5.705 -1.1246  0.9265 -0.6297
 6426TIP3   OH219241   2.049   5.489   1.118 -0.3385  0.1104  0.1090
 6426TIP3    H119242   2.138   5.525   1.127 -0.6094  1.1402 -1.1175
 6426TIP3    H219243   2.002   5.524   1.194  0.2375 -0.2968  0.6717
 6427TIP3   OH219244   0.607   5.306   0.587  0.3631 -0.3095 -0.2981
 6427TIP3    H119245   0.583   5.393   0.557 -1.1876 -0.3648  0.7238
 6427TIP3    H219246   0.626   5.316   0.680 -0.8082 -1.2251  0.0575
 6428TIP3   OH219247   3.498   5.653   4.933  0.1488  0.4657 -0.3536
 6428TIP3    H119248   3.423   5.705   4.962  0.3949 -0.0086  1.2475
 6428TIP3    H219249   3.574   5.709   4.949  0.1839  0.7961 -1.6028
 6429TIP3   OH219250   0.486   2.853   2.386 -0.6073  0.7544  0.3516
 6429TIP3    H119251   0.544   2.918   2.346 -0.1088  0.6167  0.8463
 6429TIP3    H219252   0.493   2.776   2.328 -0.5020  0.8321  0.2610
 6430TIP3   OH219253   1.678   3.066   4.462 -0.1124 -0.3197  0.3916
 6430TIP3    H119254   1.621   3.003   4.418  0.7023  1.1141 -3.0745
 6430TIP3    H219255   1.761   3.059   4.416  0.9774  1.1415  2.0084
 6431TIP3   OH219256   4.486   3.654   2.655  0.1747  0.3436  0.9558
 6431TIP3    H119257   4.569   3.636   2.699  0.1597 -0.2364  0.7546
 6431TIP3    H219258   4.488   3.748   2.636  1.7787 -0.0334 -1.0540
 6432TIP3   OH219259   7.021   3.208   3.454 -0.4163  0.0932  0.1067
 6432TIP3    H119260   6.997   3.285   3.402 -1.0647 -0.0065  0.2466
 6432TIP3    H219261   7.016   3.135   3.392  0.9880  0.2530 -0.2270
 6433TIP3   OH219262   2.010   3.118   3.183  0.2008 -0.0709 -0.3210
 6433TIP3    H119263   1.930   3.108   3.133 -0.4900 -0.1417  0.7591
 6433TIP3    H219264   1.993   3.072   3.266  1.5942 -0.6684 -0.3296
 6434TIP3   OH219265   3.506   5.855   0.217 -0.2076 -0.3969 -0.0621
 6434TIP3    H119266   3.433   5.915   0.203 -0.8774 -0.8325  1.3896
 6434TIP3    H219267   3.466   5.774   0.249  0.8776 -0.7842  0.3899
 6435TIP3   OH219268   3.574   2.172   5.742  0.0512 -0.2390  0.1877
 6435TIP3    H119269   3.514   2.168   5.668 -0.5733 -0.8958  0.7267
 6435TIP3    H219270   3.636   2.100   5.727  1.6355  1.2815 -1.1191
 6436TIP3   OH219271   0.244   4.369   0.911  0.8278  0.0034 -0.3280
 6436TIP3    H119272   0.164   4.340   0.866  1.0345 -2.2234  0.6156
 6436TIP3    H219273   0.301   4.399   0.840 -0.1598 -0.1123 -1.1993
 6437TIP3   OH219274   4.219   4.812   5.793  0.2237  0.1888  0.3200
 6437TIP3    H119275   4.203   4.771   5.878 -1.3217 -0.7533 -0.3711
 6437TIP3    H219276   4.255   4.898   5.814  2.1024 -0.9113  1.8593
 6438TIP3   OH219277   3.128   5.813   1.329  0.3393  0.3167 -0.3418
 6438TIP3    H119278   3.077   5.744   1.286  0.7527 -0.9163  1.0492
 6438TIP3    H219279   3.217   5.800   1.298  0.4431  0.1148  0.0305
 6439TIP3   OH219280   4.148   5.671   3.266  0.0578  0.1579  0.2042
 6439TIP3    H119281   4.068   5.698   3.220 -0.4470 -0.7347  0.5406
 6439TIP3    H219282   4.156   5.577   3.247  1.7306  0.4668 -0.8685
 6440TIP3   OH219283   4.306   6.549   0.374  0.1321  0.2106 -0.2303
 6440TIP3    H119284   4.345   6.632   0.400  1.1575 -0.4004  0.2609
 6440TIP3    H219285   4.348   6.528   0.290 -1.3972  1.0051 -1.2399
 6441TIP3   OH219286   6.305   4.661   0.162 -0.1540 -0.3523 -0.2500
 6441TIP3    H119287   6.364   4.636   0.090  1.5195  0.0448  0.9050
 6441TIP3    H219288   6.261   4.739   0.131  1.0046  0.1734 -0.6517
 6442TIP3   OH219289   4.817   0.476   3.161  0.0140  0.2552  0.0362
 6442TIP3    H119290   4.820   0.441   3.072  2.3841 -0.4472  0.3287
 6442TIP3    H219291   4.774   0.407   3.211 -1.5609  0.7584 -0.5621
 6443TIP3   OH219292   0.326   6.293   2.217 -0.7338  0.0729  0.3715
 6443TIP3    H119293   0.290   6.294   2.306 -1.0443 -0.4954  0.2573
 6443TIP3    H219294   0.264   6.344   2.166 -0.5674  0.3813  0.4762
 6444TIP3   OH219295   2.535   3.205   2.531 -0.1861  0.3936  0.3450
 6444TIP3    H119296   2.610   3.197   2.473 -1.3218 -2.4178 -0.8918
 6444TIP3    H219297   2.469   3.249   2.479 -0.8544 -1.1922 -0.1976
 6445TIP3   OH219298   1.736   0.155   3.395  0.7518 -0.0900 -0.5046
 6445TIP3    H119299   1.815   0.116   3.357  1.0494 -0.3652  0.3776
 6445TIP3    H219300   1.664   0.117   3.345  1.1275 -0.5791 -0.6782
 6446TIP3   OH219301   0.287   6.750   2.355 -0.2961 -0.1109  0.0205
 6446TIP3    H119302   0.239   6.827   2.387 -0.5590 -1.0972  2.1927
 6446TIP3    H219303   0.219   6.684   2.341 -0.0368 -0.0908 -1.5136
 6447TIP3   OH219304   2.273   1.510   0.646 -0.4362 -0.3785 -0.3948
 6447TIP3    H119305   2.355   1.552   0.620  0.6053 -1.9903  0.1415
 6447TIP3    H219306   2.267   1.526   0.740 -2.3628  2.3357 -0.8445
 6448TIP3   OH219307   1.428   4.899   5.619  0.4709  0.3772 -0.1333
 6448TIP3    H119308   1.369   4.824   5.628 -0.0234  0.9076  1.2547
 6448TIP3    H219309   1.480   4.878   5.541  0.2444 -1.3356  0.1195
 6449TIP3   OH219310   4.670   1.351   4.727  0.5487  0.1798 -0.2480
 6449TIP3    H119311   4.685   1.363   4.820 -1.0368  0.6685 -0.0124
 6449TIP3    H219312   4.694   1.435   4.688  4.0512 -0.9215 -0.7542
 6450TIP3   OH219313   0.347   1.439   0.243 -0.0858 -0.8162  0.7645
 6450TIP3    H119314   0.309   1.508   0.188  4.2611  1.0577 -0.2691
 6450TIP3    H219315   0.308   1.358   0.209 -0.3455  0.5730 -2.6387
 6451TIP3   OH219316   5.350   0.109   2.021  0.0050  0.6395  0.0864
 6451TIP3    H119317   5.345   0.015   2.004  0.1916  0.8103 -0.9857
 6451TIP3    H219318   5.299   0.149   1.951 -0.4313  1.3278  0.7765
 6452TIP3   OH219319   1.983   3.362   3.029 -0.7564  0.3944  0.3178
 6452TIP3    H119320   1.994   3.434   3.092  1.9108  0.0360  0.3854
 6452TIP3    H219321   1.989   3.283   3.082  0.4821  0.0981 -0.2371
 6453TIP3   OH219322   1.987   6.757   1.262  0.3870 -0.4629 -0.2932
 6453TIP3    H119323   1.925   6.813   1.216 -0.4977 -2.2694 -1.4261
 6453TIP3    H219324   1.934   6.710   1.327  0.9052 -0.7180 -0.0437
 6454TIP3   OH219325   6.721   2.658   2.624  0.1809 -0.7225  0.1618
 6454TIP3    H119326   6.795   2.612   2.583  1.1304  1.2966 -0.5402
 6454TIP3    H219327   6.658   2.669   2.553  0.7761  0.6552 -0.1806
 6455TIP3   OH219328   1.527   3.640   5.645  0.2029  0.1588  0.3071
 6455TIP3    H119329   1.482   3.570   5.598 -1.0087  0.1856  1.3474
 6455TIP3    H219330   1.474   3.652   5.725 -0.1816  2.8710 -0.2591
 6456TIP3   OH219331   2.586   2.078   1.567 -0.0700 -0.3205  0.3052
 6456TIP3    H119332   2.538   2.052   1.488  0.5018  0.8227 -0.4463
 6456TIP3    H219333   2.541   2.155   1.598  1.1159  0.6547 -0.2991
 6457TIP3   OH219334   1.292   1.185   5.781 -0.6033  0.2045  0.2184
 6457TIP3    H119335   1.323   1.096   5.765 -3.0811 -0.7734  0.4739
 6457TIP3    H219336   1.315   1.202   5.873 -1.0055 -0.5679  0.4701
 6458TIP3   OH219337   6.999   5.573   0.511  0.0061  0.2989  0.3158
 6458TIP3    H119338   7.007   5.668   0.518 -1.6157  0.6914 -2.0072
 6458TIP3    H219339   7.045   5.551   0.430 -1.6898 -0.5009 -0.4899
 6459TIP3   OH219340   7.110   6.054   2.491  0.3235 -0.0420 -0.2792
 6459TIP3    H119341   7.152   6.032   2.408  0.0738  1.1264 -0.7280
 6459TIP3    H219342   7.082   6.145   2.481 -1.2037 -0.3882  0.4564
 6460TIP3   OH219343   4.043   5.168   2.513 -0.3524 -0.3243  0.1838
 6460TIP3    H119344   3.980   5.214   2.569 -1.2019 -1.1780 -0.0500
 6460TIP3    H219345   3.990   5.120   2.451  0.5529 -0.6225 -0.3856
 6461TIP3   OH219346   4.803   1.010   2.951  0.0845  0.3624 -0.3759
 6461TIP3    H119347   4.803   1.106   2.962 -3.1549  0.3788  0.8253
 6461TIP3    H219348   4.804   0.976   3.040 -0.1019 -0.6598 -0.7501
 6462TIP3   OH219349   5.716   5.773   2.985  0.4663  0.2270  0.0805
 6462TIP3    H119350   5.758   5.860   2.986  1.2238 -0.1295  1.1516
 6462TIP3    H219351   5.759   5.725   3.056  0.3878 -1.1878 -0.7987
 6463TIP3   OH219352   0.909   5.963   3.869 -0.6392  0.1192 -0.0449
 6463TIP3    H119353   0.911   5.983   3.963 -1.9131 -0.5616  0.1482
 6463TIP3    H219354   0.973   6.024   3.830 -1.1628  1.4280  1.0720
 6464TIP3   OH219355   5.613   1.520   2.257 -0.2193 -0.0429 -0.7432
 6464TIP3    H119356   5.649   1.432   2.252  0.6829  0.2819 -0.2059
 6464TIP3    H219357   5.643   1.563   2.176  0.6894  0.2445 -0.2711
 6465TIP3   OH219358   3.880   4.250   4.164 -0.0440 -0.7837  0.1696
 6465TIP3    H119359   3.940   4.229   4.093  0.0062  0.4090 -0.1551
 6465TIP3    H219360   3.937   4.272   4.238 -0.0029  1.6702 -0.5166
 6466TIP3   OH219361   2.252   4.995   2.501 -0.0693 -0.3118  0.3941
 6466TIP3    H119362   2.249   4.945   2.420  1.1035 -0.8606  0.6698
 6466TIP3    H219363   2.318   5.062   2.486  1.1783 -1.2641  1.3182
 6467TIP3   OH219364   2.631   3.040   3.340 -0.6352  0.1362 -0.1538
 6467TIP3    H119365   2.567   3.097   3.383  0.2499 -0.5296  2.2163
 6467TIP3    H219366   2.597   2.951   3.356  2.0548 -0.4573  3.6289
 6468TIP3   OH219367   1.379   4.458   1.558  0.2748  0.0030  0.8503
 6468TIP3    H119368   1.370   4.377   1.607  0.7066  0.3946  1.6013
 6468TIP3    H219369   1.318   4.519   1.601 -1.1612 -0.3173 -0.6289
 6469TIP3   OH219370   2.030   3.088   5.747 -0.0802  0.2779  0.2717
 6469TIP3    H119371   2.016   3.045   5.663  1.3746 -0.7333  0.4998
 6469TIP3    H219372   2.059   3.176   5.725  2.5317 -0.6591 -0.4294
 6470TIP3   OH219373   3.069   5.387   4.969 -0.5122  0.5941 -0.2037
 6470TIP3    H119374   3.079   5.303   4.925 -0.1053 -0.1439  1.2288
 6470TIP3    H219375   3.158   5.410   4.997 -1.0909 -0.6617  3.1328
 6471TIP3   OH219376   3.401   1.158   5.312  0.0244  0.0566 -0.5388
 6471TIP3    H119377   3.434   1.247   5.318  0.6184 -0.2170  0.6973
 6471TIP3    H219378   3.395   1.140   5.218  1.4505  0.8404 -0.8076
 6472TIP3   OH219379   4.405   5.973   2.025 -0.1953  0.8772 -0.1478
 6472TIP3    H119380   4.471   6.042   2.025  0.7288  0.0203  0.5824
 6472TIP3    H219381   4.366   5.977   1.937 -0.6468  2.7491  0.1035
 6473TIP3   OH219382   3.175   6.695   3.425 -0.1700  0.6708 -0.1988
 6473TIP3    H119383   3.268   6.709   3.443  0.3406 -1.4086 -0.9939
 6473TIP3    H219384   3.157   6.749   3.348  1.3719 -1.6322 -2.3135
 6474TIP3   OH219385   3.333   1.886   4.268  0.3315 -0.5659 -0.3920
 6474TIP3    H119386   3.254   1.833   4.264  0.4738 -0.9496  1.3265
 6474TIP3    H219387   3.327   1.943   4.191 -1.1618 -1.1805 -0.7712
 6475TIP3   OH219388   2.742   5.922   2.676 -0.4499  0.5065 -0.1588
 6475TIP3    H119389   2.825   5.877   2.694 -0.7285 -0.0988 -0.3694
 6475TIP3    H219390   2.721   5.967   2.758 -0.8766 -0.8900  0.5314
 6476TIP3   OH219391   5.501   5.902   4.447 -0.0129 -0.2689 -0.7428
 6476TIP3    H119392   5.468   5.831   4.502 -2.3643  0.1760 -1.4448
 6476TIP3    H219393   5.484   5.872   4.357 -0.0502  0.7259 -1.0798
 6477TIP3   OH219394   1.741   4.790   1.990 -0.3299  0.2555  0.2887
 6477TIP3    H119395   1.718   4.752   1.905 -0.3904 -0.4083  0.5975
 6477TIP3    H219396   1.833   4.768   2.003 -0.8871 -1.6805  1.4229
 6478TIP3   OH219397   6.582   3.311   0.444  0.4340 -0.6138 -0.2810
 6478TIP3    H119398   6.509   3.318   0.506  0.7592  0.3832  0.0038
 6478TIP3    H219399   6.592   3.217   0.430  0.3177 -0.8638  1.1503
 6479TIP3   OH219400   1.648   3.035   3.201  0.3747 -0.5703  0.0612
 6479TIP3    H119401   1.635   3.029   3.106  1.6293 -2.6614 -0.0680
 6479TIP3    H219402   1.560   3.028   3.238  0.0078 -1.8594 -0.9448
 6480TIP3   OH219403   0.787   1.241   1.446 -0.3480  0.0423  0.1428
 6480TIP3    H119404   0.872   1.278   1.422 -0.5921 -0.4209 -1.5690
 6480TIP3    H219405   0.793   1.225   1.540  2.0383 -1.4810 -0.1959
 6481TIP3   OH219406   4.247   2.633   4.672 -0.1101 -0.2970 -0.2972
 6481TIP3    H119407   4.298   2.619   4.592 -1.2840 -2.1625 -0.7699
 6481TIP3    H219408   4.179   2.566   4.670 -2.2187  1.6710  0.6403
 6482TIP3   OH219409   3.448   6.442   0.536 -0.8533 -0.1279 -0.5388
 6482TIP3    H119410   3.520   6.440   0.600 -0.8784 -2.3452 -0.4785
 6482TIP3    H219411   3.369   6.442   0.589 -0.9689  2.4661 -0.6048
 6483TIP3   OH219412   6.686   4.615   4.878  0.1543 -0.1062 -0.3534
 6483TIP3    H119413   6.703   4.703   4.845 -0.3562  0.2391  0.2726
 6483TIP3    H219414   6.593   4.615   4.901  0.3260 -0.5507  0.4054
 6484TIP3   OH219415   6.058   6.289   5.011  0.0113  0.6598 -0.1747
 6484TIP3    H119416   6.003   6.365   5.029 -0.8083  0.1020 -0.2580
 6484TIP3    H219417   6.119   6.319   4.943 -0.4653  1.1735 -0.3854
 6485TIP3   OH219418   0.345   4.718   0.667  0.3232 -0.8160 -0.0056
 6485TIP3    H119419   0.299   4.680   0.592  1.5302 -0.0352 -1.1901
 6485TIP3    H219420   0.396   4.646   0.703 -0.0559 -1.1323 -0.0942
 6486TIP3   OH219421   1.653   0.508   4.623  0.9393 -0.2428  0.0515
 6486TIP3    H119422   1.587   0.445   4.592 -0.0857  0.8727 -0.1176
 6486TIP3    H219423   1.653   0.498   4.718  0.5151 -0.2628  0.0533
 6487TIP3   OH219424   1.470   5.821   4.591  0.7016 -0.0677  0.1310
 6487TIP3    H119425   1.475   5.901   4.538 -1.9406 -0.7244 -1.2930
 6487TIP3    H219426   1.383   5.825   4.631  1.2224 -1.3947  1.4539
 6488TIP3   OH219427   4.719   6.392   0.767  0.3238 -0.0882 -0.2729
 6488TIP3    H119428   4.752   6.480   0.786  0.9548 -0.4396  0.2986
 6488TIP3    H219429   4.665   6.403   0.689 -0.1933  0.9375  0.2124
 6489TIP3   OH219430   3.899   4.105   3.658 -0.2906  0.4376 -0.2795
 6489TIP3    H119431   3.872   4.074   3.572 -0.4905 -0.9078  0.2419
 6489TIP3    H219432   3.994   4.096   3.658 -0.4391 -1.6471  0.3639
 6490TIP3   OH219433   5.229   4.568   1.252  0.3837 -0.2978 -0.2081
 6490TIP3    H119434   5.151   4.614   1.222 -0.6906 -0.6769  1.8128
 6490TIP3    H219435   5.286   4.636   1.286 -0.1102 -0.2107  0.4657
 6491TIP3   OH219436   2.158   5.647   3.837  0.3100  0.1113 -0.3029
 6491TIP3    H119437   2.079   5.644   3.890  0.0515 -0.2127 -0.6992
 6491TIP3    H219438   2.212   5.715   3.877 -0.4567  0.8069 -0.4291
 6492TIP3   OH219439   2.934   1.327   1.725  0.4280 -0.2169  0.2105
 6492TIP3    H119440   2.860   1.353   1.670  0.6533 -0.9724 -0.4653
 6492TIP3    H219441   3.010   1.331   1.668  1.0906  1.4264  1.1302
 6493TIP3   OH219442   2.450   4.476   1.734 -0.2808  0.1076 -0.2119
 6493TIP3    H119443   2.400   4.545   1.778  1.0557  0.2721  1.1233
 6493TIP3    H219444   2.541   4.503   1.742  0.2333 -1.5154 -0.1667
 6494TIP3   OH219445   4.458   2.109   1.389  0.5047  0.1523 -0.2422
 6494TIP3    H119446   4.425   2.166   1.320 -0.6170  1.5724  1.3758
 6494TIP3    H219447   4.391   2.040   1.398  0.1755  0.5083  0.0575
 6495TIP3   OH219448   1.842   6.574   1.409 -0.2836  0.1675 -0.3623
 6495TIP3    H119449   1.768   6.526   1.448  0.1517  1.2775  1.9987
 6495TIP3    H219450   1.907   6.506   1.391 -1.2236 -0.6147 -0.9872
 6496TIP3   OH219451   1.987   3.433   2.618 -0.5396  0.2411 -0.5996
 6496TIP3    H119452   1.939   3.506   2.658 -1.5098 -0.0034 -1.2681
 6496TIP3    H219453   1.923   3.391   2.560 -0.3074 -1.7635  0.5150
 6497TIP3   OH219454   0.823   0.293   3.372 -0.1725  0.8290  0.1871
 6497TIP3    H119455   0.791   0.347   3.299  0.0850  0.1546 -0.4375
 6497TIP3    H219456   0.852   0.211   3.331  0.0954  0.4834  1.0344
 6498TIP3   OH219457   3.810   4.299   5.712 -0.0610 -0.1404  0.6133
 6498TIP3    H119458   3.729   4.305   5.762 -1.4445 -0.7618 -1.4348
 6498TIP3    H219459   3.827   4.389   5.683 -0.5691 -0.1627  0.2388
 6499TIP3   OH219460   2.239   4.780   3.787 -0.5088  0.0127 -0.2405
 6499TIP3    H119461   2.249   4.693   3.747  4.3395  1.0437 -1.9610
 6499TIP3    H219462   2.253   4.765   3.881  1.2368 -1.0920 -0.6217
 6500TIP3   OH219463   3.948   0.036   0.784 -0.1898 -0.4625 -0.3040
 6500TIP3    H119464   3.932   0.081   0.866  4.3016  0.9104  0.0963
 6500TIP3    H219465   3.996  -0.043   0.809  1.1372 -0.0860 -1.5121
 6501TIP3   OH219466   2.709   4.615   2.462  0.3632  0.4698 -0.3889
 6501TIP3    H119467   2.769   4.602   2.388 -1.0398  0.4446 -1.5733
 6501TIP3    H219468   2.744   4.691   2.508 -0.0806  2.1095 -2.5863
 6502TIP3   OH219469   5.528   4.244   2.431 -0.1637 -0.9113  0.6255
 6502TIP3    H119470   5.476   4.207   2.360 -0.7122 -1.1270  1.1321
 6502TIP3    H219471   5.589   4.174   2.455  1.3577 -0.1896 -0.9018
 6503TIP3   OH219472   4.731   4.514   4.694  0.0807 -0.2023 -0.6104
 6503TIP3    H119473   4.737   4.568   4.772  1.9588 -0.7349 -0.3451
 6503TIP3    H219474   4.707   4.575   4.624  0.7349  0.7116 -0.0581
 6504TIP3   OH219475   3.552   1.845   2.191  0.4240 -0.0788 -0.0656
 6504TIP3    H119476   3.461   1.872   2.192 -0.2858 -2.3272  1.1160
 6504TIP3    H219477   3.599   1.915   2.237 -1.1223 -0.1473  1.7203
 6505TIP3   OH219478   3.864   1.611   4.413  0.5658 -0.1446  0.1545
 6505TIP3    H119479   3.769   1.609   4.421  0.5835 -2.9740  0.7324
 6505TIP3    H219480   3.887   1.703   4.421 -2.0233  0.4963  1.2404
 6506TIP3   OH219481   5.859   3.650   3.146  0.4293  0.5052 -0.0263
 6506TIP3    H119482   5.866   3.740   3.178 -0.1656  0.0876  1.3747
 6506TIP3    H219483   5.797   3.609   3.206  2.1789 -1.3799  0.5646
 6507TIP3   OH219484   1.859   5.811   1.222 -0.1823 -0.0749 -0.5770
 6507TIP3    H119485   1.783   5.838   1.171 -0.7037  2.3725  1.2887
 6507TIP3    H219486   1.934   5.833   1.166 -0.7435  2.1126 -0.5638
 6508TIP3   OH219487   0.066   5.559   1.564  0.1908 -0.3855 -0.5241
 6508TIP3    H119488  -0.016   5.510   1.568  0.6612 -1.3526 -1.7795
 6508TIP3    H219489   0.085   5.565   1.471  1.0599  0.6741 -0.2929
 6509TIP3   OH219490   0.369   0.564   2.472  0.2319 -0.2341 -0.4288
 6509TIP3    H119491   0.456   0.597   2.495  0.6146 -1.8887  0.6781
 6509TIP3    H219492   0.325   0.553   2.556 -1.0893  0.6334 -0.9831
 6510TIP3   OH219493   3.847   4.607   4.148  0.7803  0.7774 -0.1899
 6510TIP3    H119494   3.926   4.619   4.201  0.9154 -0.3910 -0.1004
 6510TIP3    H219495   3.880   4.572   4.065  0.2335 -1.8551  0.6127
 6511TIP3   OH219496   2.928   1.636   0.516  0.3852 -0.8380  0.2515
 6511TIP3    H119497   2.876   1.636   0.436 -1.0414 -0.8910  1.1515
 6511TIP3    H219498   3.005   1.688   0.494 -0.7442  0.5143 -0.6815
 6512TIP3   OH219499   6.823   6.769   1.174 -0.7956 -0.1334 -0.3016
 6512TIP3    H119500   6.781   6.683   1.173 -0.7613 -0.1532 -0.0310
 6512TIP3    H219501   6.902   6.757   1.227 -0.3610 -0.1362 -0.9325
 6513TIP3   OH219502   6.724   6.521   1.186  0.4431 -0.2469 -0.4222
 6513TIP3    H119503   6.726   6.427   1.167  1.6991 -0.3417  0.0556
 6513TIP3    H219504   6.687   6.527   1.273 -2.3679 -0.0440 -1.5284
 6514TIP3   OH219505   1.783   3.879   1.730  0.4929  0.1515  0.2333
 6514TIP3    H119506   1.742   3.793   1.743 -1.5959  1.0566 -0.0442
 6514TIP3    H219507   1.711   3.942   1.739  0.7615  1.5815 -4.8214
 6515TIP3   OH219508   5.199   4.512   2.117  0.4276  0.1122 -0.1720
 6515TIP3    H119509   5.128   4.503   2.054  1.0716 -0.2978 -0.8591
 6515TIP3    H219510   5.166   4.471   2.197 -0.2447  0.2665 -0.3653
 6516TIP3   OH219511   6.538   3.097   3.183  0.2809  0.4424 -0.1898
 6516TIP3    H119512   6.455   3.112   3.137 -0.0905  1.6143  0.7892
 6516TIP3    H219513   6.511   3.073   3.272  0.9976  0.6731  0.0909
 6517TIP3   OH219514   4.390   2.051   0.227  0.4818  0.9888 -0.4446
 6517TIP3    H119515   4.458   2.014   0.170  0.7468  0.6249  0.0980
 6517TIP3    H219516   4.395   1.999   0.307 -0.7345  0.6762 -0.5564
 6518TIP3   OH219517   3.148   2.903   2.719  0.4238  0.5037 -0.0830
 6518TIP3    H119518   3.157   2.995   2.695  1.2058  0.1861 -1.0415
 6518TIP3    H219519   3.054   2.885   2.711  0.2424  1.2371  0.2505
 6519TIP3   OH219520   5.163   2.915   0.539  0.2985 -0.1555  0.2033
 6519TIP3    H119521   5.146   2.933   0.631  0.5989  0.7268  0.1023
 6519TIP3    H219522   5.164   2.820   0.532  3.4181 -0.3775  1.7492
 6520TIP3   OH219523   4.506   0.259   1.632  0.3294  0.0641  0.0549
 6520TIP3    H119524   4.556   0.228   1.708  1.0207 -2.4875 -1.3235
 6520TIP3    H219525   4.571   0.267   1.563 -0.8967 -2.3131 -1.5024
 6521TIP3   OH219526   6.693   2.620   3.610 -0.0203  0.1166  0.0297
 6521TIP3    H119527   6.758   2.559   3.575 -1.9044 -1.5731 -0.7352
 6521TIP3    H219528   6.742   2.700   3.628  2.1341 -0.8793 -1.0703
 6522TIP3   OH219529   3.591   6.232   0.095  0.0266  0.4974 -0.4802
 6522TIP3    H119530   3.607   6.275   0.179 -0.0417  0.8386 -0.6411
 6522TIP3    H219531   3.545   6.152   0.118  0.0156  0.5827 -0.1910
 6523TIP3   OH219532   5.369   4.254   0.824 -0.4039  0.0130 -0.2311
 6523TIP3    H119533   5.462   4.247   0.801 -0.8660  1.1412 -2.7669
 6523TIP3    H219534   5.367   4.312   0.900  0.9243  0.5868 -0.6167
 6524TIP3   OH219535   6.847   4.382   3.442  0.4204 -0.5678 -0.3115
 6524TIP3    H119536   6.912   4.323   3.481 -0.9364 -2.2351 -0.4479
 6524TIP3    H219537   6.762   4.347   3.471 -0.5063  0.1154 -2.0545
 6525TIP3   OH219538   2.990   0.226   3.634  0.0523 -0.5024 -0.2545
 6525TIP3    H119539   3.063   0.288   3.641  0.1746 -0.6858  0.1349
 6525TIP3    H219540   2.931   0.251   3.706 -1.5179  1.2509 -2.0318
 6526TIP3   OH219541   5.038   5.302   1.754  0.6531 -0.8048  0.0615
 6526TIP3    H119542   5.013   5.298   1.662 -0.0807  2.5295  0.0055
 6526TIP3    H219543   4.959   5.333   1.799  1.0347 -2.2026  1.8487
 6527TIP3   OH219544   6.247   2.869   4.188 -0.5475  0.7077 -0.4062
 6527TIP3    H119545   6.339   2.892   4.202 -0.6677  0.6389  0.5841
 6527TIP3    H219546   6.209   2.868   4.276 -1.0160 -1.2828 -0.5697
 6528TIP3   OH219547   0.048   5.941   2.706  0.2577 -0.3107  0.0653
 6528TIP3    H119548   0.140   5.941   2.679  0.0466  0.2093 -0.6999
 6528TIP3    H219549   0.001   5.972   2.629 -1.0821 -4.7100 -1.1694
 6529TIP3   OH219550   4.177   0.866   3.604 -0.0147  0.4794 -0.2094
 6529TIP3    H119551   4.207   0.933   3.666 -0.0145  0.4945 -0.2258
 6529TIP3    H219552   4.185   0.783   3.652 -0.0349  0.4934 -0.1821
 6530TIP3   OH219553   3.722   5.829   0.022  0.0945 -0.1875  0.4906
 6530TIP3    H119554   3.814   5.854   0.031 -0.0037  0.1864  0.4658
 6530TIP3    H219555   3.679   5.869   0.098  0.1915 -1.5691  1.3117
 6531TIP3   OH219556   2.260   4.616   2.108 -0.5695  0.4092  0.2051
 6531TIP3    H119557   2.348   4.615   2.147 -0.2769  0.2396 -0.4397
 6531TIP3    H219558   2.275   4.594   2.016 -1.2838  0.4600  0.0736
 6532TIP3   OH219559   3.044   2.348   3.967  0.1250  0.0949 -0.3578
 6532TIP3    H119560   3.056   2.408   4.041 -1.1614  0.3435 -0.3310
 6532TIP3    H219561   3.038   2.406   3.891  2.3659 -0.2033 -0.8165
 6533TIP3   OH219562   2.296   2.667   4.046  0.1666  0.3492  0.0126
 6533TIP3    H119563   2.287   2.581   4.004  0.2816  0.9206 -1.2442
 6533TIP3    H219564   2.367   2.656   4.108  0.9650 -0.1843 -0.9598
 6534TIP3   OH219565   6.841   1.073   2.323  0.2028 -0.1550 -0.0376
 6534TIP3    H119566   6.884   1.002   2.274  0.8151  0.1937 -0.0055
 6534TIP3    H219567   6.781   1.027   2.382 -0.7318 -0.5818 -1.2640
 6535TIP3   OH219568   7.078   5.052   2.220  0.1157  0.2249 -0.3168
 6535TIP3    H119569   7.163   5.084   2.190  0.2855  0.7350  0.6910
 6535TIP3    H219570   7.090   4.957   2.227  0.3880  0.2156 -0.8326
 6536TIP3   OH219571   5.465   6.359   5.833  0.0362  0.0138 -0.5278
 6536TIP3    H119572   5.475   6.377   5.927  0.4174  0.2819 -0.6188
 6536TIP3    H219573   5.430   6.270   5.830  0.3130 -0.1095 -0.1402
 6537TIP3   OH219574   5.577   6.358   1.280 -0.0283 -0.1640 -0.0416
 6537TIP3    H119575   5.548   6.286   1.337 -1.2984  0.4864  0.1756
 6537TIP3    H219576   5.497   6.387   1.236  0.4868  1.0398 -0.2223
 6538TIP3   OH219577   3.445   5.677   5.295  0.1375 -0.0506  0.5567
 6538TIP3    H119578   3.390   5.670   5.373  2.4913 -0.7614  2.2980
 6538TIP3    H219579   3.502   5.753   5.312  3.2689 -2.3842  1.4603
 6539TIP3   OH219580   6.855   2.399   5.453  0.3306  0.4081 -0.1277
 6539TIP3    H119581   6.799   2.458   5.401 -0.3907 -0.0231  0.1380
 6539TIP3    H219582   6.798   2.370   5.525  0.7831 -0.3461 -0.0688
 6540TIP3   OH219583   1.662   5.240   2.354 -0.0549 -0.7184 -0.2575
 6540TIP3    H119584   1.684   5.303   2.423  0.8276 -0.9752 -0.3043
 6540TIP3    H219585   1.675   5.155   2.395 -0.7226 -0.8842 -0.3687
 6541TIP3   OH219586   5.411   4.217   1.162 -0.0915  0.3850 -0.5013
 6541TIP3    H119587   5.424   4.213   1.257 -0.4204  0.7575 -0.4408
 6541TIP3    H219588   5.338   4.156   1.146 -0.2783  0.5986 -0.4686
 6542TIP3   OH219589   4.546   4.636   4.269 -0.1621 -0.4526 -0.0208
 6542TIP3    H119590   4.501   4.567   4.318 -0.6473  1.5792  2.6419
 6542TIP3    H219591   4.519   4.623   4.179 -3.6195 -1.2413  0.9945
 6543TIP3   OH219592   2.079   1.243   0.026 -0.3504  0.4085  0.2438
 6543TIP3    H119593   2.136   1.208  -0.043 -0.3680  0.6897  0.0845
 6543TIP3    H219594   2.137   1.297   0.080 -0.2373 -0.1899  0.7296
 6544TIP3   OH219595   4.881   5.873   5.088  0.2790 -0.2436  0.2019
 6544TIP3    H119596   4.892   5.780   5.108 -0.8340 -0.6142 -0.7939
 6544TIP3    H219597   4.787   5.889   5.097  0.4185  0.7235  0.0807
 6545TIP3   OH219598   2.276   5.884   3.244 -0.5090 -0.0852  0.6458
 6545TIP3    H119599   2.243   5.816   3.303  0.9902 -0.8475  0.6430
 6545TIP3    H219600   2.332   5.938   3.299  0.1975 -0.2727  0.1220
 6546TIP3   OH219601   5.621   5.407   2.070  0.3284 -0.3635  0.6014
 6546TIP3    H119602   5.589   5.492   2.038 -0.4232 -0.7195  0.3935
 6546TIP3    H219603   5.690   5.383   2.008 -1.1161 -1.0495 -0.8220
 6547TIP3   OH219604   2.288   3.253   5.419 -0.2207  0.0572 -0.4891
 6547TIP3    H119605   2.326   3.173   5.457  0.1576  0.0047 -0.9738
 6547TIP3    H219606   2.227   3.284   5.486 -0.1233 -0.4550 -0.1549
 6548TIP3   OH219607   1.007   1.041   1.364 -0.5526  0.1881  0.4600
 6548TIP3    H119608   0.920   1.003   1.353 -0.9992  1.2720  0.2114
 6548TIP3    H219609   1.005   1.122   1.313  0.1258  0.9633  1.6293
 6549TIP3   OH219610   6.637   5.653   2.939 -0.2538  0.0398 -0.2708
 6549TIP3    H119611   6.544   5.633   2.956 -0.7904  1.3050 -1.5597
 6549TIP3    H219612   6.651   5.737   2.983  0.3853 -0.2911  0.1720
 6550TIP3   OH219613   0.416   6.094   5.242 -0.1446  0.2961 -0.4052
 6550TIP3    H119614   0.334   6.048   5.262  0.8154 -1.3815 -0.2206
 6550TIP3    H219615   0.460   6.102   5.327  1.0935 -1.2534 -0.8566
 6551TIP3   OH219616   5.776   2.198   4.583  0.3589 -0.1971  0.6279
 6551TIP3    H119617   5.869   2.184   4.563  0.0123 -0.8649 -0.6149
 6551TIP3    H219618   5.760   2.289   4.561  0.6558 -0.1594  0.5598
 6552TIP3   OH219619   2.466   5.885   5.011 -0.2025 -0.1112 -0.1233
 6552TIP3    H119620   2.456   5.793   5.032  0.5457  0.1761  1.6385
 6552TIP3    H219621   2.488   5.927   5.094  0.4602  1.5095 -1.0608
 6553TIP3   OH219622   4.533   1.247   3.399  0.0815 -0.3611  0.0623
 6553TIP3    H119623   4.495   1.168   3.360  0.6450 -0.9479  0.6632
 6553TIP3    H219624   4.583   1.287   3.328 -2.8666  1.3338 -1.2454
 6554TIP3   OH219625   0.869   1.217   4.567 -0.3244  0.0559  0.3236
 6554TIP3    H119626   0.816   1.296   4.559  0.1872  0.4577  0.7992
 6554TIP3    H219627   0.870   1.198   4.661  1.4260  0.8123  0.4956
 6555TIP3   OH219628   0.584   2.531   4.802 -0.8436  0.0039  0.8818
 6555TIP3    H119629   0.657   2.584   4.833 -0.3191  0.1981 -0.6366
 6555TIP3    H219630   0.537   2.586   4.740  0.1021 -1.4486 -1.2514
 6556TIP3   OH219631   6.956   1.430   2.008  0.2980 -0.1740 -0.3192
 6556TIP3    H119632   6.911   1.450   2.090  0.4497  0.8401 -0.4625
 6556TIP3    H219633   7.047   1.415   2.034  0.9616  2.7889 -0.5071
 6557TIP3   OH219634   1.742   5.274   0.441  0.0227  0.4581  0.2414
 6557TIP3    H119635   1.684   5.198   0.445  0.6916 -0.0343  0.7113
 6557TIP3    H219636   1.770   5.289   0.531  2.5727 -0.8601 -0.2370
 6558TIP3   OH219637   3.587   4.172   3.642 -0.4430  0.4159  1.1320
 6558TIP3    H119638   3.607   4.255   3.599 -0.7797 -0.7146 -1.3732
 6558TIP3    H219639   3.666   4.120   3.632 -0.5964  0.0487  1.7692
 6559TIP3   OH219640   4.488   0.230   5.016  0.4040 -0.0702  0.2362
 6559TIP3    H119641   4.410   0.241   4.962  1.5626  1.2190 -1.2593
 6559TIP3    H219642   4.459   0.255   5.104 -0.7348  0.9912 -0.4000
 6560TIP3   OH219643   4.672   3.957   3.109 -0.1532  0.1731 -0.0755
 6560TIP3    H119644   4.693   3.964   3.202 -1.2038 -2.1543  0.4129
 6560TIP3    H219645   4.747   3.910   3.072 -0.7197 -0.9012  0.0832
 6561TIP3   OH219646   2.032   1.449   5.559 -0.2078 -0.0208 -0.1205
 6561TIP3    H119647   2.079   1.378   5.517 -0.0766  0.7373 -1.3097
 6561TIP3    H219648   1.998   1.411   5.640 -1.0833 -1.7488 -1.2314
 6562TIP3   OH219649   2.326   6.740   2.481 -0.1466  0.2420  0.3624
 6562TIP3    H119650   2.333   6.673   2.412 -1.7060  1.2337 -0.8350
 6562TIP3    H219651   2.256   6.709   2.537 -0.5020  0.5982  0.1180
 6563TIP3   OH219652   0.667   3.661   2.790  0.4876 -0.3763  0.6679
 6563TIP3    H119653   0.650   3.755   2.794  1.2744 -0.2276  0.6799
 6563TIP3    H219654   0.706   3.641   2.875 -0.6209 -0.9234  1.0780
 6564TIP3   OH219655   4.084   6.419   4.054  0.4301  0.4036 -0.0852
 6564TIP3    H119656   4.012   6.414   4.117  0.5696 -1.1594 -0.0153
 6564TIP3    H219657   4.162   6.430   4.108  0.3602  1.1443 -0.1167
 6565TIP3   OH219658   2.408   0.137   5.824 -0.1376  0.1507 -0.1272
 6565TIP3    H119659   2.384   0.182   5.904  1.1417  0.4596  0.1154
 6565TIP3    H219660   2.468   0.197   5.780 -1.4413  0.3361 -1.7418
 6566TIP3   OH219661   2.902   3.905   0.425 -0.0124 -0.3204 -0.2575
 6566TIP3    H119662   2.989   3.883   0.393  1.1452 -1.2022  3.0869
 6566TIP3    H219663   2.851   3.825   0.413  0.8153 -1.1122  1.2878
 6567TIP3   OH219664   2.998   5.214   0.536 -0.5777 -0.0307 -0.1736
 6567TIP3    H119665   3.072   5.162   0.566 -1.5964 -1.1104  0.5884
 6567TIP3    H219666   3.036   5.296   0.505  1.2552 -1.7599 -2.8819
 6568TIP3   OH219667   6.949   1.422   3.565  0.2121  0.2187  0.5630
 6568TIP3    H119668   7.008   1.361   3.521  1.0721  0.4927  1.3170
 6568TIP3    H219669   6.991   1.507   3.558  0.4689  0.2423  2.0513
 6569TIP3   OH219670   5.149   3.341   3.059 -0.2573  0.1610 -0.1320
 6569TIP3    H119671   5.109   3.367   3.141 -0.6528 -0.1605 -0.2202
 6569TIP3    H219672   5.239   3.319   3.082 -0.6171 -0.8336  0.3834
 6570TIP3   OH219673   6.736   4.684   5.610 -0.2368  0.0583 -0.0192
 6570TIP3    H119674   6.713   4.752   5.547 -0.7298  0.3544  0.4778
 6570TIP3    H219675   6.700   4.714   5.693 -2.1313 -1.6902 -0.1472
 6571TIP3   OH219676   0.524   5.633   3.481 -0.2453 -0.0261 -0.7861
 6571TIP3    H119677   0.442   5.676   3.457  0.9683  2.6101 -0.6687
 6571TIP3    H219678   0.587   5.664   3.416  0.9159 -0.9393 -0.1325
 6572TIP3   OH219679   1.497   6.158   5.022  0.6443  0.1652  0.1416
 6572TIP3    H119680   1.503   6.078   5.073 -1.3322  0.6024  1.1706
 6572TIP3    H219681   1.497   6.129   4.931  2.2753 -0.7707  0.3966
 6573TIP3   OH219682   2.440   2.378   3.732 -0.6655  0.2024  0.5836
 6573TIP3    H119683   2.364   2.362   3.787 -0.2158 -1.0054  0.8825
 6573TIP3    H219684   2.510   2.327   3.772  0.4541  1.6839  0.6113
 6574TIP3   OH219685   3.659   5.638   5.878  0.1677 -0.6332 -0.2676
 6574TIP3    H119686   3.641   5.682   5.795 -0.9183  0.4880  0.5280
 6574TIP3    H219687   3.620   5.694   5.944 -0.6510 -2.4390  0.8673
 6575TIP3   OH219688   4.634   4.544   2.060 -0.5163 -0.0108  0.3172
 6575TIP3    H119689   4.672   4.490   1.990 -0.4510  1.4024 -0.7874
 6575TIP3    H219690   4.659   4.500   2.141  3.9008  0.9849 -0.2556
 6576TIP3   OH219691   6.931   4.589   3.689 -0.1786 -0.6796 -0.0668
 6576TIP3    H119692   6.865   4.562   3.625 -1.6268 -1.1388  1.5316
 6576TIP3    H219693   6.966   4.507   3.723 -1.7540 -0.5952  1.9742
 6577TIP3   OH219694   3.452   2.303   1.852  0.1974  0.3645  0.0191
 6577TIP3    H119695   3.524   2.333   1.796  0.2356 -1.0466 -0.7248
 6577TIP3    H219696   3.481   2.219   1.886 -1.2972 -0.5077 -0.7486
 6578TIP3   OH219697   6.243   6.329   1.973 -0.2395  0.1940 -0.3313
 6578TIP3    H119698   6.282   6.242   1.985 -0.3867  0.3791  1.9151
 6578TIP3    H219699   6.312   6.380   1.929 -0.3415 -1.1437 -2.1459
 6579TIP3   OH219700   2.293   1.125   3.324 -1.0564  0.7023 -0.3018
 6579TIP3    H119701   2.232   1.102   3.393  0.0546 -0.1182  0.4465
 6579TIP3    H219702   2.379   1.122   3.366 -0.5591  3.0537 -1.0011
 6580TIP3   OH219703   1.221   5.968   5.594 -0.0529  0.0823  0.2664
 6580TIP3    H119704   1.199   6.021   5.671  1.8329  1.2520  0.0710
 6580TIP3    H219705   1.314   5.985   5.580  0.2840 -2.2156 -0.6787
 6581TIP3   OH219706   0.868   2.326   2.250 -0.4217 -0.6640  0.1185
 6581TIP3    H119707   0.950   2.278   2.235  1.1778  1.0395  2.5752
 6581TIP3    H219708   0.809   2.260   2.288  0.0322 -1.7387 -0.9593
 6582TIP3   OH219709   3.646   3.196   0.743 -0.4905  0.2456  0.1573
 6582TIP3    H119710   3.695   3.233   0.670  0.8273 -0.5203  0.6329
 6582TIP3    H219711   3.657   3.101   0.735  1.1648  0.1875  2.3140
 6583TIP3   OH219712   1.078   2.969   1.018  0.5282 -0.1930 -0.5208
 6583TIP3    H119713   1.159   2.918   1.011  1.2887  0.8039  0.6693
 6583TIP3    H219714   1.054   2.988   0.927  1.9618  0.0149 -0.8776
 6584TIP3   OH219715   2.110   6.209   0.083  0.3223  0.3045 -0.4114
 6584TIP3    H119716   2.076   6.121   0.065  2.6111 -0.7666  0.0632
 6584TIP3    H219717   2.072   6.264   0.014 -2.4460 -0.6676  0.2123
 6585TIP3   OH219718   6.224   6.248   4.606 -0.0585 -0.4409  0.2153
 6585TIP3    H119719   6.251   6.319   4.547 -0.6155 -0.6159 -0.2581
 6585TIP3    H219720   6.285   6.254   4.679 -0.1447  0.5862  0.2280
 6586TIP3   OH219721   3.662   0.680   4.864 -0.0519  0.2367 -0.1134
 6586TIP3    H119722   3.616   0.654   4.944 -0.1072  1.1810  0.1791
 6586TIP3    H219723   3.736   0.620   4.858 -0.7640 -0.6661 -0.0538
 6587TIP3   OH219724   1.431   5.361   3.218  0.5535  0.6780  0.3223
 6587TIP3    H119725   1.483   5.283   3.201  0.8027  1.1553 -1.2817
 6587TIP3    H219726   1.490   5.420   3.265  0.6722  0.2979  0.6580
 6588TIP3   OH219727   0.295   1.001   0.353 -0.0839 -0.1328 -0.2962
 6588TIP3    H119728   0.343   0.943   0.295 -0.3936  2.2790 -3.1906
 6588TIP3    H219729   0.203   0.989   0.330 -0.1633  1.3156 -0.8843
 6589TIP3   OH219730   2.061   1.533   1.416  0.2653  0.3078  0.6904
 6589TIP3    H119731   2.053   1.558   1.508 -1.7770 -0.0432  0.6387
 6589TIP3    H219732   2.027   1.444   1.412  0.5793  0.2263 -0.3714
 6590TIP3   OH219733   4.855   5.565   0.392  0.3243  0.2631  0.0576
 6590TIP3    H119734   4.834   5.509   0.466  0.6864  0.1044  0.0421
 6590TIP3    H219735   4.951   5.562   0.386  0.3389  0.7753 -0.0235
 6591TIP3   OH219736   3.110   2.903   1.805 -0.1228  0.0526  0.0198
 6591TIP3    H119737   3.204   2.894   1.824 -0.0031  0.4551 -0.3755
 6591TIP3    H219738   3.089   2.992   1.833 -0.6917 -0.4653  1.3518
 6592TIP3   OH219739   1.151   4.373   5.465 -0.1657  1.0328 -0.1566
 6592TIP3    H119740   1.168   4.279   5.471  0.0728  0.8946 -2.2535
 6592TIP3    H219741   1.055   4.379   5.459 -0.1808  0.9221 -0.0294
 6593TIP3   OH219742   5.386   2.060   0.990  0.1624 -0.4028 -0.1064
 6593TIP3    H119743   5.456   2.123   1.007 -0.6264  0.9860 -1.7110
 6593TIP3    H219744   5.410   2.018   0.908 -1.1553  0.5647 -1.0329
 6594TIP3   OH219745   0.564   4.653   1.960  0.2251  0.7602 -0.2012
 6594TIP3    H119746   0.620   4.665   2.037  1.5109  0.3660 -1.0375
 6594TIP3    H219747   0.625   4.647   1.887 -0.9581  0.9511 -1.2446
 6595TIP3   OH219748   1.416   5.551   5.490  0.3667  0.6466  0.2193
 6595TIP3    H119749   1.382   5.461   5.489  2.1800 -0.1985  3.2598
 6595TIP3    H219750   1.362   5.596   5.555  0.3591  1.4180 -0.3071
 6596TIP3   OH219751   6.923   2.153   3.121  0.3919 -0.2194 -0.0609
 6596TIP3    H119752   6.844   2.193   3.083  1.3252  1.5650 -0.2296
 6596TIP3    H219753   6.937   2.201   3.203  0.2451 -1.8359  0.9575
 6597TIP3   OH219754   3.292   4.767   0.249 -0.3033  0.2914 -0.5189
 6597TIP3    H119755   3.375   4.779   0.295 -0.2520 -3.1718  0.5667
 6597TIP3    H219756   3.227   4.806   0.306  0.2238 -0.1460  0.4006
 6598TIP3   OH219757   4.855   5.741   5.413 -0.4932  0.1312  0.4702
 6598TIP3    H119758   4.937   5.744   5.463  0.1885  0.2771 -0.6254
 6598TIP3    H219759   4.843   5.830   5.381  0.4678 -0.4663 -1.7499
 6599TIP3   OH219760   1.830   1.285   2.660 -0.8300  0.1574  0.0996
 6599TIP3    H119761   1.798   1.375   2.664 -2.6821 -0.4653  0.4709
 6599TIP3    H219762   1.907   1.285   2.717 -0.6080  1.5553 -0.1475
 6600TIP3   OH219763   0.376   1.321   0.809  0.5027  0.0424  0.2101
 6600TIP3    H119764   0.433   1.315   0.733 -0.6128  1.6094 -0.7887
 6600TIP3    H219765   0.290   1.344   0.774 -0.6378 -1.5395  1.7309
 6601TIP3   OH219766   3.199   0.676   0.583  0.0299 -0.4725 -0.4462
 6601TIP3    H119767   3.142   0.656   0.508  0.5908 -0.5701 -0.8529
 6601TIP3    H219768   3.221   0.768   0.572 -2.2713  0.3684  1.2340
 6602TIP3   OH219769   0.743   0.037   1.939  0.6723 -0.2138 -0.2416
 6602TIP3    H119770   0.819   0.091   1.964  0.4810  1.1452 -2.3194
 6602TIP3    H219771   0.758  -0.047   1.982  2.2760  0.7068  1.1096
 6603TIP3   OH219772   7.115   4.992   4.914 -0.5208  0.0106  0.1353
 6603TIP3    H119773   7.207   4.976   4.892  0.0214  2.9650 -0.1308
 6603TIP3    H219774   7.085   4.909   4.950  1.0573 -2.3590 -3.4034
 6604TIP3   OH219775   1.462   6.652   1.643  0.1930  0.0932 -0.1219
 6604TIP3    H119776   1.553   6.621   1.647  0.5350  1.1146  0.8396
 6604TIP3    H219777   1.411   6.583   1.685  0.7007  0.0130  0.3850
 6605TIP3   OH219778   0.418   1.664   1.800  0.0630 -0.0464  0.8852
 6605TIP3    H119779   0.375   1.607   1.736 -0.9355  0.0058  1.4859
 6605TIP3    H219780   0.476   1.607   1.849  1.4214  0.0459 -0.5361
 6606TIP3   OH219781   3.601   6.208   2.775  0.1926  0.0007 -0.0574
 6606TIP3    H119782   3.558   6.161   2.704  0.4231 -0.7240  0.2736
 6606TIP3    H219783   3.694   6.189   2.765  0.0642 -1.8472  1.6407
 6607TIP3   OH219784   2.492   4.639   5.531  0.0002 -0.1042  0.0386
 6607TIP3    H119785   2.547   4.660   5.455 -1.6329  0.3383 -1.0849
 6607TIP3    H219786   2.538   4.678   5.605  0.2145  2.0414 -1.1422
 6608TIP3   OH219787   0.069   2.797   2.285  0.0393 -0.6103  0.1710
 6608TIP3    H119788   0.059   2.882   2.327 -2.1069 -0.2910 -0.8400
 6608TIP3    H219789   0.101   2.817   2.197  0.3006 -0.9125  0.1956
 6609TIP3   OH219790   0.347   4.265   4.577 -0.0469  0.2782 -0.2460
 6609TIP3    H119791   0.398   4.191   4.611 -1.1247  0.5644  2.2414
 6609TIP3    H219792   0.256   4.237   4.586 -0.4308  0.5976 -2.6276
 6610TIP3   OH219793   3.224   4.178   5.612  0.3772  0.3318 -0.0083
 6610TIP3    H119794   3.222   4.104   5.673  2.7559  1.5932  1.7809
 6610TIP3    H219795   3.277   4.148   5.538 -0.1207 -0.2881 -0.1197
 6611TIP3   OH219796   3.648   1.273   4.264  0.2637  0.1132  0.2732
 6611TIP3    H119797   3.636   1.199   4.323 -0.0867 -1.1402 -1.3061
 6611TIP3    H219798   3.567   1.278   4.214  1.7395 -1.0347 -2.4403
 6612TIP3   OH219799   5.433   5.120   1.018 -0.6846 -0.2261 -0.3168
 6612TIP3    H119800   5.444   5.027   1.001  1.1415 -0.4488  1.6371
 6612TIP3    H219801   5.373   5.124   1.093  0.1621  0.0851  0.3590
 6613TIP3   OH219802   1.102   2.827   4.827  0.0628 -0.1713  0.0553
 6613TIP3    H119803   1.093   2.736   4.799  0.2901  0.0077 -0.6211
 6613TIP3    H219804   1.182   2.829   4.878  1.2359  0.0544 -1.7157
 6614TIP3   OH219805   2.095   5.210   0.792 -0.1447 -0.0842 -0.0819
 6614TIP3    H119806   2.037   5.183   0.721 -0.7028 -3.8173  1.5722
 6614TIP3    H219807   2.038   5.215   0.869  1.2247 -1.0485  1.0329
 6615TIP3   OH219808   6.871   2.912   0.421 -0.2120  0.1406 -0.3129
 6615TIP3    H119809   6.846   2.842   0.482  0.6365 -0.4573 -0.6403
 6615TIP3    H219810   6.789   2.960   0.405 -0.5787 -0.0904  0.7746
 6616TIP3   OH219811   3.398   3.478   3.154 -0.8952 -0.6630  0.3510
 6616TIP3    H119812   3.429   3.427   3.228 -0.5364  0.2610  0.8573
 6616TIP3    H219813   3.311   3.508   3.180 -0.1572  0.9617  1.0951
 6617TIP3   OH219814   1.328   2.297   4.019  0.5165  0.6089 -0.1521
 6617TIP3    H119815   1.403   2.252   4.056 -0.1721 -0.0725  0.4454
 6617TIP3    H219816   1.362   2.383   3.994  1.3290  0.5675  0.7389
 6618TIP3   OH219817   7.171   0.519   5.614 -0.0814 -0.3244  0.0364
 6618TIP3    H119818   7.263   0.533   5.591  0.2742 -1.6389  0.5607
 6618TIP3    H219819   7.145   0.599   5.661  0.7102  0.1651 -0.3468
 6619TIP3   OH219820   4.391   1.444   4.683  0.1455 -0.3438  0.3505
 6619TIP3    H119821   4.484   1.463   4.689 -0.2462  1.7275  0.6243
 6619TIP3    H219822   4.362   1.489   4.604 -0.6807 -0.7390  0.4184
 6620TIP3   OH219823   4.476   1.633   4.470 -0.1631  0.2913  0.4963
 6620TIP3    H119824   4.518   1.707   4.426  0.8570 -0.3895  0.2657
 6620TIP3    H219825   4.505   1.640   4.561 -0.0452  0.1692  0.4689
 6621TIP3   OH219826   5.244   5.741   2.957  0.4728  0.5733 -0.2062
 6621TIP3    H119827   5.244   5.774   2.867 -2.2407 -0.1674 -0.5733
 6621TIP3    H219828   5.201   5.810   3.008  2.1293  1.0530  0.5978
 6622TIP3   OH219829   1.482   0.948   1.036 -0.3345  0.1886 -0.1938
 6622TIP3    H119830   1.414   0.882   1.024  0.1061 -0.3942  0.3863
 6622TIP3    H219831   1.462   0.987   1.121  0.4967 -0.5451  0.3553
 6623TIP3   OH219832   5.991   1.752   2.680 -0.4689  0.0930 -0.2129
 6623TIP3    H119833   6.071   1.703   2.663  0.0381  0.8119  0.0545
 6623TIP3    H219834   5.927   1.685   2.704  0.9824 -0.2901  3.1364
 6624TIP3   OH219835   2.018   1.330   3.734  0.0904 -0.1211  0.1630
 6624TIP3    H119836   2.026   1.411   3.784 -1.5142  0.4336 -0.4213
 6624TIP3    H219837   2.056   1.351   3.648  1.5887 -0.6566  0.6643
 6625TIP3   OH219838   1.296   6.699   5.447 -0.1543  0.6999 -0.0238
 6625TIP3    H119839   1.384   6.690   5.409 -0.0438  0.6464  0.2453
 6625TIP3    H219840   1.239   6.714   5.372  0.1367  1.0749 -0.1713
 6626TIP3   OH219841   6.232   3.949   3.637 -0.1967 -0.2111  0.2547
 6626TIP3    H119842   6.195   3.861   3.645  0.4939 -0.6089 -0.7158
 6626TIP3    H219843   6.298   3.954   3.707  1.0397 -1.1576 -0.7797
 6627TIP3   OH219844   6.751   6.402   4.198 -0.0475 -0.3603 -0.4305
 6627TIP3    H119845   6.686   6.469   4.221 -1.0541 -1.3425 -0.3612
 6627TIP3    H219846   6.831   6.432   4.240 -0.5581  0.6384 -0.1251
 6628TIP3   OH219847   1.181   6.079   3.475  0.5991 -0.2380 -0.3985
 6628TIP3    H119848   1.131   6.048   3.399  1.7437  0.2488 -1.3884
 6628TIP3    H219849   1.262   6.115   3.437  1.2130 -0.0176  1.0627
 6629TIP3   OH219850   0.482   2.820   4.291  0.6764  0.3631  0.7338
 6629TIP3    H119851   0.513   2.838   4.379  1.3024 -0.3103  0.6629
 6629TIP3    H219852   0.511   2.730   4.273  0.1556  0.3239  0.0191
 6630TIP3   OH219853   2.973   2.604   3.793  0.0872  0.1028  0.1149
 6630TIP3    H119854   3.022   2.621   3.712 -0.0919 -0.2843 -0.0756
 6630TIP3    H219855   3.030   2.637   3.863  0.7466 -0.5787 -0.0855
 6631TIP3   OH219856   5.729   2.017   0.222 -0.2621  0.2840  0.2393
 6631TIP3    H119857   5.785   1.966   0.280 -0.5113 -0.5549 -0.2295
 6631TIP3    H219858   5.664   2.056   0.280  1.4579  2.2392  0.9494
 6632TIP3   OH219859   5.576   3.411   5.005  0.2589 -0.0072  0.1051
 6632TIP3    H119860   5.481   3.411   5.014  0.3557  0.6491  1.4124
 6632TIP3    H219861   5.607   3.460   5.081  1.6114  0.3915 -0.6724
 6633TIP3   OH219862   4.255   0.873   5.056  0.5489  0.5705  0.1932
 6633TIP3    H119863   4.270   0.793   5.105 -0.6228  0.1019 -0.1815
 6633TIP3    H219864   4.243   0.940   5.123  2.3689  0.6261  0.5047
 6634TIP3   OH219865   5.551   4.254   5.453 -0.3382  0.2668  0.1901
 6634TIP3    H119866   5.460   4.264   5.481 -0.9001  1.5436 -1.8485
 6634TIP3    H219867   5.574   4.164   5.474 -1.6456  0.2968  1.8821
 6635TIP3   OH219868   2.002   0.806   0.092 -0.1670 -0.6494 -0.1991
 6635TIP3    H119869   1.983   0.821  -0.000  0.3354  0.3414 -0.1486
 6635TIP3    H219870   2.097   0.807   0.098 -0.1795 -1.1968  0.2630
 6636TIP3   OH219871   0.459   6.526   2.721 -0.2167 -0.1764  0.1647
 6636TIP3    H119872   0.514   6.605   2.721 -0.0716 -0.2453 -1.3160
 6636TIP3    H219873   0.517   6.457   2.688 -1.6309  0.1289 -3.3403
 6637TIP3   OH219874   5.159   1.561   1.027  0.1457 -0.3563 -0.1821
 6637TIP3    H119875   5.135   1.470   1.009  0.8970 -1.2253  2.6775
 6637TIP3    H219876   5.221   1.583   0.958  1.5025 -2.7409  0.1648
 6638TIP3   OH219877   6.734   6.580   2.289  0.2053  0.1508 -0.0337
 6638TIP3    H119878   6.660   6.518   2.287  0.9295 -0.8521  1.8320
 6638TIP3    H219879   6.692   6.666   2.293 -0.8257 -0.2035 -2.0071
 6639TIP3   OH219880   3.059   4.264   5.375 -0.0278  0.0636 -0.1063
 6639TIP3    H119881   3.111   4.264   5.456 -0.4356 -0.4440  0.1601
 6639TIP3    H219882   3.061   4.355   5.346 -1.6612  0.7226  1.6151
 6640TIP3   OH219883   0.235   6.588   0.177 -0.6869 -0.6374 -0.3342
 6640TIP3    H119884   0.307   6.552   0.229 -2.2384 -2.1292  0.9244
 6640TIP3    H219885   0.186   6.643   0.238 -1.6065 -1.0649 -0.6635
 6641TIP3   OH219886   0.365   0.323   3.965  0.0233  0.2668 -0.2165
 6641TIP3    H119887   0.436   0.288   3.913  0.7535  0.0798  0.8836
 6641TIP3    H219888   0.288   0.272   3.939  0.2171  0.6124 -1.5605
 6642TIP3   OH219889   1.790   0.192   2.544  0.0717  0.4570 -0.7462
 6642TIP3    H119890   1.745   0.276   2.559  0.1694  0.4255 -0.2350
 6642TIP3    H219891   1.832   0.173   2.628 -1.8956 -1.2743 -0.0633
 6643TIP3   OH219892   5.337   0.410   0.095 -0.7698  0.0874  0.2778
 6643TIP3    H119893   5.416   0.447   0.056 -1.2167  0.5620 -0.1957
 6643TIP3    H219894   5.315   0.470   0.166  0.3643 -1.0807  1.6879
 6644TIP3   OH219895   7.005   0.667   4.004  0.0305 -0.2401  0.1905
 6644TIP3    H119896   7.015   0.592   3.947  0.1104  0.6286 -0.9770
 6644TIP3    H219897   6.913   0.667   4.030  0.1391 -1.0014  0.6064
 6645TIP3   OH219898   1.625   0.615   5.442 -0.4685  0.4342  0.0347
 6645TIP3    H119899   1.537   0.617   5.403 -0.9079 -0.4462  0.9217
 6645TIP3    H219900   1.610   0.599   5.535  0.6260  0.5485  0.2466
 6646TIP3   OH219901   2.986   0.356   1.819 -0.7491 -0.1587  0.3872
 6646TIP3    H119902   2.996   0.450   1.836  0.1805  0.1267 -1.5276
 6646TIP3    H219903   2.893   0.340   1.832 -0.7888  0.8353  1.5775
 6647TIP3   OH219904   3.599   3.999   0.111  0.4541  0.5328  0.6220
 6647TIP3    H119905   3.667   4.052   0.070 -0.2672  0.9452 -0.0603
 6647TIP3    H219906   3.524   4.058   0.120  0.5753  0.4615  2.5564
 6648TIP3   OH219907   5.875   4.224   0.787  0.1754  0.2178 -0.3627
 6648TIP3    H119908   5.799   4.166   0.798  0.0005 -0.0427 -2.4583
 6648TIP3    H219909   5.885   4.266   0.872 -0.4906 -1.9122  0.8574
 6649TIP3   OH219910   1.196   6.213   5.043 -0.1285  0.7480  0.4186
 6649TIP3    H119911   1.286   6.180   5.040 -0.5315 -0.3802  0.1117
 6649TIP3    H219912   1.142   6.134   5.049 -1.1282  1.3830  0.0266
 6650TIP3   OH219913   0.200   3.211   2.277  0.1974  0.3230 -0.2344
 6650TIP3    H119914   0.266   3.222   2.345 -0.1137  0.4649  0.0498
 6650TIP3    H219915   0.126   3.264   2.308 -0.3105 -0.4023 -0.1982
 6651TIP3   OH219916   1.597   4.248   4.487  0.2101 -0.3649  0.6663
 6651TIP3    H119917   1.507   4.252   4.519  0.2960 -2.3298  1.2758
 6651TIP3    H219918   1.647   4.212   4.560  1.5759  1.0133  0.4444
 6652TIP3   OH219919   1.519   3.427   4.256 -0.3257 -0.5312 -0.7327
 6652TIP3    H119920   1.591   3.378   4.217  1.3114  0.4655  0.9102
 6652TIP3    H219921   1.497   3.493   4.190  1.2687  0.0745 -0.7025
 6653TIP3   OH219922   4.334   5.502   4.116 -0.0683 -0.0872  0.4667
 6653TIP3    H119923   4.345   5.527   4.207  0.0002 -0.6844  0.6264
 6653TIP3    H219924   4.382   5.420   4.108  1.6478  0.9536 -0.5933
 6654TIP3   OH219925   1.082   1.407   4.498 -0.3478 -0.3143  0.0295
 6654TIP3    H119926   1.049   1.494   4.476 -1.7548 -0.4226  1.5130
 6654TIP3    H219927   1.025   1.346   4.452  1.3509 -0.5167 -1.9633
 6655TIP3   OH219928   0.583   5.794   1.765  0.0363  0.0244 -0.1190
 6655TIP3    H119929   0.657   5.753   1.721  0.4699  2.1067 -1.5110
 6655TIP3    H219930   0.542   5.848   1.697  1.5042  4.5059  2.1161
 6656TIP3   OH219931   3.938   0.859   3.488 -0.3898 -0.5123  0.7467
 6656TIP3    H119932   4.027   0.850   3.521 -0.1346 -1.2109 -0.0907
 6656TIP3    H219933   3.927   0.953   3.474 -0.3044 -0.2592  2.1956
 6657TIP3   OH219934   4.202   1.750   4.709 -0.1152  0.5106 -0.0197
 6657TIP3    H119935   4.123   1.702   4.683  0.1250  0.2299 -0.2383
 6657TIP3    H219936   4.192   1.836   4.668 -0.3549  0.5095  0.0355
 6658TIP3   OH219937   5.225   6.002   3.450  0.1934  0.6290 -0.2378
 6658TIP3    H119938   5.281   6.073   3.418 -0.4164  0.5339 -1.5573
 6658TIP3    H219939   5.196   5.956   3.371 -0.1074 -0.5731  0.5476
 6659TIP3   OH219940   4.664   4.979   2.049  0.3512 -0.4379  0.9155
 6659TIP3    H119941   4.590   4.983   1.989  0.0669  0.7732  1.3135
 6659TIP3    H219942   4.708   5.063   2.039  0.1387 -0.0917  2.5717
 6660TIP3   OH219943   1.749   3.870   2.752 -0.0929 -0.4018 -0.3463
 6660TIP3    H119944   1.714   3.946   2.799 -2.0910 -1.3072 -0.2475
 6660TIP3    H219945   1.716   3.795   2.801  1.1603 -1.3642 -0.9100
 6661TIP3   OH219946   5.586   2.556   1.002  0.1146 -0.3220 -0.1962
 6661TIP3    H119947   5.632   2.640   1.005 -0.7866  0.1633  0.3920
 6661TIP3    H219948   5.647   2.496   0.959  1.5214  0.1577  1.0641
 6662TIP3   OH219949   5.000   5.110   3.764 -0.4956 -0.1248 -0.1654
 6662TIP3    H119950   4.983   5.195   3.803 -0.2146  0.8731 -2.1351
 6662TIP3    H219951   4.916   5.065   3.766 -0.4086 -0.3212  1.9436
 6663TIP3   OH219952   6.575   5.935   2.142 -0.5278 -0.0314 -0.4874
 6663TIP3    H119953   6.505   5.870   2.156 -0.5493 -0.1569 -1.1344
 6663TIP3    H219954   6.618   5.942   2.227 -0.3674 -1.0876 -0.4661
 6664TIP3   OH219955   6.536   5.710   5.366 -0.3129  0.0659  0.1115
 6664TIP3    H119956   6.584   5.792   5.380 -0.6290  0.1660  0.6244
 6664TIP3    H219957   6.471   5.708   5.436 -0.1942 -0.7091  0.2071
 6665TIP3   OH219958   2.768   3.591   3.201 -0.2414  0.4043 -0.1697
 6665TIP3    H119959   2.801   3.505   3.226 -1.5293  0.3684  1.6592
 6665TIP3    H219960   2.737   3.581   3.112 -1.0570 -1.2604  0.2648
 6666TIP3   OH219961   6.643   6.639   4.245 -0.6305  0.7439 -0.1656
 6666TIP3    H119962   6.620   6.727   4.216 -2.2585  0.4301  0.0798
 6666TIP3    H219963   6.663   6.649   4.338  0.8666  1.1079 -0.4957
 6667TIP3   OH219964   0.107   2.192   2.426  0.1890  0.3061 -0.0270
 6667TIP3    H119965   0.023   2.147   2.438  1.1342 -1.3447  0.7206
 6667TIP3    H219966   0.146   2.194   2.514  1.1463  0.6281 -0.4482
 6668TIP3   OH219967   4.932   2.810   1.123 -0.2466  0.0291  0.0493
 6668TIP3    H119968   4.975   2.841   1.202 -0.7446 -0.5274  0.5463
 6668TIP3    H219969   4.956   2.718   1.117  0.5706  0.2803 -0.9806
 6669TIP3   OH219970   4.380   4.376   0.324  0.1058  0.2451 -0.4331
 6669TIP3    H119971   4.432   4.297   0.309 -0.2417  0.1309 -1.0823
 6669TIP3    H219972   4.394   4.430   0.246  0.3013  0.8127 -0.0180
 6670TIP3   OH219973   6.173   5.877   5.884 -0.1175  0.3804  0.3619
 6670TIP3    H119974   6.100   5.822   5.857 -0.6221  1.5158 -0.6387
 6670TIP3    H219975   6.184   5.939   5.812  0.5962  1.4395  1.3646
 6671TIP3   OH219976   2.093   2.849   1.855 -0.0445  0.5019  0.5530
 6671TIP3    H119977   2.140   2.831   1.773 -0.5398 -2.4162  0.7844
 6671TIP3    H219978   2.033   2.920   1.833 -0.9875 -0.9217 -2.0586
 6672TIP3   OH219979   5.616   5.210   3.249  0.3804  0.0441 -0.1646
 6672TIP3    H119980   5.610   5.126   3.203  1.6868 -0.6251  0.8224
 6672TIP3    H219981   5.665   5.266   3.189  0.6090 -0.3043 -0.3085
 6673TIP3   OH219982   3.223   1.023   3.086  0.2943  0.3443 -0.7180
 6673TIP3    H119983   3.212   1.018   2.991 -0.8612  3.2736 -0.8356
 6673TIP3    H219984   3.300   1.077   3.100 -0.3348  1.0953 -0.0205
 6674TIP3   OH219985   0.753   3.545   3.534 -0.2047 -0.2162  0.0989
 6674TIP3    H119986   0.694   3.471   3.519  0.3903 -0.9400  1.0927
 6674TIP3    H219987   0.715   3.618   3.485 -1.4602 -0.8731  0.0576
 6675TIP3   OH219988   6.429   4.258   2.617  0.0936 -0.4432 -0.7156
 6675TIP3    H119989   6.481   4.179   2.604  0.0404 -1.0330  2.1840
 6675TIP3    H219990   6.409   4.260   2.710 -0.0850  2.9013 -0.6876
 6676TIP3   OH219991   0.722   2.497   5.715 -0.2533 -0.0179  0.2025
 6676TIP3    H119992   0.699   2.505   5.622 -0.4174 -2.0896  0.0081
 6676TIP3    H219993   0.640   2.514   5.761  0.1768  2.6513  0.1207
 6677TIP3   OH219994   6.167   4.469   3.696 -0.2431 -0.7753 -0.3679
 6677TIP3    H119995   6.194   4.530   3.628 -0.6094  0.0711  0.2219
 6677TIP3    H219996   6.146   4.388   3.650 -0.9930 -0.0598 -1.3313
 6678TIP3   OH219997   5.048   3.686   5.408  1.0255  0.2651 -0.2038
 6678TIP3    H119998   5.123   3.661   5.355  0.5868 -3.1352  0.5517
 6678TIP3    H219999   5.081   3.686   5.498  0.2573 -1.1161  0.1186
 6679TIP3   OH220000   6.871   0.566   1.263  0.0408  0.0344 -0.0505
 6679TIP3    H120001   6.896   0.475   1.279 -0.0020 -0.0123 -0.2483
 6679TIP3    H220002   6.777   0.569   1.280 -0.0353 -0.0517 -0.4461
 6680TIP3   OH220003   5.262   5.406   0.665  0.0556 -1.0316 -0.2824
 6680TIP3    H120004   5.351   5.380   0.640 -0.0944 -1.2287 -0.6239
 6680TIP3    H220005   5.252   5.374   0.755 -0.1790 -2.3239 -0.7486
 6681TIP3   OH220006   2.321   1.513   0.911 -0.6123 -0.0458 -1.2314
 6681TIP3    H120007   2.398   1.568   0.927  0.3609 -1.6178 -0.1643
 6681TIP3    H220008   2.263   1.530   0.984  0.8335 -2.2162  0.5752
 6682TIP3   OH220009   1.247   0.123   2.920 -0.1697 -0.4364  0.0831
 6682TIP3    H120010   1.208   0.152   3.002 -0.0610 -1.4061  0.4986
 6682TIP3    H220011   1.193   0.048   2.894 -2.1267  1.6130 -2.3423
 6683TIP3   OH220012   6.184   0.573   4.248 -0.1451 -0.2519 -0.6275
 6683TIP3    H120013   6.096   0.539   4.232 -0.0061 -0.6932 -0.4744
 6683TIP3    H220014   6.231   0.556   4.166 -0.5167  1.0253 -1.1218
 6684TIP3   OH220015   5.934   5.053   0.285 -0.3016  0.7939 -0.0173
 6684TIP3    H120016   5.912   5.028   0.375 -2.3694  1.5488 -0.2609
 6684TIP3    H220017   5.985   5.134   0.295  0.4556  0.2687  0.4941
 6685TIP3   OH220018   2.106   2.514   2.674 -0.1516 -0.1925  0.1741
 6685TIP3    H120019   2.114   2.427   2.635  0.1306  1.2677 -3.3571
 6685TIP3    H220020   2.196   2.541   2.691 -0.2401 -0.5052  1.2736
 6686TIP3   OH220021   1.861   6.556   4.660  0.5432  0.0499 -0.1549
 6686TIP3    H120022   1.920   6.485   4.686  2.3002  1.3206 -0.4833
 6686TIP3    H220023   1.869   6.560   4.564  0.6862  0.8738 -0.1135
 6687TIP3   OH220024   0.461   4.035   4.648  0.1853 -0.6075  0.1332
 6687TIP3    H120025   0.487   3.961   4.703 -1.7368 -0.6266  1.0775
 6687TIP3    H220026   0.421   3.995   4.571  2.7620 -0.5785 -1.3393
 6688TIP3   OH220027   3.974   4.340   3.395 -0.1950 -0.7883  0.4670
 6688TIP3    H120028   4.069   4.355   3.392 -0.1956 -0.7135 -3.1239
 6688TIP3    H220029   3.936   4.420   3.361 -1.3149 -1.9385 -1.1437
 6689TIP3   OH220030   2.522   3.440   5.001 -0.4914 -0.3601 -0.3149
 6689TIP3    H120031   2.561   3.485   5.076 -1.8062  1.2796 -0.5566
 6689TIP3    H220032   2.495   3.511   4.942 -0.3584 -1.5854 -1.9068
 6690TIP3   OH220033   6.677   4.445   2.880  0.0979 -0.3156  0.6749
 6690TIP3    H120034   6.679   4.391   2.958 -1.4431  0.6340  1.4271
 6690TIP3    H220035   6.612   4.513   2.899 -1.6582 -1.0558 -2.0829
 6691TIP3   OH220036   2.429   4.429   0.712 -0.0196 -0.3296  0.1226
 6691TIP3    H120037   2.395   4.478   0.637 -0.1432  0.5515  0.7396
 6691TIP3    H220038   2.513   4.394   0.681  0.8821  1.6380  0.1433
 6692TIP3   OH220039   1.255   0.817   3.520 -0.1894  0.0085  0.1033
 6692TIP3    H120040   1.276   0.826   3.613  0.8347 -1.8877  0.0937
 6692TIP3    H220041   1.168   0.778   3.519  1.3001 -3.6427  0.4262
 6693TIP3   OH220042   6.416   1.085   2.434 -0.4287 -0.0223  0.2753
 6693TIP3    H120043   6.488   1.130   2.390 -0.2708 -0.6766 -0.1599
 6693TIP3    H220044   6.397   1.010   2.377 -0.6530 -0.5212  0.9918
 6694TIP3   OH220045   4.156   4.438   4.825 -0.3081 -0.1061 -0.1788
 6694TIP3    H120046   4.135   4.345   4.822 -0.8937  0.0348 -0.5713
 6694TIP3    H220047   4.109   4.470   4.903 -0.6859 -0.0059 -0.4426
 6695TIP3   OH220048   7.183   0.053   1.944 -0.0564 -0.8384 -0.2056
 6695TIP3    H120049   7.155   0.002   1.868 -2.1194 -0.2474  0.0936
 6695TIP3    H220050   7.103   0.095   1.976  1.4049  2.2507 -0.1854
 6696TIP3   OH220051   0.201   1.133   2.680 -0.0667 -0.3402 -0.2456
 6696TIP3    H120052   0.283   1.100   2.644 -0.6247 -1.4426 -0.5464
 6696TIP3    H220053   0.228   1.198   2.746  1.0496 -0.9115 -0.1202
 6697TIP3   OH220054   3.159   4.919   4.166  0.3074  0.2400 -0.4746
 6697TIP3    H120055   3.131   4.964   4.246  1.3384 -0.1139  0.1041
 6697TIP3    H220056   3.152   4.826   4.188  1.5652  0.1409 -0.4265
 6698TIP3   OH220057   4.271   4.717   5.193 -0.2012 -0.1045 -0.7062
 6698TIP3    H120058   4.336   4.775   5.153  0.6702 -0.1193  0.6465
 6698TIP3    H220059   4.307   4.629   5.182  0.4983 -0.0373  0.8806
 6699TIP3   OH220060   2.951   0.252   1.170  0.1588  0.9256 -0.1093
 6699TIP3    H120061   2.942   0.186   1.100 -3.5292  0.4695  0.6294
 6699TIP3    H220062   2.991   0.327   1.126 -1.7195  0.5457 -2.7064
 6700TIP3   OH220063   1.594   5.970   5.667 -0.8102 -0.0329 -0.4141
 6700TIP3    H120064   1.547   5.974   5.750 -0.5537  0.7257 -0.2925
 6700TIP3    H220065   1.615   5.878   5.654  0.4838  0.0102  1.1112
 6701TIP3   OH220066   2.228   0.626   0.298 -0.4053 -0.0486  0.4352
 6701TIP3    H120067   2.254   0.669   0.217  0.6383  0.1067  0.8425
 6701TIP3    H220068   2.288   0.552   0.307 -1.0019 -0.5168  0.6848
 6702TIP3   OH220069   5.885   1.805   4.339  0.0707  0.4816 -0.0527
 6702TIP3    H120070   5.961   1.836   4.290  0.9482  1.2712  1.7333
 6702TIP3    H220071   5.890   1.850   4.423  1.6614 -4.5424  2.9932
 6703TIP3   OH220072   2.628   5.452   2.381 -0.0961 -0.2462  0.6692
 6703TIP3    H120073   2.637   5.528   2.440 -2.8388  0.7801 -0.1125
 6703TIP3    H220074   2.537   5.426   2.389  0.0501 -1.5902 -1.3619
 6704TIP3   OH220075   1.207   2.002   1.732  0.5801  0.1058 -0.3017
 6704TIP3    H120076   1.249   2.040   1.809 -1.0235 -0.6860  1.0402
 6704TIP3    H220077   1.213   1.907   1.746  0.6224 -0.0683 -1.3825
 6705TIP3   OH220078   3.394   4.238   0.109  0.3138 -0.2434 -0.1062
 6705TIP3    H120079   3.420   4.328   0.091 -0.6025 -0.1577 -1.1826
 6705TIP3    H220080   3.402   4.228   0.203  0.6744  0.8820 -0.0050
 6706TIP3   OH220081   2.755   3.505   1.392 -0.5330  0.1266 -0.2210
 6706TIP3    H120082   2.824   3.440   1.374 -0.9731 -0.1884 -0.7949
 6706TIP3    H220083   2.727   3.485   1.482 -0.8197 -0.6366 -0.4701
 6707TIP3   OH220084   4.611   5.698   2.777 -0.1598 -0.0758 -0.3461
 6707TIP3    H120085   4.629   5.606   2.763  1.5857  0.5092 -2.5203
 6707TIP3    H220086   4.602   5.735   2.689 -0.8807  1.8399  0.4558
 6708TIP3   OH220087   0.766   3.324   0.392  0.6879 -0.2552  0.2514
 6708TIP3    H120088   0.841   3.353   0.339  0.2074 -0.3436 -0.4936
 6708TIP3    H220089   0.805   3.267   0.458  1.3345  0.0400  0.1401
 6709TIP3   OH220090   3.290   5.488   2.796  0.3709  0.5238  0.1117
 6709TIP3    H120091   3.291   5.517   2.888 -1.9697 -2.5068  1.2681
 6709TIP3    H220092   3.355   5.417   2.793 -0.1703  0.0379 -0.3263
 6710TIP3   OH220093   1.362   1.924   5.263  0.0506 -0.2561  0.1054
 6710TIP3    H120094   1.280   1.962   5.292  0.1624  0.3745 -0.3906
 6710TIP3    H220095   1.386   1.974   5.186  0.6677 -0.7389 -0.0252
 6711TIP3   OH220096   0.752   3.851   1.064  0.9806 -0.0290  0.2976
 6711TIP3    H120097   0.688   3.791   1.025  0.1914  1.0325 -0.0900
 6711TIP3    H220098   0.793   3.800   1.134  0.3681 -1.0355 -0.0567
 6712TIP3   OH220099   0.163   5.224   5.253 -0.4996 -0.9551  0.0644
 6712TIP3    H120100   0.239   5.281   5.243 -0.7801 -0.5189  0.3590
 6712TIP3    H220101   0.161   5.171   5.173  0.1144 -0.9737  0.0609
 6713TIP3   OH220102   0.004   3.760   0.303  0.8468  0.0556 -0.1241
 6713TIP3    H120103   0.083   3.707   0.292  1.0129  0.3771 -0.4832
 6713TIP3    H220104   0.023   3.842   0.259  0.3559  0.1838 -0.1067
 6714TIP3   OH220105   5.381   2.287   2.300  0.0413 -0.1436 -0.0187
 6714TIP3    H120106   5.339   2.261   2.218 -0.8521  0.1255  0.3374
 6714TIP3    H220107   5.475   2.278   2.283 -0.0798  0.8753 -1.4080
 6715TIP3   OH220108   3.897   1.004   3.961 -0.0496 -0.1887 -0.3695
 6715TIP3    H120109   3.857   1.007   3.874  0.5905  1.0745 -0.6482
 6715TIP3    H220110   3.917   1.096   3.980  0.9046 -0.5919  0.6080
 6716TIP3   OH220111   3.193   3.503   5.094  0.5052 -0.4319 -0.5035
 6716TIP3    H120112   3.185   3.408   5.095  1.9614 -0.5719  0.7436
 6716TIP3    H220113   3.203   3.527   5.186  1.7983  0.7587 -0.9269
 6717TIP3   OH220114   5.134   5.685   4.095  0.2966 -0.5183  0.5028
 6717TIP3    H120115   5.153   5.678   4.002  0.4174 -1.6019  0.6027
 6717TIP3    H220116   5.048   5.728   4.098  0.5248 -0.0049 -0.0832
 6718TIP3   OH220117   7.071   5.014   1.883 -0.0999 -0.1348 -0.6085
 6718TIP3    H120118   6.987   4.972   1.900 -0.2229  0.0727 -0.6968
 6718TIP3    H220119   7.065   5.098   1.928  0.6662 -0.7686  0.7377
 6719TIP3   OH220120   5.031   3.298   2.460  0.0852  0.3833 -0.0559
 6719TIP3    H120121   5.091   3.227   2.484  0.2642 -0.1855 -2.0225
 6719TIP3    H220122   4.980   3.264   2.387 -1.1372  1.6440  0.1539
 6720TIP3   OH220123   3.919   0.505   2.700 -0.0638  0.3393 -0.4275
 6720TIP3    H120124   3.978   0.576   2.725 -0.3547  0.9141 -1.2956
 6720TIP3    H220125   3.905   0.518   2.606  0.0863 -1.0413 -0.6488
 6721TIP3   OH220126   2.807   1.807   2.872  0.1944 -0.1612  0.5495
 6721TIP3    H120127   2.800   1.750   2.948  0.6252  1.9284  2.2635
 6721TIP3    H220128   2.734   1.868   2.880  0.5656  0.4467 -0.3953
 6722TIP3   OH220129   3.426   3.733   4.073 -0.4707  0.0690  0.1337
 6722TIP3    H120130   3.474   3.815   4.085 -0.7058  0.1246  0.7024
 6722TIP3    H220131   3.488   3.675   4.029 -0.6081  0.8543 -1.1517
 6723TIP3   OH220132   3.192   3.954   1.122 -0.4451 -0.0197  0.3907
 6723TIP3    H120133   3.132   3.965   1.196 -0.4973 -1.1788  0.5434
 6723TIP3    H220134   3.212   3.860   1.121 -0.0888  0.0483 -0.7905
 6724TIP3   OH220135   1.460   1.380   2.144 -0.0348  0.1885  0.3375
 6724TIP3    H120136   1.535   1.342   2.189 -0.1651  1.4521  1.7424
 6724TIP3    H220137   1.390   1.316   2.156  0.5236 -0.5048 -0.0398
 6725TIP3   OH220138   2.195   4.921   5.298 -0.0319 -0.0969 -0.6643
 6725TIP3    H120139   2.212   5.013   5.319  0.3467 -0.2519 -0.2531
 6725TIP3    H220140   2.200   4.916   5.203  0.1105  0.2814 -0.6775
 6726TIP3   OH220141   2.089   3.067   4.591 -0.5281  0.5496  0.0435
 6726TIP3    H120142   2.113   3.133   4.526  0.1901  0.2639  0.0137
 6726TIP3    H220143   2.004   3.097   4.625 -0.6510  0.9876 -0.6307
 6727TIP3   OH220144   0.601   2.282   1.636 -0.0596 -0.1951 -0.0622
 6727TIP3    H120145   0.528   2.319   1.687 -0.7482 -0.5621 -0.7558
 6727TIP3    H220146   0.605   2.191   1.664 -0.8454 -0.5625 -1.0800
 6728TIP3   OH220147   5.578   6.363   3.860 -0.3349  0.2280 -0.0711
 6728TIP3    H120148   5.485   6.342   3.869 -0.1460 -0.1231  1.1774
 6728TIP3    H220149   5.621   6.320   3.934  0.7689  0.7343 -0.3837
 6729TIP3   OH220150   2.223   5.228   0.045 -0.8306  0.4129 -0.1439
 6729TIP3    H120151   2.265   5.244   0.129 -0.4122  1.5916 -0.5560
 6729TIP3    H220152   2.190   5.314   0.017 -2.3386 -0.2354 -0.4690
 6730TIP3   OH220153   0.612   5.936   2.763 -0.0962 -0.7480  0.1012
 6730TIP3    H120154   0.564   5.935   2.680 -0.0964 -0.3368  0.0938
 6730TIP3    H220155   0.662   6.017   2.761  0.8553 -1.3320 -0.0296
 6731TIP3   OH220156   2.578   1.488   4.538  0.0500 -0.5887  0.1702
 6731TIP3    H120157   2.616   1.465   4.623 -0.0180 -1.4001 -0.0145
 6731TIP3    H220158   2.651   1.526   4.489  0.1941 -0.5206  0.4330
 6732TIP3   OH220159   1.319   1.308   4.343 -0.2919  0.0927  0.3335
 6732TIP3    H120160   1.250   1.308   4.409 -1.2625 -1.1064 -0.6215
 6732TIP3    H220161   1.337   1.215   4.327  0.7569  0.3779 -0.2465
 6733TIP3   OH220162   1.711   5.790   3.375 -0.6161 -0.0337  0.1685
 6733TIP3    H120163   1.747   5.803   3.462  0.4555 -1.1108 -0.0950
 6733TIP3    H220164   1.780   5.819   3.315 -1.2707  0.5250 -0.3374
 6734TIP3   OH220165   4.669   4.493   5.763  0.5482 -0.9417 -0.5478
 6734TIP3    H120166   4.739   4.496   5.698  0.4641  1.1482 -0.6166
 6734TIP3    H220167   4.711   4.455   5.841  1.0080 -2.2137 -1.3908
 6735TIP3   OH220168   4.270   6.242   5.371 -0.9855  0.0666 -0.0049
 6735TIP3    H120169   4.338   6.176   5.380 -0.2823  0.9697  1.8575
 6735TIP3    H220170   4.301   6.300   5.301 -0.1566  0.0825  0.3645
 6736TIP3   OH220171   5.771   4.629   1.835 -0.0249  0.0980  0.5084
 6736TIP3    H120172   5.829   4.692   1.879 -2.4487  2.4525  0.5595
 6736TIP3    H220173   5.793   4.545   1.876  1.7160  1.2682  2.1801
 6737TIP3   OH220174   5.307   3.811   2.424  0.2172 -0.0873 -0.3676
 6737TIP3    H120175   5.232   3.857   2.387  0.6891  1.9936  1.1024
 6737TIP3    H220176   5.316   3.733   2.369 -1.7488  0.6295 -1.8408
 6738TIP3   OH220177   4.804   5.423   0.175 -0.2804  0.0618 -0.0472
 6738TIP3    H120178   4.831   5.460   0.259 -2.2006  0.1658  0.5777
 6738TIP3    H220179   4.795   5.499   0.117 -0.3847  0.1508  0.0841
 6739TIP3   OH220180   0.657   1.449   4.511 -0.3839  0.2167 -0.0843
 6739TIP3    H120181   0.658   1.417   4.421 -1.7575 -1.0225  0.2906
 6739TIP3    H220182   0.659   1.544   4.504  2.9549  0.1954 -1.2879
 6740TIP3   OH220183   6.244   0.720   1.938 -0.2308  0.2178 -0.1777
 6740TIP3    H120184   6.326   0.749   1.979  0.4510 -1.6184 -0.1301
 6740TIP3    H220185   6.266   0.712   1.845 -0.7328  0.9075 -0.3631
 6741TIP3   OH220186   1.708   3.805   4.401  0.2009  0.7659 -0.5238
 6741TIP3    H120187   1.629   3.831   4.354  0.5350  1.8716 -0.4997
 6741TIP3    H220188   1.685   3.722   4.442 -0.9375  1.0448 -0.5549
 6742TIP3   OH220189   6.901   0.525   5.565  0.1376  0.1116 -0.3911
 6742TIP3    H120190   6.861   0.462   5.506 -0.7754  1.0400 -0.8008
 6742TIP3    H220191   6.988   0.489   5.584  0.3933 -0.2980 -2.1807
 6743TIP3   OH220192   5.213   2.238   1.862 -0.0113  0.4615  0.0716
 6743TIP3    H120193   5.205   2.147   1.835 -1.0459  0.8052 -0.8557
 6743TIP3    H220194   5.276   2.276   1.800  0.7778  0.2892  0.7436
 6744TIP3   OH220195   7.114   5.903   1.946  0.1975 -0.3037 -0.9099
 6744TIP3    H120196   7.152   5.985   1.975  0.4449  0.2454 -2.6784
 6744TIP3    H220197   7.178   5.867   1.885  0.2460 -2.0042  0.0777
 6745TIP3   OH220198   6.050   4.987   0.701  0.4831  0.2892  0.1783
 6745TIP3    H120199   6.026   5.013   0.790  2.2913 -0.4930  0.9428
 6745TIP3    H220200   6.104   5.060   0.670 -1.7694  1.5109 -1.0965
 6746TIP3   OH220201   6.696   2.499   2.847 -0.0337  0.2281 -0.0452
 6746TIP3    H120202   6.695   2.534   2.758  1.4290 -0.7960 -0.4975
 6746TIP3    H220203   6.728   2.572   2.901 -0.4432  0.6959 -0.4206
 6747TIP3   OH220204   4.262   6.029   4.504 -1.0343 -0.3145  0.4926
 6747TIP3    H120205   4.309   5.973   4.566  2.6278  0.7497 -1.0497
 6747TIP3    H220206   4.229   5.969   4.438  0.5638 -0.9421  0.2184
 6748TIP3   OH220207   6.458   6.184   0.968 -0.6544 -0.3153 -0.4183
 6748TIP3    H120208   6.476   6.269   0.929  0.2108 -0.2880  0.0267
 6748TIP3    H220209   6.365   6.188   0.991 -0.4448  0.8330  0.3473
 6749TIP3   OH220210   1.125   4.805   3.161  0.0529 -0.3303 -0.2585
 6749TIP3    H120211   1.054   4.800   3.225  0.3858  1.1972  0.2669
 6749TIP3    H220212   1.204   4.811   3.213  0.6680 -2.4883 -0.8374
 6750TIP3   OH220213   1.626   0.668   1.715  0.4418 -0.4802 -0.3422
 6750TIP3    H120214   1.645   0.757   1.687 -1.2495  0.3255  0.8627
 6750TIP3    H220215   1.642   0.669   1.810 -1.3229 -0.9074 -0.0070
 6751TIP3   OH220216   6.827   6.327   2.531 -0.4563  0.1440 -0.3949
 6751TIP3    H120217   6.867   6.397   2.583 -1.4711 -0.5277  1.3873
 6751TIP3    H220218   6.763   6.373   2.475 -0.6230  0.7225  0.2532
 6752TIP3   OH220219   1.124   2.781   0.664 -0.2944 -0.1754 -0.0663
 6752TIP3    H120220   1.180   2.844   0.619 -1.7218  0.8260 -0.5213
 6752TIP3    H220221   1.183   2.712   0.693  1.1668  0.8721 -0.4605
 6753TIP3   OH220222   3.664   0.319   5.162 -0.2612 -0.2073  0.1341
 6753TIP3    H120223   3.655   0.414   5.170  4.5446  0.4163  1.5816
 6753TIP3    H220224   3.661   0.287   5.253  0.1662 -1.1048 -0.1493
 6754TIP3   OH220225   0.088   0.922   4.846 -0.2933 -0.2242 -0.0216
 6754TIP3    H120226   0.080   0.858   4.776 -1.0385  1.1430 -1.2517
 6754TIP3    H220227   0.000   0.960   4.854  0.8903  3.4823 -2.2054
 6755TIP3   OH220228   1.508   4.582   0.192 -0.4406 -0.3248  0.2521
 6755TIP3    H120229   1.533   4.674   0.191  0.5418 -0.5732 -0.9225
 6755TIP3    H220230   1.558   4.544   0.264 -1.4619  0.2039  1.2541
 6756TIP3   OH220231   3.318   2.162   1.203 -0.2077 -0.0722  0.2606
 6756TIP3    H120232   3.272   2.243   1.181  0.6109  0.4980  0.5906
 6756TIP3    H220233   3.324   2.115   1.120 -0.0667  0.5332 -0.0768
 6757TIP3   OH220234   6.578   4.741   0.300 -0.0865  0.1720 -0.0896
 6757TIP3    H120235   6.498   4.774   0.259  0.7199  0.0922 -1.8039
 6757TIP3    H220236   6.590   4.654   0.262  0.9495  0.2896 -0.0487
 6758TIP3   OH220237   2.017   4.937   1.337  0.1530 -0.1702 -0.0063
 6758TIP3    H120238   1.953   5.005   1.314 -0.2454 -0.7563 -0.6622
 6758TIP3    H220239   2.098   4.965   1.294  0.2916  0.4515  0.6325
 6759TIP3   OH220240   3.849   4.576   0.607 -0.7596  0.1583 -0.3072
 6759TIP3    H120241   3.802   4.583   0.524 -2.6608  0.1244  0.6873
 6759TIP3    H220242   3.846   4.483   0.629 -1.0920  0.2877  0.2233
 6760TIP3   OH220243   6.323   1.211   1.865  0.3078 -0.3797 -0.7193
 6760TIP3    H120244   6.263   1.260   1.808 -0.5762  0.8462  1.1592
 6760TIP3    H220245   6.406   1.259   1.859 -0.2194  0.6835  0.1871
 6761TIP3   OH220246   6.465   2.828   2.202  0.6714  0.7594 -0.1105
 6761TIP3    H120247   6.422   2.774   2.135  2.8977 -1.6968  0.2433
 6761TIP3    H220248   6.527   2.882   2.154  0.7428  0.5666 -0.2382
 6762TIP3   OH220249   5.616   3.271   0.765 -0.0607  0.2578 -0.0313
 6762TIP3    H120250   5.662   3.247   0.846 -1.0643  0.5646  0.6466
 6762TIP3    H220251   5.538   3.318   0.794  0.2651  1.6037 -1.2353
 6763TIP3   OH220252   2.154   2.288   4.472 -0.5401 -0.1981  0.6090
 6763TIP3    H120253   2.230   2.311   4.526 -0.2748 -1.8671  1.0082
 6763TIP3    H220254   2.117   2.211   4.514 -0.6258 -1.2596 -1.2684
 6764TIP3   OH220255   3.250   3.597   1.173 -0.1106 -0.5695  0.0398
 6764TIP3    H120256   3.263   3.585   1.079  0.7174  2.4626 -0.3736
 6764TIP3    H220257   3.157   3.615   1.183 -0.4404 -2.1393  0.0294
 6765TIP3   OH220258   2.022   1.000   2.930  0.0706 -0.1605  0.4904
 6765TIP3    H120259   2.088   0.954   2.981 -0.2483 -0.8113  0.3217
 6765TIP3    H220260   2.039   1.093   2.947  1.5499 -0.2755 -0.1963
 6766TIP3   OH220261   0.878   6.070   5.677 -0.1663 -0.2907 -0.4551
 6766TIP3    H120262   0.913   5.995   5.726 -1.7606 -0.1551  1.0010
 6766TIP3    H220263   0.784   6.066   5.692 -0.6647  0.1972 -3.0140
 6767TIP3   OH220264   2.121   0.528   3.738 -0.4408  0.1690 -0.3534
 6767TIP3    H120265   2.160   0.595   3.794  1.0613  0.1496 -1.3092
 6767TIP3    H220266   2.058   0.483   3.794  0.9236  0.2192  1.2954
 6768TIP3   OH220267   2.074   1.045   1.513  0.5322  0.0458  0.0386
 6768TIP3    H120268   2.063   0.956   1.480  0.0508  0.5159 -1.1346
 6768TIP3    H220269   2.000   1.058   1.572 -0.0304  0.0360 -0.6514
 6769TIP3   OH220270   0.983   3.891   2.375  0.2295  0.1964  0.5138
 6769TIP3    H120271   0.978   3.842   2.457  0.3149 -0.2772  0.2398
 6769TIP3    H220272   0.914   3.853   2.320  2.3165 -1.8368 -0.8761
 6770TIP3   OH220273   0.760   1.783   5.912  0.0824  0.1826  0.2062
 6770TIP3    H120274   0.790   1.694   5.899  2.4379  1.0339 -0.6436
 6770TIP3    H220275   0.773   1.825   5.827 -0.8182  1.4044  0.6366
 6771TIP3   OH220276   5.205   1.062   2.705  0.5286 -0.4622 -0.2131
 6771TIP3    H120277   5.230   0.978   2.742  0.2582 -0.1818  0.6197
 6771TIP3    H220278   5.161   1.040   2.623  0.0216 -1.1643  0.2367
 6772TIP3   OH220279   2.501   1.473   5.418  0.0616 -0.5996 -0.0841
 6772TIP3    H120280   2.442   1.545   5.402  0.6788 -0.0200  0.1901
 6772TIP3    H220281   2.465   1.428   5.495  0.7629  0.6357  1.0132
 6773TIP3   OH220282   6.426   2.517   3.616  0.3614  0.6266 -0.5691
 6773TIP3    H120283   6.509   2.557   3.590 -0.8893  3.2178 -0.9040
 6773TIP3    H220284   6.409   2.552   3.704 -1.4786  2.1709 -1.4594
 6774TIP3   OH220285   1.838   6.695   2.723 -0.0918 -0.1872  0.0475
 6774TIP3    H120286   1.808   6.703   2.813  1.2297 -0.1238  0.5064
 6774TIP3    H220287   1.758   6.683   2.672 -0.9141  0.4419  1.1436
 6775TIP3   OH220288   4.172   6.268   4.574  0.2695  0.3055 -0.6483
 6775TIP3    H120289   4.108   6.253   4.643  1.6141  0.6492  0.7427
 6775TIP3    H220290   4.204   6.181   4.551 -0.6234  0.1435 -1.2780
 6776TIP3   OH220291   6.010   5.856   4.725 -0.4078 -0.1881 -0.2328
 6776TIP3    H120292   5.988   5.906   4.803 -0.9676 -0.1389 -0.4209
 6776TIP3    H220293   6.103   5.876   4.710 -0.5497  0.5667 -0.1454
 6777TIP3   OH220294   6.799   1.918   2.185 -0.5418  0.1085 -0.5469
 6777TIP3    H120295   6.756   1.842   2.223 -1.5477  0.2764 -1.3059
 6777TIP3    H220296   6.781   1.989   2.247  0.5594 -0.2848  0.2570
 6778TIP3   OH220297   2.826   3.716   3.730 -0.2321  0.2641  0.2587
 6778TIP3    H120298   2.920   3.731   3.739  0.0051 -1.1598  0.4189
 6778TIP3    H220299   2.786   3.803   3.736  1.0455  0.8415  0.5219
 6779TIP3   OH220300   2.611   3.052   3.773  0.0179 -0.0637  0.5025
 6779TIP3    H120301   2.537   3.006   3.732 -0.2290  0.3983  0.4286
 6779TIP3    H220302   2.626   3.003   3.854  0.3515 -0.8354 -0.0076
 6780TIP3   OH220303   5.840   0.635   1.940 -0.1650 -0.2224 -0.0898
 6780TIP3    H120304   5.871   0.607   2.026  0.4698 -1.4951 -0.7069
 6780TIP3    H220305   5.746   0.618   1.941 -0.5261  1.5743  1.0091
 6781TIP3   OH220306   3.657   1.343   0.227 -0.1734 -0.1032  0.3404
 6781TIP3    H120307   3.719   1.346   0.154  0.0252  2.1290  0.5565
 6781TIP3    H220308   3.644   1.434   0.252 -1.6139 -0.6997  1.9606
 6782TIP3   OH220309   6.548   6.475   0.821 -0.0157 -0.2781 -0.1286
 6782TIP3    H120310   6.600   6.550   0.796 -0.4197  0.0910  0.1155
 6782TIP3    H220311   6.460   6.495   0.789 -0.7151  0.5131  2.0548
 6783TIP3   OH220312   1.233   6.343   3.167  0.6250 -0.1389 -0.6773
 6783TIP3    H120313   1.276   6.373   3.087  1.2785  0.9903  0.0670
 6783TIP3    H220314   1.304   6.313   3.223  0.3341  0.5015  0.0576
 6784TIP3   OH220315   1.704   0.063   4.670 -1.1564  0.0414 -0.3532
 6784TIP3    H120316   1.786   0.112   4.682  0.1654 -2.1128 -0.1506
 6784TIP3    H220317   1.650   0.090   4.744  0.2224 -0.1296  0.7668
 6785TIP3   OH220318   4.715   0.711   3.294 -0.0061 -0.3522  0.3954
 6785TIP3    H120319   4.728   0.630   3.244  2.5006 -0.5095  1.1596
 6785TIP3    H220320   4.717   0.682   3.386 -0.8451  0.3896  0.6610
 6786TIP3   OH220321   5.950   1.616   5.721 -0.0791 -0.0476 -0.1095
 6786TIP3    H120322   5.944   1.712   5.717 -0.2464  0.1133  2.4035
 6786TIP3    H220323   5.978   1.598   5.811 -0.6590 -2.3973 -0.3425
 6787TIP3   OH220324   5.079   1.698   4.565  0.0030  0.4490  0.2212
 6787TIP3    H120325   4.985   1.683   4.570  0.0395  0.3528  0.6934
 6787TIP3    H220326   5.110   1.688   4.655  0.3650  1.1487  0.1857
 6788TIP3   OH220327   1.944   5.297   2.839 -0.1444  0.0364 -0.0255
 6788TIP3    H120328   2.006   5.370   2.833 -1.9573  1.8492  1.5079
 6788TIP3    H220329   1.986   5.225   2.793  2.0738  1.8359 -0.9966
 6789TIP3   OH220330   6.194   3.636   1.161  0.1578 -0.4308  0.0124
 6789TIP3    H120331   6.187   3.663   1.069  0.9836  0.2009  0.1293
 6789TIP3    H220332   6.221   3.714   1.208  1.0385 -1.0582  0.5951
 6790TIP3   OH220333   1.419   0.907   5.374 -0.4517  0.5808 -0.1394
 6790TIP3    H120334   1.423   0.977   5.309 -0.5424 -0.2062 -0.9946
 6790TIP3    H220335   1.425   0.826   5.324 -1.1627 -0.0559  0.7606
 6791TIP3   OH220336   1.489   0.635   1.173 -0.0171  0.5123  0.2759
 6791TIP3    H120337   1.520   0.557   1.219 -0.4106 -1.1205 -2.0458
 6791TIP3    H220338   1.549   0.646   1.099  0.3882  2.8078  0.8647
 6792TIP3   OH220339   1.100   2.025   4.229  0.1613 -0.0226 -0.3007
 6792TIP3    H120340   1.142   2.103   4.265  0.3043 -0.1616 -0.1645
 6792TIP3    H220341   1.031   2.059   4.171 -0.5306  0.2104  0.6331
 6793TIP3   OH220342   4.394   4.369   0.679 -0.3394 -0.4787  0.7984
 6793TIP3    H120343   4.399   4.378   0.774  1.5637  0.0113  0.6931
 6793TIP3    H220344   4.483   4.389   0.648 -0.5285 -2.0734 -0.9613
 6794TIP3   OH220345   2.166   6.492   5.327 -0.0936  0.7537 -0.0692
 6794TIP3    H120346   2.110   6.505   5.404  1.3659  0.9251  1.0177
 6794TIP3    H220347   2.248   6.458   5.363  0.3188 -0.0416 -1.6645
 6795TIP3   OH220348   6.508   3.864   5.226 -0.2953  0.3480 -0.7706
 6795TIP3    H120349   6.516   3.959   5.218 -0.4738  0.4763  0.4026
 6795TIP3    H220350   6.541   3.830   5.143  1.1046  1.3763 -0.6608
 6796TIP3   OH220351   4.033   6.690   5.463 -0.3996  0.1028  0.4304
 6796TIP3    H120352   4.126   6.714   5.459 -0.5284  0.6011  0.4154
 6796TIP3    H220353   3.986   6.771   5.446 -0.8328 -0.4948 -1.5177
 6797TIP3   OH220354   1.385   4.612   2.910  0.3899 -0.2150  0.1491
 6797TIP3    H120355   1.394   4.696   2.865  0.4199  0.0299  0.6034
 6797TIP3    H220356   1.293   4.588   2.900  0.3726 -0.1085  0.0553
 6798TIP3   OH220357   5.529   4.016   4.658 -0.2123 -0.4532  0.0796
 6798TIP3    H120358   5.518   4.096   4.710  1.9996 -0.0417  0.0059
 6798TIP3    H220359   5.618   4.022   4.623 -1.1666 -1.3181 -2.7787
 6799TIP3   OH220360   6.301   4.232   4.745  0.2554 -0.1872  0.1933
 6799TIP3    H120361   6.249   4.153   4.739  0.3975 -0.3191  0.6280
 6799TIP3    H220362   6.270   4.288   4.674 -3.3812  1.4676  2.7726
 6800TIP3   OH220363   0.084   0.617   2.372 -0.0008 -0.3874  0.0246
 6800TIP3    H120364   0.099   0.707   2.399 -0.8998  0.1152 -1.1101
 6800TIP3    H220365   0.168   0.573   2.389  1.1738  1.1623 -1.4599
 6801TIP3   OH220366   3.835   3.358   1.300  0.2945  0.2839  0.3201
 6801TIP3    H120367   3.910   3.354   1.360  1.0178  1.4663 -0.4592
 6801TIP3    H220368   3.867   3.317   1.220  0.6498  2.1238 -0.5252
 6802TIP3   OH220369   3.774   2.606   0.232  0.1235  0.2691  0.2353
 6802TIP3    H120370   3.707   2.558   0.282 -1.1148  1.5696 -0.0985
 6802TIP3    H220371   3.802   2.545   0.164  1.4210 -1.3363  2.0880
 6803TIP3   OH220372   4.020   3.515   5.363  0.0205  0.4557  0.3556
 6803TIP3    H120373   3.940   3.463   5.363  0.8495 -0.9751 -1.8862
 6803TIP3    H220374   3.991   3.605   5.348 -1.2796  0.3035  1.8072
 6804TIP3   OH220375   4.282   3.936   1.895 -0.1420  0.2946  0.4308
 6804TIP3    H120376   4.274   3.977   1.809 -1.4786 -1.8030 -0.5215
 6804TIP3    H220377   4.211   3.975   1.947 -0.9600 -0.2540 -0.2447
 6805TIP3   OH220378   5.191   6.105   0.209  0.3392  0.4491 -0.6980
 6805TIP3    H120379   5.224   6.160   0.280  0.2915 -0.5365  0.1098
 6805TIP3    H220380   5.269   6.080   0.160  0.7599 -1.1174  0.6623
 6806TIP3   OH220381   6.139   6.593   0.432 -0.3674  0.1678  0.1280
 6806TIP3    H120382   6.221   6.551   0.406 -0.6278 -0.1793 -0.1559
 6806TIP3    H220383   6.148   6.609   0.526  0.5384  1.3051 -0.1267
 6807TIP3   OH220384   5.420   4.130   4.421  0.4563  0.0115  0.2591
 6807TIP3    H120385   5.360   4.097   4.354  1.4811 -1.0240 -0.2013
 6807TIP3    H220386   5.450   4.052   4.467  0.7810  0.5884  1.0463
 6808TIP3   OH220387   3.415   4.656   2.989 -0.1724 -0.0329  0.2281
 6808TIP3    H120388   3.400   4.716   3.062  1.5801  0.5504  0.1426
 6808TIP3    H220389   3.428   4.571   3.030  3.6940  0.7280  0.9827
 6809TIP3   OH220390   6.844   3.126   3.746  0.9360 -0.7393  0.4029
 6809TIP3    H120391   6.880   3.105   3.659 -0.3601  0.3674 -0.4539
 6809TIP3    H220392   6.921   3.143   3.800  1.7902  1.3255 -1.2852
 6810TIP3   OH220393   0.611   6.297   0.821  0.0455 -0.1299  0.3477
 6810TIP3    H120394   0.701   6.279   0.850  0.5845  0.3555 -0.9602
 6810TIP3    H220395   0.608   6.391   0.808 -0.5110 -0.1991 -0.0707
 6811TIP3   OH220396   3.942   1.063   5.833 -0.4864  0.7010  0.0691
 6811TIP3    H120397   3.924   1.098   5.746  0.1288  1.4250  0.2273
 6811TIP3    H220398   3.856   1.035   5.866 -0.7576  0.6449 -0.6652
 6812TIP3   OH220399   4.419   0.780   0.180  0.0928  0.2972  0.0210
 6812TIP3    H120400   4.339   0.744   0.218  2.0005 -1.3366  2.9047
 6812TIP3    H220401   4.466   0.704   0.146  1.6922  0.7498  1.0828
 6813TIP3   OH220402   1.554   6.045   2.514  0.2556  0.0814 -0.1071
 6813TIP3    H120403   1.587   6.063   2.426 -1.0700  1.1000 -0.4278
 6813TIP3    H220404   1.471   6.000   2.500  1.3821 -2.4278  0.6876
 6814TIP3   OH220405   6.111   1.735   3.951  0.2498  0.3462  0.2724
 6814TIP3    H120406   6.161   1.735   3.870 -0.8788 -0.2027 -0.4506
 6814TIP3    H220407   6.024   1.703   3.926  0.1317 -0.7182  1.8495
 6815TIP3   OH220408   5.497   0.467   4.639 -0.0252  0.5601  0.0282
 6815TIP3    H120409   5.579   0.425   4.665  0.2029  0.4452 -0.8491
 6815TIP3    H220410   5.517   0.509   4.556 -1.3327 -1.0721 -1.2009
 6816TIP3   OH220411   4.802   2.920   0.699 -0.2080 -0.1915  0.0828
 6816TIP3    H120412   4.767   2.870   0.773 -0.3035  0.7094  0.6602
 6816TIP3    H220413   4.897   2.918   0.712  0.1410 -3.3109 -1.9146
 6817TIP3   OH220414   1.969   1.616   0.031 -0.3607 -0.4691 -0.2236
 6817TIP3    H120415   2.013   1.686  -0.016 -0.0444  0.7424  1.7539
 6817TIP3    H220416   2.039   1.574   0.082 -0.6129 -2.0066 -1.1021
 6818TIP3   OH220417   6.844   5.008   0.961  0.1179 -0.1082  0.1094
 6818TIP3    H120418   6.884   4.960   1.034  3.0139  0.3285 -1.0698
 6818TIP3    H220419   6.847   5.099   0.989 -0.6748 -0.1059  0.2303
 6819TIP3   OH220420   2.386   4.970   0.843  0.1965 -0.3414 -0.0162
 6819TIP3    H120421   2.307   5.002   0.886  0.0798 -0.4093 -0.1764
 6819TIP3    H220422   2.451   4.963   0.913 -0.2118 -1.1855  0.3002
 6820TIP3   OH220423   2.799   5.891   0.638 -0.5248  0.2431  0.2294
 6820TIP3    H120424   2.762   5.829   0.574 -1.5057  2.1030 -1.1153
 6820TIP3    H220425   2.740   5.966   0.635  0.2735  1.0133  2.2587
 6821TIP3   OH220426   5.488   1.694   5.368 -0.1335  0.1620  0.2020
 6821TIP3    H120427   5.428   1.656   5.303 -2.5413  0.6683  1.9814
 6821TIP3    H220428   5.481   1.635   5.443  2.0842 -0.0362  0.3080
 6822TIP3   OH220429   4.211   5.427   0.689  0.0444 -0.0253  0.4886
 6822TIP3    H120430   4.277   5.366   0.656  0.7975  1.3711 -0.6935
 6822TIP3    H220431   4.183   5.388   0.772  2.4981 -0.6003  1.1588
 6823TIP3   OH220432   2.559   2.289   4.794  0.0839 -0.4358 -0.1381
 6823TIP3    H120433   2.652   2.303   4.810  0.3112 -1.4097 -0.5470
 6823TIP3    H220434   2.515   2.346   4.857  0.9558 -0.8450  0.8597
 6824TIP3   OH220435   3.497   6.595   1.607 -0.3741  0.5432 -0.1055
 6824TIP3    H120436   3.439   6.554   1.671 -0.2879  0.4500 -0.0870
 6824TIP3    H220437   3.439   6.621   1.535 -0.4166  0.3125 -0.1554
 6825TIP3   OH220438   6.013   3.989   0.462 -0.2904  0.1741 -0.3465
 6825TIP3    H120439   6.000   3.955   0.550 -0.3678  2.1623  0.4675
 6825TIP3    H220440   6.107   4.003   0.454 -0.1615 -0.9306 -0.9777
 6826TIP3   OH220441   1.013   1.298   1.235 -0.1039 -0.2879  0.2100
 6826TIP3    H120442   1.009   1.368   1.300  2.1603 -0.0704  0.1631
 6826TIP3    H220443   0.991   1.341   1.152  1.8030  0.5369  0.0935
 6827TIP3   OH220444   4.709   6.734   5.778  0.1088 -0.0664 -0.3918
 6827TIP3    H120445   4.683   6.645   5.754 -0.8281 -0.2109  1.0223
 6827TIP3    H220446   4.780   6.722   5.841  0.6162  0.2266 -0.8970
 6828TIP3   OH220447   6.995   3.641   4.602  0.1745 -0.1284  0.3026
 6828TIP3    H120448   6.910   3.623   4.641  0.5865  0.2004  1.4003
 6828TIP3    H220449   6.977   3.708   4.536 -0.2670  0.7516  1.2874
 6829TIP3   OH220450   3.071   2.023   3.286  0.1798 -0.1633 -0.6183
 6829TIP3    H120451   3.030   2.101   3.323  0.2208 -0.3900 -0.0846
 6829TIP3    H220452   3.123   2.055   3.212  1.7679  0.5944  0.7641
 6830TIP3   OH220453   4.026   5.084   0.998  0.1629 -0.2886 -0.0105
 6830TIP3    H120454   3.943   5.044   1.025 -0.6169  1.5454  0.3976
 6830TIP3    H220455   4.093   5.032   1.043 -0.9452  0.6442  2.9568
 6831TIP3   OH220456   4.138   4.216   5.664  0.2114 -0.1350 -0.4182
 6831TIP3    H120457   4.101   4.293   5.620  0.8406  1.0118  0.9659
 6831TIP3    H220458   4.230   4.240   5.680  0.4958 -1.3103 -0.2273
 6832TIP3   OH220459   1.923   5.845   4.147 -0.0821 -0.6593  0.1018
 6832TIP3    H120460   1.855   5.878   4.207  0.1844  0.5565 -0.2272
 6832TIP3    H220461   1.941   5.756   4.177 -1.2489 -0.7174  0.6959
 6833TIP3   OH220462   1.818   1.412   4.024 -0.3062  0.0300  0.1987
 6833TIP3    H120463   1.901   1.364   4.031 -0.3696 -0.0394  0.4685
 6833TIP3    H220464   1.751   1.343   4.020 -0.3215  0.0734 -0.4787
 6834TIP3   OH220465   6.888   1.743   1.678  0.1185 -0.7804 -0.4831
 6834TIP3    H120466   6.914   1.832   1.655 -0.6054 -0.9892 -2.2727
 6834TIP3    H220467   6.869   1.748   1.772  0.1169  0.9504 -0.5289
 6835TIP3   OH220468   6.962   2.102   1.531 -0.6552  0.0888 -0.5041
 6835TIP3    H120469   7.021   2.093   1.457 -1.0554 -4.3727 -0.5382
 6835TIP3    H220470   6.875   2.111   1.492 -0.6355  0.0541 -0.5549
 6836TIP3   OH220471   2.929   0.083   0.401 -0.5397  0.2406  0.0762
 6836TIP3    H120472   2.954   0.163   0.354  0.0389 -0.2855 -0.5248
 6836TIP3    H220473   2.836   0.072   0.380 -0.4042  0.2668 -0.5806
 6837TIP3   OH220474   1.469   4.609   1.156 -0.4417 -0.4932 -0.8074
 6837TIP3    H120475   1.561   4.622   1.175 -0.6068  0.2310 -0.4534
 6837TIP3    H220476   1.444   4.686   1.105 -0.4127 -1.5868 -2.5420
 6838TIP3   OH220477   5.069   4.848   2.075  0.9670  0.3223  0.0451
 6838TIP3    H120478   5.014   4.895   2.012  2.0995 -1.0005 -2.0474
 6838TIP3    H220479   5.058   4.897   2.157 -2.5220  0.6856 -0.4807
 6839TIP3   OH220480   4.468   2.846   5.432 -0.5915 -0.3608  0.0647
 6839TIP3    H120481   4.460   2.880   5.521 -1.2553 -1.3978  0.4152
 6839TIP3    H220482   4.562   2.839   5.417 -0.4766 -0.1914  0.6824
 6840TIP3   OH220483   1.360   1.653   2.145 -0.0779 -0.1064  0.1488
 6840TIP3    H120484   1.368   1.562   2.118 -1.3049 -0.3382  0.5173
 6840TIP3    H220485   1.277   1.682   2.107  0.5218  0.9998 -0.3550
 6841TIP3   OH220486   5.047   2.692   1.504 -0.1979  0.3010  0.0212
 6841TIP3    H120487   5.003   2.676   1.588  0.3629  0.5328  0.3609
 6841TIP3    H220488   4.975   2.704   1.442 -0.6399  1.8836  0.7872
 6842TIP3   OH220489   1.156   3.965   5.789 -0.8121  0.0357  0.2646
 6842TIP3    H120490   1.171   3.912   5.867 -0.9146 -0.2095  0.1174
 6842TIP3    H220491   1.119   3.904   5.725 -0.4479  0.1652 -0.0743
 6843TIP3   OH220492   4.073   6.537   3.407 -0.0450 -0.1287 -0.6232
 6843TIP3    H120493   4.143   6.592   3.373  0.4170 -0.8109 -0.8133
 6843TIP3    H220494   4.037   6.493   3.330  0.2795 -0.8584 -0.3726
 6844TIP3   OH220495   1.322   3.565   0.141  0.5952 -0.2842 -1.1400
 6844TIP3    H120496   1.267   3.641   0.122 -0.4229 -0.8306 -0.4653
 6844TIP3    H220497   1.405   3.603   0.169 -0.5099  0.6749  1.0982
 6845TIP3   OH220498   2.486   5.746   5.428  0.3664 -0.2650 -0.0224
 6845TIP3    H120499   2.535   5.673   5.464  0.2274 -0.1580  0.3941
 6845TIP3    H220500   2.535   5.824   5.458  0.4408 -0.1861 -0.3507
 6846TIP3   OH220501   2.666   0.870   3.033 -0.0443  0.0030  0.3385
 6846TIP3    H120502   2.748   0.914   3.057 -0.0179  0.5586 -0.7068
 6846TIP3    H220503   2.641   0.822   3.112  1.1679  0.0048  0.7523
 6847TIP3   OH220504   4.578   2.601   0.488 -0.4093  0.6809  0.0235
 6847TIP3    H120505   4.598   2.534   0.423 -1.1206 -0.9969  1.4425
 6847TIP3    H220506   4.639   2.672   0.469 -1.1916  0.6772 -3.0070
 6848TIP3   OH220507   1.079   0.239   1.537  0.0672 -0.0675  0.4752
 6848TIP3    H120508   1.117   0.151   1.540 -0.8379 -0.6022 -1.8557
 6848TIP3    H220509   1.047   0.249   1.447  0.6913  2.9093  0.4732
 6849TIP3   OH220510   6.738   2.296   0.433 -0.7213 -0.4868  0.0586
 6849TIP3    H120511   6.706   2.362   0.495  2.3026  0.6516  0.5941
 6849TIP3    H220512   6.749   2.217   0.485  1.0489  0.2468  0.8865
 6850TIP3   OH220513   3.455   2.756   2.837 -0.0692  0.4021 -0.1016
 6850TIP3    H120514   3.444   2.811   2.915  2.8176  0.0455  0.6727
 6850TIP3    H220515   3.386   2.689   2.846  0.8448 -0.3283  2.8334
 6851TIP3   OH220516   7.036   4.099   4.464  0.2538 -0.0206 -0.1150
 6851TIP3    H120517   6.980   4.162   4.509  2.1085  1.7710 -0.1861
 6851TIP3    H220518   7.082   4.150   4.398  1.3088 -1.6064 -0.6662
 6852TIP3   OH220519   6.881   4.436   4.807 -0.0001 -0.5489  0.0024
 6852TIP3    H120520   6.804   4.489   4.831 -0.1014 -0.8014  0.2397
 6852TIP3    H220521   6.865   4.351   4.848 -0.1668 -0.9906 -0.9539
 6853TIP3   OH220522   2.340   2.924   1.437  0.0154 -0.1646 -1.0021
 6853TIP3    H120523   2.294   3.006   1.447  1.5019  0.5252  0.6753
 6853TIP3    H220524   2.314   2.871   1.512  1.3655 -0.0316 -0.4132
 6854TIP3   OH220525   6.963   3.262   1.220 -0.0289 -0.4957  0.0192
 6854TIP3    H120526   7.006   3.177   1.235 -2.3804 -1.7079  0.4557
 6854TIP3    H220527   6.914   3.249   1.139  0.4713  0.8715 -0.5254
 6855TIP3   OH220528   5.301   3.101   4.053 -0.6176 -0.3735 -0.4074
 6855TIP3    H120529   5.269   3.148   3.977 -0.6480  0.2797  0.0043
 6855TIP3    H220530   5.393   3.082   4.033 -0.0865  1.4117  0.1307
 6856TIP3   OH220531   5.315   6.362   3.713  0.1611  0.3025  0.4412
 6856TIP3    H120532   5.264   6.332   3.638 -1.5938  1.7589  1.0115
 6856TIP3    H220533   5.359   6.441   3.683  2.4065 -1.0491 -0.1215
 6857TIP3   OH220534   2.391   3.307   4.305 -0.0461 -0.5823 -0.2880
 6857TIP3    H120535   2.485   3.311   4.321 -0.0820  1.3129 -0.3351
 6857TIP3    H220536   2.370   3.214   4.308  1.5002 -0.9261  1.5946
 6858TIP3   OH220537   4.216   2.443   0.464  0.6205  0.0541 -0.1781
 6858TIP3    H120538   4.296   2.401   0.432 -0.4405 -0.9595 -1.6300
 6858TIP3    H220539   4.246   2.504   0.531  2.3869 -2.0535  1.0887
 6859TIP3   OH220540   6.709   3.732   0.672 -0.1958  0.3285  0.5276
 6859TIP3    H120541   6.647   3.796   0.637 -0.4849  0.8249  1.9044
 6859TIP3    H220542   6.755   3.779   0.741 -0.3306 -0.9095  1.4784
 6860TIP3   OH220543   2.326   0.001   0.367  0.2541 -0.3198  0.2760
 6860TIP3    H120544   2.290   0.075   0.318 -1.0017  0.2208  1.9440
 6860TIP3    H220545   2.408   0.034   0.403  0.7222 -0.4237 -0.6646
 6861TIP3   OH220546   2.609   5.096   5.487 -0.3885 -0.3041  0.2186
 6861TIP3    H120547   2.614   5.166   5.551  1.0753  0.1028 -0.2982
 6861TIP3    H220548   2.552   5.129   5.418  0.7511  0.6462 -0.3017
 6862TIP3   OH220549   4.172   1.959   1.116  0.4440  0.3345 -0.1237
 6862TIP3    H120550   4.113   2.027   1.148 -3.0204 -1.5011 -2.1060
 6862TIP3    H220551   4.184   1.979   1.023  1.7804 -0.1990 -0.0879
 6863TIP3   OH220552   5.859   6.502   1.505 -0.4612  0.0058  0.8056
 6863TIP3    H120553   5.908   6.581   1.527 -1.5024  1.7338 -2.4579
 6863TIP3    H220554   5.896   6.474   1.421 -1.1176 -2.1599  1.1828
 6864TIP3   OH220555   1.092   1.838   3.229 -0.0882  0.1665  0.4321
 6864TIP3    H120556   1.132   1.915   3.268  2.5711 -0.1251 -1.4521
 6864TIP3    H220557   1.147   1.765   3.257  1.0482 -0.2169 -2.4948
 6865TIP3   OH220558   0.649   0.512   2.391 -0.7680  0.1204  0.0977
 6865TIP3    H120559   0.623   0.598   2.422  1.1948  0.3483  1.2835
 6865TIP3    H220560   0.729   0.492   2.439 -1.2496 -2.4612  0.0001
 6866TIP3   OH220561   3.421   0.342   3.498  0.2388  0.3878  0.0743
 6866TIP3    H120562   3.509   0.320   3.528  1.4733  1.0761 -2.7201
 6866TIP3    H220563   3.413   0.300   3.413 -1.1588  2.3593 -0.8469
 6867TIP3   OH220564   1.886   5.241   4.755 -0.0790 -0.1591  0.3411
 6867TIP3    H120565   1.823   5.311   4.772 -0.0948  0.2721 -1.3140
 6867TIP3    H220566   1.931   5.269   4.675  0.9966 -1.3036  0.5244
 6868TIP3   OH220567   2.924   2.278   1.279  0.3163 -0.3286 -0.0787
 6868TIP3    H120568   2.959   2.364   1.302  0.6720 -0.4979  0.0205
 6868TIP3    H220569   2.870   2.294   1.202  1.0684 -0.1585 -0.5789
 6869TIP3   OH220570   6.280   4.695   4.570  0.3106 -0.2253 -0.1094
 6869TIP3    H120571   6.265   4.642   4.649  0.6680  0.0987  0.1761
 6869TIP3    H220572   6.256   4.784   4.596  2.2788  0.2448  0.2327
 6870TIP3   OH220573   5.524   1.678   2.475  0.0694  0.1935  0.8878
 6870TIP3    H120574   5.555   1.610   2.415 -0.3722  0.4715  0.3409
 6870TIP3    H220575   5.444   1.711   2.435 -0.1516  0.4883  1.5569
 6871TIP3   OH220576   2.249   4.682   4.323 -0.5910 -0.3689 -0.1783
 6871TIP3    H120577   2.299   4.745   4.374 -0.5778  0.1069 -0.7646
 6871TIP3    H220578   2.221   4.616   4.386 -0.9821  0.4534  0.5348
 6872TIP3   OH220579   6.867   5.310   3.841 -0.0966 -0.0794 -0.0101
 6872TIP3    H120580   6.893   5.223   3.872  1.1127  0.6232  1.0397
 6872TIP3    H220581   6.909   5.317   3.755  1.7791  0.3228  0.8837
 6873TIP3   OH220582   5.336   5.109   0.222  0.0984 -0.8568 -0.2737
 6873TIP3    H120583   5.411   5.112   0.282  0.6517  0.3345 -0.9824
 6873TIP3    H220584   5.356   5.035   0.164  1.2155  0.0135 -1.0411
 6874TIP3   OH220585   1.446   4.528   3.205  0.0158 -0.2269 -0.2068
 6874TIP3    H120586   1.448   4.532   3.109 -0.0594 -2.4067 -0.3496
 6874TIP3    H220587   1.354   4.517   3.227  0.0213  0.3606  0.1412
 6875TIP3   OH220588   0.015   2.771   3.356  0.2689  0.3705 -0.2067
 6875TIP3    H120589   0.065   2.736   3.282  0.3382  0.4722 -0.2088
 6875TIP3    H220590   0.032   2.865   3.353 -0.0278  0.4211 -0.2863
 6876TIP3   OH220591   2.842   3.690   5.714  0.7535  0.2584  0.2208
 6876TIP3    H120592   2.780   3.757   5.744  0.6080  0.2257 -0.0060
 6876TIP3    H220593   2.840   3.697   5.619  1.9214  1.0102  0.2313
 6877TIP3   OH220594   6.396   6.172   1.710  0.0208  0.0424 -0.4106
 6877TIP3    H120595   6.324   6.113   1.689 -0.5672  0.8719 -0.8123
 6877TIP3    H220596   6.473   6.116   1.717 -0.7047 -0.8876  0.2464
 6878TIP3   OH220597   2.757   2.905   0.031  0.0239  0.2102  0.4481
 6878TIP3    H120598   2.723   2.835   0.085  1.1639 -0.9793 -0.3091
 6878TIP3    H220599   2.848   2.915   0.058  0.1026  0.8466 -0.0110
 6879TIP3   OH220600   3.268   2.548   2.891 -0.7886  0.0956 -0.3245
 6879TIP3    H120601   3.218   2.545   2.973 -2.1041  0.6849 -1.0830
 6879TIP3    H220602   3.308   2.461   2.885  1.5614  0.8835  2.2519
 6880TIP3   OH220603   3.706   6.204   4.440 -0.2029 -0.7287  0.4295
 6880TIP3    H120604   3.792   6.167   4.426 -0.2629  0.0833 -2.8146
 6880TIP3    H220605   3.721   6.278   4.499  2.0498  1.5373 -2.6604
 6881TIP3   OH220606   3.373   0.677   1.910 -0.2961 -0.2594  0.0183
 6881TIP3    H120607   3.375   0.626   1.991 -1.7654  0.8591  0.8053
 6881TIP3    H220608   3.297   0.735   1.919  0.4236  1.0187 -1.4819
 6882TIP3   OH220609   1.907   5.765   2.450 -0.3478  0.0559  0.1505
 6882TIP3    H120610   1.948   5.791   2.368 -1.4237  0.3342 -0.3156
 6882TIP3    H220611   1.820   5.735   2.425 -0.2334 -1.0745  1.0503
 6883TIP3   OH220612   6.985   1.464   4.034  0.0760  0.4453 -0.5701
 6883TIP3    H120613   7.006   1.411   3.957  0.7539 -1.1797  0.6479
 6883TIP3    H220614   6.903   1.507   4.012  0.0164 -0.3353 -2.0150
 6884TIP3   OH220615   2.146   3.249   4.911  0.0222  0.0657  0.1965
 6884TIP3    H120616   2.085   3.185   4.875 -2.4196  1.8066  0.9698
 6884TIP3    H220617   2.145   3.233   5.006  0.3905  0.4456  0.2708
 6885TIP3   OH220618   4.746   4.374   1.831  0.1194  0.1408  0.7810
 6885TIP3    H120619   4.812   4.392   1.764  0.9277  0.1290  1.5499
 6885TIP3    H220620   4.743   4.278   1.836  0.8305  0.1365  1.4685
 6886TIP3   OH220621   4.616   1.437   3.839  0.0605  0.1812 -0.3418
 6886TIP3    H120622   4.523   1.457   3.850 -0.0965 -0.2568 -0.7893
 6886TIP3    H220623   4.635   1.464   3.749  0.6244  1.2013  0.0694
 6887TIP3   OH220624   6.101   0.661   2.837  0.1366 -0.3632 -0.0316
 6887TIP3    H120625   6.120   0.579   2.791 -1.8120  0.7225 -3.0920
 6887TIP3    H220626   6.151   0.727   2.789 -1.9506  0.8239 -0.6750
 6888TIP3   OH220627   0.595   6.305   2.652  0.5339 -0.1096 -0.0772
 6888TIP3    H120628   0.649   6.240   2.697  2.1512  1.3519  0.2016
 6888TIP3    H220629   0.575   6.265   2.567  2.6092 -0.4847 -0.4429
 6889TIP3   OH220630   5.663   2.568   5.772  0.1311 -0.5042 -0.1705
 6889TIP3    H120631   5.604   2.643   5.766  1.0085  0.1755 -0.5326
 6889TIP3    H220632   5.736   2.591   5.714  2.6070  0.4330  3.0266
 6890TIP3   OH220633   3.207   6.125   1.745 -0.7840  0.1527  0.1431
 6890TIP3    H120634   3.174   6.048   1.699  1.1237 -1.0072  0.5642
 6890TIP3    H220635   3.132   6.184   1.751 -2.0185 -1.1919 -1.1951
 6891TIP3   OH220636   3.191   2.763   3.241 -0.0007 -0.1515 -0.2568
 6891TIP3    H120637   3.166   2.697   3.176 -0.0464 -0.8275  0.4307
 6891TIP3    H220638   3.126   2.754   3.310 -1.3952  2.2089 -1.1765
 6892TIP3   OH220639   6.916   2.977   2.185 -0.1027  0.6564  0.1107
 6892TIP3    H120640   6.874   3.060   2.208  0.8880  0.5915  2.4410
 6892TIP3    H220641   7.010   2.997   2.184  0.1053 -0.2928  0.0070
 6893TIP3   OH220642   7.156   4.667   5.809  0.7764 -0.1188 -0.0872
 6893TIP3    H120643   7.217   4.738   5.826 -0.0949  0.5773  0.1591
 6893TIP3    H220644   7.106   4.696   5.732 -0.0138 -0.1774  0.4022
 6894TIP3   OH220645   5.003   2.633   0.050 -0.0455  0.4297 -0.7874
 6894TIP3    H120646   5.058   2.692  -0.003  0.0866  0.4387 -0.6411
 6894TIP3    H220647   5.043   2.636   0.137  0.7833 -0.9267 -1.0960
 6895TIP3   OH220648   1.145   2.103   5.287 -0.1358 -0.1201 -0.0572
 6895TIP3    H120649   1.208   2.127   5.219  1.3007  0.9328  1.5540
 6895TIP3    H220650   1.098   2.028   5.250 -2.2861  2.7340 -3.8427
 6896TIP3   OH220651   0.049   5.203   2.951 -0.4747  0.4231 -0.1648
 6896TIP3    H120652   0.008   5.253   3.021 -1.5299  0.6390 -0.9069
 6896TIP3    H220653  -0.012   5.212   2.877 -0.2923 -1.2862 -0.5618
 6897TIP3   OH220654   6.415   6.353   2.430  0.1703 -0.1195  0.4050
 6897TIP3    H120655   6.468   6.333   2.353 -1.0162  1.4572 -0.8867
 6897TIP3    H220656   6.469   6.412   2.483 -0.4259  2.0290 -1.2337
 6898TIP3   OH220657   5.821   0.625   4.632  0.0947  0.2226 -0.5756
 6898TIP3    H120658   5.883   0.552   4.627 -0.2042 -0.0479 -0.3607
 6898TIP3    H220659   5.805   0.637   4.725 -3.1539 -2.2762 -0.6176
 6899TIP3   OH220660   2.818   3.445   0.374 -0.5428 -0.1841 -0.2137
 6899TIP3    H120661   2.749   3.494   0.419  1.3034  1.2321  1.2526
 6899TIP3    H220662   2.772   3.396   0.305 -2.9381  0.8716  0.5244
 6900TIP3   OH220663   0.248   1.079   2.291 -0.0276  0.7021 -0.8162
 6900TIP3    H120664   0.317   1.091   2.357 -1.6909 -0.0901  1.1563
 6900TIP3    H220665   0.293   1.039   2.217  1.4674 -0.7980  0.8149
 6901TIP3   OH220666   5.235   1.545   3.091 -0.0008 -0.2389 -0.0365
 6901TIP3    H120667   5.163   1.559   3.153 -1.0323 -0.4430 -1.1446
 6901TIP3    H220668   5.257   1.453   3.101 -0.2942 -0.3177 -0.1071
 6902TIP3   OH220669   1.350   3.969   2.990 -0.6413  0.0129 -0.1410
 6902TIP3    H120670   1.264   3.964   2.948 -0.1608  1.1732 -1.3252
 6902TIP3    H220671   1.379   4.059   2.975  0.4294 -0.1214  0.9584
 6903TIP3   OH220672   5.601   5.046   4.055 -0.1603 -0.1261 -0.2576
 6903TIP3    H120673   5.520   5.092   4.035 -0.9797  0.1442  3.0270
 6903TIP3    H220674   5.662   5.115   4.081  0.3272 -0.5133 -0.3571
 6904TIP3   OH220675   1.196   6.256   2.476  0.7710  0.3786  0.0055
 6904TIP3    H120676   1.137   6.235   2.548  1.5413  0.0872  0.5707
 6904TIP3    H220677   1.144   6.242   2.397  1.1637 -3.7567  0.2754
 6905TIP3   OH220678   6.629   3.599   2.304 -0.4538  0.1246 -0.3670
 6905TIP3    H120679   6.662   3.623   2.391  2.0807 -0.9316 -0.9560
 6905TIP3    H220680   6.545   3.555   2.322  0.9516 -1.9399  1.7827
 6906TIP3   OH220681   3.990   1.614   0.333 -0.1421 -0.2825 -0.0103
 6906TIP3    H120682   3.978   1.624   0.238 -0.2092  2.0762  0.1955
 6906TIP3    H220683   4.066   1.668   0.353 -0.3016 -0.5320  1.3302
 6907TIP3   OH220684   0.785   5.958   5.285  0.2415 -0.6424 -0.0888
 6907TIP3    H120685   0.762   6.044   5.250 -2.0841 -0.5167  1.5242
 6907TIP3    H220686   0.857   5.975   5.346 -1.7540  0.6736  2.0763
 6908TIP3   OH220687   7.138   4.730   3.850  0.2707  0.0330  0.5551
 6908TIP3    H120688   7.043   4.725   3.858  0.0650  2.4954  0.4545
 6908TIP3    H220689   7.170   4.696   3.934 -0.7757  0.3317  1.1031
 6909TIP3   OH220690   4.448   3.371   5.281  0.3053  0.3126 -0.5928
 6909TIP3    H120691   4.447   3.459   5.318  0.6567 -0.1030  0.4198
 6909TIP3    H220692   4.426   3.313   5.354  0.6789 -0.4932 -1.1043
 6910TIP3   OH220693   5.303   1.069   3.212  0.5545 -0.1624  0.0073
 6910TIP3    H120694   5.307   1.116   3.295  1.3269 -0.1605 -0.0228
 6910TIP3    H220695   5.229   1.010   3.222  0.3544  0.1659  0.5218
 6911TIP3   OH220696   4.165   1.826   3.747  0.5337  0.1708  0.1223
 6911TIP3    H120697   4.213   1.892   3.799  0.8305  1.3617 -1.5863
 6911TIP3    H220698   4.082   1.814   3.795  1.1814  0.5069  1.3720
 6912TIP3   OH220699   2.448   4.059   2.713  0.0628  0.5093 -0.2877
 6912TIP3    H120700   2.385   3.987   2.715  0.8566 -0.1939  1.3866
 6912TIP3    H220701   2.393   4.138   2.714 -0.9124 -0.0519  2.6870
 6913TIP3   OH220702   3.085   4.366   3.226 -0.0997 -0.0643 -0.0208
 6913TIP3    H120703   3.135   4.404   3.299 -0.5810 -1.0472  0.8435
 6913TIP3    H220704   3.144   4.302   3.187 -0.1223 -0.1004  0.0042
 6914TIP3   OH220705   5.291   3.412   5.063 -0.3809 -0.3886  0.1760
 6914TIP3    H120706   5.263   3.431   4.974  1.0918  1.4320  0.0274
 6914TIP3    H220707   5.231   3.344   5.094 -0.7369 -1.2890 -2.2824
 6915TIP3   OH220708   5.269   1.338   0.156  0.3973  0.2329  0.6346
 6915TIP3    H120709   5.275   1.397   0.231  0.7167 -0.4013  1.1146
 6915TIP3    H220710   5.327   1.265   0.177 -0.9669 -0.9095  0.6545
 6916TIP3   OH220711   0.784   0.729   3.371  0.7943 -0.4318  0.2684
 6916TIP3    H120712   0.714   0.791   3.348  1.3874  1.3186  2.7018
 6916TIP3    H220713   0.739   0.654   3.408  0.1519 -0.0550  0.2633
 6917TIP3   OH220714   2.817   2.888   4.309  0.0419  0.1075  0.7788
 6917TIP3    H120715   2.857   2.835   4.239 -0.0484  0.5087  0.4173
 6917TIP3    H220716   2.860   2.859   4.389 -0.8575 -1.3891  0.7679
 6918TIP3   OH220717   2.209   5.701   0.858  0.2414 -0.1592  0.1286
 6918TIP3    H120718   2.226   5.608   0.848  0.3956 -0.0934 -0.2426
 6918TIP3    H220719   2.297   5.740   0.866  0.3785  0.2910 -2.6746
 6919TIP3   OH220720   2.494   2.270   2.900 -0.6592  0.1124  0.2194
 6919TIP3    H120721   2.476   2.261   2.994 -0.3114 -1.2591  0.1759
 6919TIP3    H220722   2.423   2.222   2.858  0.1252 -0.7534 -0.1424
 6920TIP3   OH220723   2.613   2.810   5.524 -0.5056  0.3153  0.6474
 6920TIP3    H120724   2.655   2.742   5.471  0.1780  0.2167  1.3058
 6920TIP3    H220725   2.597   2.881   5.462  0.9024  0.4712  0.4369
 6921TIP3   OH220726   2.201   1.900   3.997 -0.5033 -0.5665  0.0361
 6921TIP3    H120727   2.254   1.882   3.920  2.1381  1.7154  1.1640
 6921TIP3    H220728   2.142   1.971   3.970 -2.1628 -2.1709 -0.8080
 6922TIP3   OH220729   5.737   0.843   4.486 -0.6621 -0.2438  0.3211
 6922TIP3    H120730   5.754   0.778   4.554  1.3940  1.4204  1.5112
 6922TIP3    H220731   5.809   0.830   4.423 -0.0578  1.0163  0.7251
 6923TIP3   OH220732   6.521   1.148   4.655 -0.3461 -0.1752  0.5504
 6923TIP3    H120733   6.504   1.240   4.637  0.7268  0.1743  1.2656
 6923TIP3    H220734   6.459   1.125   4.724  1.0852  0.7183  2.1845
 6924TIP3   OH220735   5.896   3.129   5.261 -0.5870 -0.1862  0.1712
 6924TIP3    H120736   5.893   3.045   5.217 -1.4101 -0.8852  1.4911
 6924TIP3    H220737   5.815   3.132   5.312 -0.5488  1.3812  0.1834
 6925TIP3   OH220738   0.267   6.498   2.035 -0.2615 -0.1277  0.1260
 6925TIP3    H120739   0.184   6.515   2.080 -0.2830 -0.5143  0.2355
 6925TIP3    H220740   0.307   6.585   2.026 -1.3112  0.2605 -1.1897
 6926TIP3   OH220741   6.509   5.440   4.182  0.0087  0.2707 -0.3436
 6926TIP3    H120742   6.482   5.360   4.228 -0.9618  0.1275 -1.1039
 6926TIP3    H220743   6.600   5.453   4.207 -0.2679 -0.2080  1.0154
 6927TIP3   OH220744   5.221   6.507   4.151  0.3999 -0.1277  0.3252
 6927TIP3    H120745   5.177   6.592   4.150 -0.7619 -0.6810 -1.2139
 6927TIP3    H220746   5.190   6.463   4.071  2.1030 -1.4242  0.3044
 6928TIP3   OH220747   6.585   3.837   2.002  0.2257 -0.2169 -0.2155
 6928TIP3    H120748   6.626   3.837   1.916  1.5675  2.9484  0.2560
 6928TIP3    H220749   6.509   3.895   1.993 -0.3890 -0.8896  0.4501
 6929TIP3   OH220750   4.521   0.538   0.062  0.3950 -0.2016 -0.3474
 6929TIP3    H120751   4.610   0.508   0.081 -0.8317 -3.1503  1.3871
 6929TIP3    H220752   4.510   0.523  -0.032  1.5316 -0.3387 -0.4732
 6930TIP3   OH220753   0.187   2.049   0.100 -0.1938  0.3686 -0.4707
 6930TIP3    H120754   0.148   2.105   0.167 -0.9772 -0.8727  0.1516
 6930TIP3    H220755   0.132   1.970   0.100 -0.3526  0.4135 -2.7324
 6931TIP3   OH220756   2.821   2.308   4.895 -0.2073 -0.1083  0.4361
 6931TIP3    H120757   2.865   2.393   4.886  1.5960 -1.1640 -1.4260
 6931TIP3    H220758   2.829   2.287   4.988 -0.7211  1.7226  0.9549
 6932TIP3   OH220759   2.198   5.184   5.359 -0.0168  0.2114  0.1865
 6932TIP3    H120760   2.209   5.279   5.356 -2.7530  0.5950 -1.8302
 6932TIP3    H220761   2.117   5.171   5.408  0.2673 -1.0829  0.3493
 6933TIP3   OH220762   6.830   3.750   2.799 -0.2751  0.2593 -0.0469
 6933TIP3    H120763   6.755   3.807   2.787  0.5262  1.5063  0.5882
 6933TIP3    H220764   6.796   3.674   2.847 -1.8043 -0.9051 -2.7738
 6934TIP3   OH220765   0.434   2.578   3.495  0.7039 -0.5689 -0.2363
 6934TIP3    H120766   0.527   2.573   3.519  1.3121  1.7625 -1.7591
 6934TIP3    H220767   0.432   2.637   3.419 -1.9783 -1.0423 -0.6322
 6935TIP3   OH220768   6.955   1.849   2.492  0.2830 -0.2377  0.3360
 6935TIP3    H120769   6.972   1.770   2.441 -0.0975  0.5488 -1.0792
 6935TIP3    H220770   7.011   1.915   2.451 -0.0048  0.4141  0.9757
 6936TIP3   OH220771   2.144   2.712   0.795  0.6533 -0.1411 -0.0678
 6936TIP3    H120772   2.181   2.798   0.774 -0.0845  0.4706  1.0145
 6936TIP3    H220773   2.119   2.675   0.711  1.1485  0.6298 -0.5682
 6937TIP3   OH220774   5.544   3.060  -0.015 -0.7217  0.0363 -0.5083
 6937TIP3    H120775   5.576   3.125   0.048 -3.0404  1.9437 -1.1685
 6937TIP3    H220776   5.476   3.013   0.033 -1.8340  0.8542 -1.2454
 6938TIP3   OH220777   3.786   4.567   5.654 -0.0261  0.7313 -0.3671
 6938TIP3    H120778   3.877   4.595   5.644 -0.3675  2.0476  0.0527
 6938TIP3    H220779   3.738   4.647   5.675 -0.9831 -0.2131  1.3173
 6939TIP3   OH220780   4.374   5.787   1.544 -0.0108 -0.1862  0.4784
 6939TIP3    H120781   4.464   5.761   1.524 -0.0003  0.7701 -0.8676
 6939TIP3    H220782   4.325   5.765   1.464 -0.4458  1.6338  0.1946
 6940TIP3   OH220783   0.613   4.602   1.334  0.1784 -0.7211  0.0540
 6940TIP3    H120784   0.686   4.541   1.333  2.2047  1.5554 -0.8182
 6940TIP3    H220785   0.567   4.587   1.252  1.5595 -0.1332 -0.8650
 6941TIP3   OH220786   0.235   2.697   0.451 -0.0961  0.0973 -0.0862
 6941TIP3    H120787   0.158   2.708   0.395 -0.1185 -0.3222 -0.1437
 6941TIP3    H220788   0.231   2.606   0.479  0.2291  0.1504  0.1383
 6942TIP3   OH220789   1.898   6.424   3.860 -0.1581 -0.3022 -0.1212
 6942TIP3    H120790   1.829   6.365   3.890 -0.4124 -0.1865 -0.4733
 6942TIP3    H220791   1.883   6.505   3.907  0.2761 -0.5598  0.4685
 6943TIP3   OH220792   1.284   3.358   5.213  0.0673 -0.5280  0.3773
 6943TIP3    H120793   1.333   3.349   5.132  0.5231  1.9322  0.2982
 6943TIP3    H220794   1.203   3.403   5.188  0.2634  0.3668  1.2521
 6944TIP3   OH220795   2.811   1.388   2.121 -0.1881 -0.5596 -0.2622
 6944TIP3    H120796   2.751   1.448   2.076 -0.7514 -2.0611 -1.6179
 6944TIP3    H220797   2.876   1.365   2.054 -0.1366 -1.6437  0.1512
 6945TIP3   OH220798   1.810   0.264   2.185  0.1958  0.1381 -0.1360
 6945TIP3    H120799   1.738   0.202   2.184  0.2543  0.0756 -1.2080
 6945TIP3    H220800   1.769   0.349   2.203 -0.0779  0.0197 -0.2096
 6946TIP3   OH220801   5.443   6.232   5.038  0.8105 -0.3419 -0.1812
 6946TIP3    H120802   5.423   6.164   4.974  0.8499 -0.1687 -0.3760
 6946TIP3    H220803   5.448   6.313   4.988  1.1503 -0.2516 -0.0062
 6947TIP3   OH220804   4.205   2.817   3.105 -0.4125 -0.1741  0.1867
 6947TIP3    H120805   4.201   2.784   3.016 -0.0445  0.0846  0.0701
 6947TIP3    H220806   4.265   2.892   3.100  1.9503 -1.8701  1.1348
 6948TIP3   OH220807   2.141   0.491   0.856  0.5425 -0.0717  0.2529
 6948TIP3    H120808   2.184   0.458   0.776  2.6982  0.9076  0.9284
 6948TIP3    H220809   2.176   0.437   0.926 -0.1512  0.0782  0.7224
 6949TIP3   OH220810   2.186   1.885   0.408  0.0993 -0.2025 -0.0926
 6949TIP3    H120811   2.158   1.941   0.481  0.6913 -0.1409  0.0868
 6949TIP3    H220812   2.149   1.927   0.330  0.9985  0.7551 -0.0222
 6950TIP3   OH220813   6.146   4.491   3.400  0.0747 -0.1920  0.0875
 6950TIP3    H120814   6.099   4.410   3.422  0.6701 -1.4692 -2.8301
 6950TIP3    H220815   6.233   4.462   3.374  0.0335  1.2366 -1.8917
 6951TIP3   OH220816   5.047   6.019   0.647 -0.4367  0.2998  0.2118
 6951TIP3    H120817   5.041   6.113   0.631  0.0021  0.3668  0.4267
 6951TIP3    H220818   4.956   5.990   0.654 -0.6240  0.4601 -1.2650
 6952TIP3   OH220819   1.587   4.071   0.199  0.1050 -0.5606 -0.1852
 6952TIP3    H120820   1.524   4.008   0.234  1.4902 -1.4104  0.8794
 6952TIP3    H220821   1.660   4.017   0.169  2.4633  0.5161  3.0326
 6953TIP3   OH220822   4.787   5.113   2.798 -0.0407 -0.0062  0.2015
 6953TIP3    H120823   4.717   5.102   2.733  0.2643 -0.7371 -0.0113
 6953TIP3    H220824   4.795   5.027   2.839  0.8040  0.0384  0.1518
 6954TIP3   OH220825   5.335   2.626   4.819  0.6471  0.8476  0.2677
 6954TIP3    H120826   5.407   2.668   4.773  0.5452 -1.3033 -2.0716
 6954TIP3    H220827   5.258   2.644   4.765  0.5429 -1.8300 -0.6372
 6955TIP3   OH220828   1.583   2.118   5.428 -0.1884 -0.5375  0.7326
 6955TIP3    H120829   1.576   2.201   5.382 -0.6173 -1.6625 -1.3439
 6955TIP3    H220830   1.503   2.071   5.406  0.5871 -1.9856  0.8571
 6956TIP3   OH220831   2.798   0.571   4.439 -0.1436 -0.1197  0.3551
 6956TIP3    H120832   2.768   0.508   4.374 -0.1259  0.3544 -0.1307
 6956TIP3    H220833   2.811   0.521   4.519  0.7263 -0.8943 -0.2562
 6957TIP3   OH220834   5.453   4.239   3.077  0.0965 -0.6264  0.0747
 6957TIP3    H120835   5.544   4.266   3.085 -0.3964  1.1184  0.1355
 6957TIP3    H220836   5.435   4.239   2.983  0.1096 -0.8231  0.0711
 6958TIP3   OH220837   1.157   5.321   4.017  0.0075 -0.3943  0.1456
 6958TIP3    H120838   1.118   5.334   3.930  2.0583  1.8404 -0.5457
 6958TIP3    H220839   1.082   5.301   4.073 -1.3843 -1.9488 -2.0876
 6959TIP3   OH220840   6.256   2.347   3.459  0.5204  0.0503  0.0135
 6959TIP3    H120841   6.287   2.421   3.511 -1.5127  0.4363  0.7771
 6959TIP3    H220842   6.262   2.376   3.368 -1.9046  1.9375  0.3478
 6960TIP3   OH220843   2.961   5.006   3.973  0.0146  0.0953 -0.2261
 6960TIP3    H120844   3.025   4.971   4.035 -0.1185  0.3099  0.0361
 6960TIP3    H220845   2.877   4.999   4.020  0.2193  2.5576  0.6252
 6961TIP3   OH220846   5.653   6.439   3.388  0.1949 -0.6983 -0.0329
 6961TIP3    H120847   5.619   6.414   3.302 -1.9133  1.1983  0.1229
 6961TIP3    H220848   5.576   6.474   3.433  1.8022  0.9163  1.5903
 6962TIP3   OH220849   0.131   3.580   5.697 -0.0473 -0.5195 -0.6898
 6962TIP3    H120850   0.183   3.510   5.737  0.2057 -0.9638 -1.7745
 6962TIP3    H220851   0.196   3.646   5.671 -0.0281 -0.9548 -1.8033
 6963TIP3   OH220852   3.670   2.886   4.205  0.2388 -0.2983  0.1433
 6963TIP3    H120853   3.607   2.818   4.228 -1.9278  0.8011 -2.0378
 6963TIP3    H220854   3.634   2.966   4.244  0.0033  0.4177 -1.4590
 6964TIP3   OH220855   0.894   3.483   1.574 -0.0378 -0.2720 -0.4238
 6964TIP3    H120856   0.805   3.485   1.541 -0.5120  2.0838  0.7638
 6964TIP3    H220857   0.890   3.426   1.651 -0.2010 -1.1993 -1.1051
 6965TIP3   OH220858   0.747   2.747   2.060  0.2255  0.0473  0.2121
 6965TIP3    H120859   0.694   2.669   2.044 -0.9065  0.5734  1.2384
 6965TIP3    H220860   0.831   2.727   2.020  0.2383 -2.0418  1.1607
 6966TIP3   OH220861   6.954   4.473   2.253  0.0592 -0.7522 -0.6547
 6966TIP3    H120862   6.907   4.395   2.225 -0.5814  0.0978 -2.0681
 6966TIP3    H220863   6.909   4.545   2.208  0.1084  0.5257  1.2270
 6967TIP3   OH220864   5.789   4.814   0.432 -0.0490  0.0854 -0.3543
 6967TIP3    H120865   5.708   4.797   0.479  0.5069 -0.8937  0.2737
 6967TIP3    H220866   5.784   4.757   0.355 -0.2512  0.5268 -0.6733
 6968TIP3   OH220867   3.367   0.611   5.546 -0.1186 -0.3262  0.2907
 6968TIP3    H120868   3.390   0.542   5.484  3.4354  0.8457  0.0955
 6968TIP3    H220869   3.393   0.578   5.631 -3.2035 -1.1466  1.0420
 6969TIP3   OH220870   6.980   3.103   4.772  0.1368  0.0100  0.0458
 6969TIP3    H120871   6.897   3.082   4.814  0.5797  0.0613  0.9751
 6969TIP3    H220872   7.046   3.082   4.838  0.8092  0.8656 -0.3411
 6970TIP3   OH220873   4.717   3.396   4.286  0.1792  0.6799  0.1064
 6970TIP3    H120874   4.691   3.306   4.305  1.0932 -0.2020 -2.4035
 6970TIP3    H220875   4.636   3.439   4.259 -0.2912  0.6878  1.4662
 6971TIP3   OH220876   3.654   4.321   5.170  0.4647 -0.5617  0.0089
 6971TIP3    H120877   3.697   4.367   5.241  1.7123  0.1901 -1.1755
 6971TIP3    H220878   3.613   4.390   5.117  2.6364 -0.6798 -1.9753
 6972TIP3   OH220879   0.886   5.466   5.762  0.5832  0.8828  0.2215
 6972TIP3    H120880   0.936   5.409   5.820  2.0661  0.3860 -1.4587
 6972TIP3    H220881   0.803   5.420   5.750  1.8009 -1.0867 -1.2107
 6973TIP3   OH220882   1.929   4.433   4.382  0.0570  0.2549 -0.2638
 6973TIP3    H120883   1.910   4.358   4.326 -1.0280  1.3850 -1.5159
 6973TIP3    H220884   1.858   4.495   4.363  0.2284  1.1125  1.6381
 6974TIP3   OH220885   2.501   0.672   4.056 -0.6083 -0.0690 -0.4040
 6974TIP3    H120886   2.503   0.763   4.086 -0.7042  0.1924 -1.1800
 6974TIP3    H220887   2.423   0.666   4.001 -0.2604 -0.4559 -0.8717
 6975TIP3   OH220888  -0.030   3.040   0.980  0.7325  0.3325 -0.1590
 6975TIP3    H120889   0.053   3.075   1.013  0.3882  1.4047 -0.4002
 6975TIP3    H220890  -0.004   2.977   0.913  1.4100 -1.0919  1.3705
 6976TIP3   OH220891   5.701   1.450   4.836  0.3562 -0.3225  0.0058
 6976TIP3    H120892   5.704   1.355   4.842  1.0192 -0.2711  0.6983
 6976TIP3    H220893   5.622   1.475   4.885  0.9767 -0.4434  1.1071
 6977TIP3   OH220894   4.328   3.621   5.344 -0.2603 -0.3934 -0.4308
 6977TIP3    H120895   4.318   3.660   5.432  0.7091  0.3353 -0.6277
 6977TIP3    H220896   4.241   3.588   5.323 -0.1818 -1.9540  1.4350
 6978TIP3   OH220897   1.866   2.857   3.574 -0.4390 -0.1329  0.2459
 6978TIP3    H120898   1.804   2.888   3.640 -1.9533  0.9404 -1.5843
 6978TIP3    H220899   1.951   2.891   3.603 -0.6845 -1.3377  2.6191
 6979TIP3   OH220900   1.034   2.584   0.502  0.0303 -0.1510  0.9213
 6979TIP3    H120901   1.065   2.650   0.564  0.6024 -0.3965  0.9062
 6979TIP3    H220902   1.010   2.633   0.424 -0.1268  0.0997  1.1237
 6980TIP3   OH220903   1.678   1.919   3.691 -0.8258 -0.0720 -0.1769
 6980TIP3    H120904   1.719   1.843   3.649 -0.3889 -1.2771  2.2135
 6980TIP3    H220905   1.751   1.978   3.710 -1.0753  0.6596 -1.4157
 6981TIP3   OH220906   1.943   6.472   3.598 -0.4427  0.0139  0.3807
 6981TIP3    H120907   1.848   6.480   3.592 -0.3221  1.7620  0.5072
 6981TIP3    H220908   1.959   6.445   3.689 -0.7993 -0.2483  0.3703
 6982TIP3   OH220909   4.433   4.000   1.396 -0.2668 -0.8136 -0.9361
 6982TIP3    H120910   4.357   3.990   1.340 -0.8850  0.8644 -0.4642
 6982TIP3    H220911   4.499   4.041   1.341 -0.5951  0.0775 -0.6850
 6983TIP3   OH220912   5.071   3.548   2.519 -0.5606 -0.1491  0.1846
 6983TIP3    H120913   5.056   3.460   2.484 -0.3390  0.1299 -0.6267
 6983TIP3    H220914   5.116   3.533   2.602  1.7442 -0.7490 -1.1040
 6984TIP3   OH220915   0.564   1.346   3.582 -0.1145  0.0284  0.4565
 6984TIP3    H120916   0.529   1.397   3.655  1.5658  1.6523  0.1781
 6984TIP3    H220917   0.632   1.291   3.621  1.1238  1.2496  0.0949
 6985TIP3   OH220918   0.310   6.248   5.799  0.3050  0.1927 -0.5011
 6985TIP3    H120919   0.232   6.284   5.756  0.4957  0.7689 -0.3779
 6985TIP3    H220920   0.313   6.293   5.883  1.3208  0.9337 -0.9073
 6986TIP3   OH220921   1.412   0.449   3.493 -0.0649 -0.4367  0.5794
 6986TIP3    H120922   1.504   0.431   3.513 -0.5443 -1.5731  1.9565
 6986TIP3    H220923   1.364   0.389   3.550 -1.6992  1.1741  0.9773
 6987TIP3   OH220924   6.147   4.519   2.606  0.6056 -0.1821  0.1001
 6987TIP3    H120925   6.193   4.598   2.633  0.3452 -0.0797  0.2467
 6987TIP3    H220926   6.155   4.459   2.680 -0.2532  0.1599  0.4867
 6988TIP3   OH220927   2.197   2.754   1.596 -0.1937 -0.1245  0.1083
 6988TIP3    H120928   2.256   2.690   1.636  0.3916 -0.4811 -1.2803
 6988TIP3    H220929   2.126   2.701   1.560 -0.4929  0.1556  0.2819
 6989TIP3   OH220930   6.640   3.117   4.607  0.3930  0.0855  0.5015
 6989TIP3    H120931   6.628   3.122   4.702  0.0565 -0.4565  0.4941
 6989TIP3    H220932   6.616   3.027   4.585  2.7224 -0.5486  0.2339
 6990TIP3   OH220933   6.737   5.198   5.402  0.2753  0.0614  0.0802
 6990TIP3    H120934   6.662   5.221   5.346  0.1459 -1.8259 -0.5757
 6990TIP3    H220935   6.811   5.243   5.362  0.3064 -1.7502 -2.0641
 6991TIP3   OH220936   5.051   2.483   5.445 -0.2526 -0.0322 -0.1600
 6991TIP3    H120937   4.961   2.450   5.443  0.1251 -1.0974  0.0184
 6991TIP3    H220938   5.090   2.443   5.522  0.3616  0.4811 -0.1937
 6992TIP3   OH220939   3.394   2.927   3.069  0.3039  0.2012  0.1238
 6992TIP3    H120940   3.305   2.895   3.079  0.6683 -0.6417  0.7776
 6992TIP3    H220941   3.387   3.022   3.076 -0.3321  0.0527  1.8239
 6993TIP3   OH220942   4.415   1.004   2.862  0.1453 -0.1935 -0.5604
 6993TIP3    H120943   4.454   1.083   2.900 -0.1152 -0.0480 -0.5918
 6993TIP3    H220944   4.448   0.932   2.915  0.2095 -0.0408 -0.3955
 6994TIP3   OH220945   0.157   6.304   4.564 -0.0741 -0.1045 -0.0809
 6994TIP3    H120946   0.126   6.256   4.487 -0.6148 -2.1513  1.3139
 6994TIP3    H220947   0.251   6.313   4.551 -0.0355 -1.1272 -0.6390
 6995TIP3   OH220948   6.756   3.247   1.706  0.0714 -0.2380 -0.3044
 6995TIP3    H120949   6.818   3.194   1.756 -0.5363  0.1248  0.8555
 6995TIP3    H220950   6.737   3.322   1.762 -2.1067 -0.7795 -0.2411
 6996TIP3   OH220951   3.916   1.595   1.620  0.8360 -0.2274 -0.4083
 6996TIP3    H120952   3.918   1.686   1.650 -1.5056 -0.0523 -0.5738
 6996TIP3    H220953   4.004   1.562   1.636  0.8323  1.0220  2.9543
 6997TIP3   OH220954   3.593   3.992   2.342 -0.5227 -0.3680  0.1145
 6997TIP3    H120955   3.591   3.899   2.365  1.3488 -0.5761 -0.4369
 6997TIP3    H220956   3.505   4.023   2.363 -1.3925 -2.3970 -0.2970
 6998TIP3   OH220957   1.342   4.218   3.264 -0.1394 -0.0483  0.3639
 6998TIP3    H120958   1.403   4.285   3.231  1.0314 -2.1645 -2.0907
 6998TIP3    H220959   1.259   4.239   3.221 -0.5042  1.2335  1.5944
 6999TIP3   OH220960   6.615   6.681   0.473  0.5005 -0.2339 -0.7968
 6999TIP3    H120961   6.643   6.729   0.552  1.4886  0.5146 -1.5655
 6999TIP3    H220962   6.602   6.591   0.503  1.6764 -0.1498  0.0710
 7000TIP3   OH220963   2.475   0.128   2.432 -0.2804  0.3190 -0.4182
 7000TIP3    H120964   2.398   0.072   2.426 -0.9052  1.1907 -0.7719
 7000TIP3    H220965   2.508   0.114   2.520 -1.3995  0.6365  0.0660
 7001TIP3   OH220966   1.598   3.138   0.483  0.5184 -0.3509 -0.9943
 7001TIP3    H120967   1.580   3.231   0.473 -1.2329 -0.6855 -1.3259
 7001TIP3    H220968   1.582   3.101   0.396  2.5139 -0.7952 -1.2153
 7002TIP3   OH220969   1.370   2.098   5.067 -0.2408 -0.4246 -0.0757
 7002TIP3    H120970   1.448   2.138   5.027  0.4676 -0.4241  1.2244
 7002TIP3    H220971   1.328   2.050   4.996 -0.7126  1.9687 -1.5489
 7003TIP3   OH220972   4.620   3.836   0.813  0.1121 -0.6544 -0.1271
 7003TIP3    H120973   4.713   3.839   0.834  0.1077  0.0132 -0.1888
 7003TIP3    H220974   4.612   3.885   0.732 -0.5816  1.1958  0.9937
 7004TIP3   OH220975   5.923   6.003   4.956 -0.2412 -0.3284 -0.2396
 7004TIP3    H120976   5.969   6.087   4.953 -0.2696 -0.2276  1.4213
 7004TIP3    H220977   5.942   5.968   5.043 -1.3393 -1.4209 -0.4088
 7005TIP3   OH220978   4.845   0.440   4.433  0.1368  0.4989  0.2534
 7005TIP3    H120979   4.792   0.471   4.506 -0.7932 -0.3837 -0.0307
 7005TIP3    H220980   4.876   0.354   4.459 -0.3823  0.0812 -0.4718
 7006TIP3   OH220981   2.201   1.465   0.153 -0.4667  0.1074 -0.5708
 7006TIP3    H120982   2.200   1.485   0.247  1.2316 -1.5871 -0.1288
 7006TIP3    H220983   2.277   1.511   0.120 -0.5949  0.0420 -0.9558
 7007TIP3   OH220984   3.561   1.075   2.564 -0.3534 -0.4209 -0.4169
 7007TIP3    H120985   3.641   1.064   2.512 -1.3223  0.3764 -2.1944
 7007TIP3    H220986   3.495   1.104   2.500 -0.8327  4.0253  1.7443
 7008TIP3   OH220987   4.402   2.788   2.138 -0.1298  0.9162 -0.1033
 7008TIP3    H120988   4.465   2.837   2.190 -0.5747  1.1987  0.1732
 7008TIP3    H220989   4.412   2.698   2.167 -0.8510  1.1671  0.9695
 7009TIP3   OH220990   3.812   4.788   0.092 -0.5075 -0.6256 -0.2313
 7009TIP3    H120991   3.863   4.736   0.155 -0.8966  0.3437  0.9149
 7009TIP3    H220992   3.801   4.873   0.135  0.6315  0.6505 -2.3073
 7010TIP3   OH220993   5.753   0.915   2.908  0.0337  0.4639  0.3505
 7010TIP3    H120994   5.674   0.942   2.956 -0.9323 -0.6098 -0.5442
 7010TIP3    H220995   5.826   0.952   2.958 -1.0695  2.9649  0.2779
 7011TIP3   OH220996   3.472   3.295   3.351 -0.1844 -0.5046 -0.4540
 7011TIP3    H120997   3.479   3.202   3.327 -2.0171 -0.2129 -2.4627
 7011TIP3    H220998   3.402   3.297   3.417 -1.8521 -0.4046 -2.1183
 7012TIP3   OH220999   6.259   0.082   2.696  0.3199 -0.6359 -0.3054
 7012TIP3    H121000   6.231   0.173   2.679  0.3795 -1.1965 -4.3367
 7012TIP3    H221001   6.325   0.065   2.630  0.1064 -3.7409  0.1695
 7013TIP3   OH221002   3.924   0.958   4.579  0.0272 -0.0522  0.2160
 7013TIP3    H121003   3.844   0.934   4.532  0.2408 -1.3052  0.4574
 7013TIP3    H221004   3.899   0.956   4.672 -0.2562  1.8970  0.2233
 7014TIP3   OH221005   0.083   6.783   3.192 -0.1137 -0.6741  0.1201
 7014TIP3    H121006   0.052   6.718   3.129  0.1251 -1.8938  1.2331
 7014TIP3    H221007   0.141   6.734   3.251  2.0937  1.0479 -0.4872
 7015TIP3   OH221008   7.160   5.472   4.934 -0.0153  0.2719 -0.3993
 7015TIP3    H121009   7.178   5.414   5.008  0.2598 -0.5218 -1.0719
 7015TIP3    H221010   7.246   5.499   4.903 -0.1461  1.4750  0.2208
 7016TIP3   OH221011   6.169   0.341   5.356 -0.1919  0.3724 -0.3916
 7016TIP3    H121012   6.149   0.252   5.386 -1.5193  0.5766 -0.6301
 7016TIP3    H221013   6.134   0.398   5.424  1.4513  0.7179  0.2046
 7017TIP3   OH221014   4.060   3.390   2.976 -1.0299 -0.1357 -0.2305
 7017TIP3    H121015   4.026   3.305   3.003 -1.9106 -0.0617 -1.0523
 7017TIP3    H221016   4.023   3.405   2.889  0.7849  0.1414 -1.0189
 7018TIP3   OH221017   1.355   1.232   2.584  0.3122  0.3939  0.1537
 7018TIP3    H121018   1.425   1.264   2.527  0.4185 -0.9986 -0.5329
 7018TIP3    H221019   1.342   1.142   2.557 -1.2783  0.4206  0.7571
 7019TIP3   OH221020   2.151   3.549   2.317  0.6228 -0.2225 -0.1635
 7019TIP3    H121021   2.244   3.537   2.337  1.2169  0.2504 -2.3564
 7019TIP3    H221022   2.127   3.470   2.268  0.1004  0.0345 -0.3273
 7020TIP3   OH221023   0.531   6.395   5.012 -1.1023  0.2587 -0.0509
 7020TIP3    H121024   0.517   6.484   4.980 -2.1718  0.1768  0.1542
 7020TIP3    H221025   0.447   6.369   5.050 -0.6016 -0.5805  0.5344
 7021TIP3   OH221026   2.838   4.797   1.319  0.3166  0.4925  0.1446
 7021TIP3    H121027   2.893   4.778   1.395  0.0506  1.5667  0.6152
 7021TIP3    H221028   2.838   4.715   1.269  2.1374  0.3754  0.2480
 7022TIP3   OH221029   7.073   1.605   2.399 -0.5818  0.4294  0.7405
 7022TIP3    H121030   7.153   1.563   2.431 -0.2452  0.4257 -0.0776
 7022TIP3    H221031   7.044   1.549   2.327 -0.2521  1.4616 -0.2161
 7023TIP3   OH221032   6.698   1.783   3.398 -0.2757  0.5815 -0.3600
 7023TIP3    H121033   6.785   1.744   3.387 -0.7056 -0.5472  0.0984
 7023TIP3    H221034   6.644   1.740   3.331 -0.8125  0.2096  0.2985
 7024TIP3   OH221035   6.555   1.192   3.751 -0.3169 -0.1486 -0.1625
 7024TIP3    H121036   6.625   1.170   3.812 -0.2061  0.4406 -0.0671
 7024TIP3    H221037   6.601   1.223   3.672 -0.4582  1.1188  0.2314
 7025TIP3   OH221038   3.336   2.316   0.037  0.2601 -0.2054 -0.1316
 7025TIP3    H121039   3.418   2.297   0.083  0.0679 -1.0484 -0.1244
 7025TIP3    H221040   3.363   2.341  -0.051  0.6056  1.0097  0.3109
 7026TIP3   OH221041   5.613   5.380   1.558  0.4429  0.1710 -0.4157
 7026TIP3    H121042   5.602   5.467   1.598 -2.1577 -0.1363 -0.2953
 7026TIP3    H221043   5.582   5.391   1.468 -1.8898 -1.0089  0.1635
 7027TIP3   OH221044   1.010   5.697   3.895 -0.5008 -0.5585 -0.2242
 7027TIP3    H121045   0.970   5.783   3.880  0.7546 -0.0919 -1.0746
 7027TIP3    H221046   1.052   5.676   3.812 -1.5535 -2.4435 -0.3375
 7028TIP3   OH221047   1.305   1.804   3.876 -0.4688  0.4606 -0.0664
 7028TIP3    H121048   1.251   1.848   3.943  0.3128  0.0463  0.8606
 7028TIP3    H221049   1.266   1.830   3.793 -0.9916  1.6375  0.5218
 7029TIP3   OH221050   0.286   6.119   1.567  0.8677  0.0536  1.0891
 7029TIP3    H121051   0.210   6.060   1.561  1.0264 -0.0647  0.0078
 7029TIP3    H221052   0.270   6.170   1.646 -1.3519  1.4244 -0.1381
 7030TIP3   OH221053   1.921   1.071   3.314 -0.4732  0.3806 -0.0437
 7030TIP3    H121054   1.936   1.054   3.407  0.5273 -1.4781 -0.4934
 7030TIP3    H221055   1.879   0.991   3.281 -3.7245  2.1410 -0.6280
 7031TIP3   OH221056   2.682   4.443   2.000  0.4691  0.2530  0.3100
 7031TIP3    H121057   2.663   4.374   1.936  1.6739  0.8375 -0.7267
 7031TIP3    H221058   2.761   4.412   2.044 -0.3372 -0.1325  1.5464
 7032TIP3   OH221059   0.614   1.475   0.254  0.1999  0.3602  0.0718
 7032TIP3    H121060   0.616   1.471   0.158  0.5210  1.0638  0.0451
 7032TIP3    H221061   0.529   1.436   0.278  0.5843 -0.8437 -0.4302
 7033TIP3   OH221062   1.466   1.699   3.654 -0.0504  0.4300  0.0524
 7033TIP3    H121063   1.504   1.783   3.629  3.9359 -0.5111  2.1239
 7033TIP3    H221064   1.440   1.710   3.745  2.4590 -0.9494  1.0547
 7034TIP3   OH221065   5.280   4.863   0.939 -0.3056 -0.1134  0.0529
 7034TIP3    H121066   5.226   4.784   0.943  0.8613 -1.1676 -2.5913
 7034TIP3    H221067   5.365   4.832   0.909  0.5198  2.0341  0.0206
 7035TIP3   OH221068   5.865   0.508   5.707 -0.3684 -0.0036 -0.0110
 7035TIP3    H121069   5.834   0.515   5.798  0.0149  0.6853  0.0746
 7035TIP3    H221070   5.810   0.570   5.659  0.1309  0.4114 -0.0555
 7036TIP3   OH221071   4.774   6.365   1.360  0.5808  0.0124 -0.1161
 7036TIP3    H121072   4.790   6.358   1.266  0.2319 -1.4154 -0.0970
 7036TIP3    H221073   4.717   6.291   1.380  1.4809 -0.3272  1.3990
 7037TIP3   OH221074   5.138   4.613   0.939 -0.6566 -1.2208 -0.2504
 7037TIP3    H121075   5.119   4.521   0.922 -0.7630 -1.2980  0.2755
 7037TIP3    H221076   5.084   4.635   1.015 -1.0534 -0.5700 -0.7140
 7038TIP3   OH221077   6.782   1.804   0.939 -0.4131  0.0792 -0.2294
 7038TIP3    H121078   6.855   1.847   0.983  0.1377  0.3616 -1.3941
 7038TIP3    H221079   6.812   1.789   0.849 -0.7342 -2.3159 -0.0235
 7039TIP3   OH221080   3.354   5.144   4.137  0.0750  0.1653  0.4899
 7039TIP3    H121081   3.282   5.081   4.134  0.5951 -0.4125 -1.8203
 7039TIP3    H221082   3.333   5.208   4.069  2.5968 -1.1519 -1.7699
 7040TIP3   OH221083   6.186   3.581   3.502  0.1838 -0.4181 -0.2259
 7040TIP3    H121084   6.145   3.495   3.511 -2.8623  0.6472 -2.0151
 7040TIP3    H221085   6.171   3.624   3.586 -0.6489 -0.7816 -0.1714
 7041TIP3   OH221086   2.068   6.753   0.549 -0.3290  0.3448  0.1857
 7041TIP3    H121087   2.051   6.820   0.483 -0.1349 -1.4110 -1.7216
 7041TIP3    H221088   1.992   6.758   0.607 -1.4612  0.6912 -1.2527
 7042TIP3   OH221089   1.823   1.638   4.502  0.1650 -0.2175 -0.3286
 7042TIP3    H121090   1.828   1.667   4.593 -0.6503  0.9994 -0.6473
 7042TIP3    H221091   1.781   1.551   4.508 -2.0653  0.8252  0.3395
 7043TIP3   OH221092   4.007   2.159   3.852 -0.2591  0.2276 -0.0710
 7043TIP3    H121093   3.954   2.188   3.926 -2.5019 -1.6537 -0.8049
 7043TIP3    H221094   3.980   2.069   3.837  2.3146 -0.4350 -1.3384
 7044TIP3   OH221095   6.202   5.029   1.455  0.3605  0.3870 -0.2897
 7044TIP3    H121096   6.133   4.971   1.423 -1.5690  2.2581  0.2564
 7044TIP3    H221097   6.209   5.097   1.388 -0.3931  1.7491  0.9440
 7045TIP3   OH221098   3.207   4.075   4.709 -0.0815 -0.0795 -0.3321
 7045TIP3    H121099   3.247   3.993   4.736 -0.2860 -0.4589 -1.1577
 7045TIP3    H221100   3.259   4.143   4.752  0.8262 -0.5958 -0.5932
 7046TIP3   OH221101   4.024   4.345   4.363 -0.2187  0.7936  0.4083
 7046TIP3    H121102   3.947   4.343   4.420 -0.3070 -0.3336  0.2582
 7046TIP3    H221103   4.054   4.436   4.367  0.4025  0.5554  3.0905
 7047TIP3   OH221104   0.789   1.915   1.622  0.3262  0.1422  0.2214
 7047TIP3    H121105   0.834   1.979   1.676  1.7199 -0.5267 -0.0938
 7047TIP3    H221106   0.821   1.830   1.654  0.0019 -0.3161 -0.6346
 7048TIP3   OH221107   5.359   3.612   1.495  0.7507 -0.4734 -0.6799
 7048TIP3    H121108   5.321   3.600   1.408 -2.8631 -0.0130  0.6699
 7048TIP3    H221109   5.358   3.525   1.534 -0.1865 -0.2451 -0.1808
 7049TIP3   OH221110   2.576   2.509   5.663 -0.5533  0.1462 -0.7240
 7049TIP3    H121111   2.633   2.439   5.695  0.7403  1.0671 -0.9010
 7049TIP3    H221112   2.538   2.547   5.742 -0.3134 -0.0015 -0.5359
 7050TIP3   OH221113   4.959   6.508   0.150 -0.6361 -0.6340 -0.2511
 7050TIP3    H121114   4.961   6.600   0.123 -2.4134 -0.6426 -0.5069
 7050TIP3    H221115   5.003   6.461   0.079 -0.2516 -0.0533 -0.4045
 7051TIP3   OH221116   7.160   2.522   5.028  0.6899 -0.0610 -0.2537
 7051TIP3    H121117   7.206   2.441   5.052  0.6649  0.1476  0.5245
 7051TIP3    H221118   7.138   2.510   4.936  0.9580 -0.8162 -0.2305
 7052TIP3   OH221119   0.847   3.840   3.358  0.3106 -0.5184  0.1197
 7052TIP3    H121120   0.755   3.818   3.338  0.1524  0.6186 -0.4797
 7052TIP3    H221121   0.894   3.758   3.345 -0.9366 -1.8184  2.9068
 7053TIP3   OH221122   4.262   5.982   1.272 -0.2454 -0.1261 -0.0659
 7053TIP3    H121123   4.346   5.937   1.280 -0.6869 -0.8199  0.8571
 7053TIP3    H221124   4.197   5.911   1.273 -0.9113  0.4797  0.6654
 7054TIP3   OH221125   4.601   2.601   4.406  0.1995 -0.2096 -0.0470
 7054TIP3    H121126   4.511   2.597   4.372 -0.8850  3.1675  1.9653
 7054TIP3    H221127   4.606   2.530   4.469 -0.8548 -0.7792 -0.5751
 7055TIP3   OH221128   3.992   3.922   2.165  0.6363  0.5292 -0.0994
 7055TIP3    H121129   3.960   3.921   2.075  1.1483 -0.2869 -0.2746
 7055TIP3    H221130   4.007   4.015   2.184 -0.4063  0.7942 -0.5129
 7056TIP3   OH221131   6.341   2.025   3.208  0.2046  0.0178 -0.1901
 7056TIP3    H121132   6.283   1.961   3.166 -0.3997  0.4238  0.0152
 7056TIP3    H221133   6.427   1.982   3.208 -0.1274 -0.6720 -0.3289
 7057TIP3   OH221134   5.538   2.455   0.207  0.1490 -0.3213 -0.1559
 7057TIP3    H121135   5.566   2.386   0.147  0.5784  0.2011 -0.5547
 7057TIP3    H221136   5.592   2.442   0.285  0.0690 -0.5739 -0.1408
 7058TIP3   OH221137   6.984   3.452   5.214  0.1717  0.0633  0.1812
 7058TIP3    H121138   7.010   3.423   5.301  3.2795  0.6756 -0.4296
 7058TIP3    H221139   6.950   3.541   5.227 -1.3297 -0.5743  0.9457
 7059TIP3   OH221140   3.033   0.916   4.703  0.4506 -0.3394  0.1294
 7059TIP3    H121141   3.108   0.902   4.761 -0.0104  3.1278  1.7909
 7059TIP3    H221142   2.957   0.919   4.761 -0.4086  0.4368 -0.9831
 7060TIP3   OH221143   0.019   3.866   3.923  0.5865 -0.3939  0.1310
 7060TIP3    H121144   0.005   3.891   4.014 -1.2187  1.4660 -0.5992
 7060TIP3    H221145   0.032   3.949   3.876  0.8155 -1.2547 -1.4250
 7061TIP3   OH221146   3.209   5.979   3.126  0.4213  0.0091 -0.1279
 7061TIP3    H121147   3.120   5.959   3.153  0.0559  0.7079 -0.7518
 7061TIP3    H221148   3.237   5.902   3.076  0.4875 -0.5645  0.7668
 7062TIP3   OH221149   0.690   1.628   1.500  0.3687  0.3662 -0.0235
 7062TIP3    H121150   0.736   1.660   1.423 -0.2950  1.4413  0.0026
 7062TIP3    H221151   0.756   1.578   1.548  1.5657  1.9506  0.0778
 7063TIP3   OH221152   5.195   0.708   0.553 -0.3152  0.1664  0.6970
 7063TIP3    H121153   5.195   0.799   0.523 -1.0832 -0.9398 -3.2224
 7063TIP3    H221154   5.119   0.668   0.510  0.1740 -2.4631  2.0118
 7064TIP3   OH221155   6.342   5.306   3.481 -0.3930 -0.3207 -0.5883
 7064TIP3    H121156   6.315   5.232   3.535 -1.8296 -1.0799 -2.2629
 7064TIP3    H221157   6.275   5.372   3.495 -1.5230 -1.0220 -2.3683
 7065TIP3   OH221158   5.849   5.894   0.563 -0.3064  0.4711 -0.7927
 7065TIP3    H121159   5.769   5.900   0.512 -0.5480 -0.1315 -0.4914
 7065TIP3    H221160   5.825   5.844   0.641  0.1678  0.9725 -0.3108
 7066TIP3   OH221161   6.091   5.741   0.035 -0.7751 -0.3430  0.1877
 7066TIP3    H121162   6.014   5.684   0.027  0.1336 -2.1199  2.8934
 7066TIP3    H221163   6.162   5.692  -0.006 -0.9198  1.1677 -2.0435
 7067TIP3   OH221164   4.268   5.676   2.968 -0.1324 -0.0158 -0.0833
 7067TIP3    H121165   4.281   5.764   2.933 -1.0931 -0.1043 -0.6839
 7067TIP3    H221166   4.339   5.665   3.032 -0.3457  1.3920  0.4118
 7068TIP3   OH221167   5.852   6.542   0.600 -0.1318 -0.1790  0.0338
 7068TIP3    H121168   5.787   6.552   0.531 -0.3389  0.2210  0.2813
 7068TIP3    H221169   5.800   6.523   0.679 -0.2918  3.4289  0.9713
 7069TIP3   OH221170   4.738   5.649   0.939  0.2963  0.0466  0.0069
 7069TIP3    H121171   4.751   5.568   0.988  0.1287  0.1095  0.1551
 7069TIP3    H221172   4.743   5.718   1.005  1.7806  0.2652 -0.3016
 7070TIP3   OH221173   1.911   0.122   3.842  0.2428 -0.1574 -0.1331
 7070TIP3    H121174   1.821   0.149   3.856 -0.3152 -2.4881  1.4520
 7070TIP3    H221175   1.908   0.070   3.761 -0.2331 -1.5805  0.7553
 7071TIP3   OH221176   1.851   6.259   4.642  0.4865  0.0021  0.3600
 7071TIP3    H121177   1.859   6.198   4.569 -0.5571  0.4383 -0.1476
 7071TIP3    H221178   1.925   6.240   4.699  2.2686  0.7234 -1.6056
 7072TIP3   OH221179   5.509   2.382   4.705 -0.8058  0.2721  0.2583
 7072TIP3    H121180   5.447   2.452   4.686 -0.4089  0.7120  0.5489
 7072TIP3    H221181   5.589   2.408   4.661 -0.5378  0.1960  0.6938
 7073TIP3   OH221182   1.531   0.367   2.074  0.2924  0.5327  0.4503
 7073TIP3    H121183   1.445   0.395   2.042 -0.4585  0.0026  1.8971
 7073TIP3    H221184   1.574   0.328   1.998 -0.6332  1.0636 -0.3638
 7074TIP3   OH221185   2.628   5.113   5.025  1.1234 -0.4739 -0.8338
 7074TIP3    H121186   2.674   5.035   5.055  2.1497  0.9152  1.4749
 7074TIP3    H221187   2.599   5.156   5.106 -0.8894  0.7119 -2.0845
 7075TIP3   OH221188   6.649   6.584   3.894 -0.0931 -0.3678  0.6702
 7075TIP3    H121189   6.649   6.640   3.972  0.8086  0.6564 -0.0541
 7075TIP3    H221190   6.603   6.635   3.827 -0.6271 -1.1354  0.4284
 7076TIP3   OH221191   0.022   1.786   2.192 -0.3279 -0.0595  0.2941
 7076TIP3    H121192   0.008   1.800   2.286  1.1651 -0.9140  0.6808
 7076TIP3    H221193   0.014   1.691   2.181  0.6646 -0.0883 -0.2317
 7077TIP3   OH221194   5.108   4.142   1.743 -0.4157  0.8231 -0.2092
 7077TIP3    H121195   5.080   4.067   1.795 -0.6146  0.4459 -0.8486
 7077TIP3    H221196   5.162   4.194   1.803  0.8333 -0.4936 -0.1369
 7078TIP3   OH221197   6.512   3.404   5.575  0.1012 -0.6274  0.2375
 7078TIP3    H121198   6.437   3.464   5.574  0.9541  0.4596 -0.9376
 7078TIP3    H221199   6.560   3.424   5.495  1.2808 -1.7890  0.6239
 7079TIP3   OH221200   2.415   6.060   4.815  0.0080  0.2421  0.4466
 7079TIP3    H121201   2.453   5.988   4.866 -0.8815  0.5732  1.6235
 7079TIP3    H221202   2.344   6.093   4.870 -0.1954  1.4243 -0.4918
 7080TIP3   OH221203   4.984   6.565   0.602  0.3880  0.3136  0.0721
 7080TIP3    H121204   4.921   6.532   0.537  0.7941 -1.8609  0.6881
 7080TIP3    H221205   4.955   6.654   0.621 -1.6069 -0.0983 -0.7673
 7081TIP3   OH221206   5.179   0.767   1.431  0.1512 -0.0842  0.3326
 7081TIP3    H121207   5.270   0.768   1.458  0.3301  0.1186 -0.2579
 7081TIP3    H221208   5.182   0.763   1.336 -0.4506  0.1524  0.2946
 7082TIP3   OH221209   0.661   5.117   4.257 -0.2619  0.5500  0.0666
 7082TIP3    H121210   0.572   5.114   4.221 -1.0728 -1.5603  2.0406
 7082TIP3    H221211   0.699   5.032   4.236  0.1381  0.2344  1.9257
 7083TIP3   OH221212   2.620   1.334   4.807  0.3111 -0.6606  0.1195
 7083TIP3    H121213   2.666   1.392   4.869  0.6226  0.3695 -1.0270
 7083TIP3    H221214   2.533   1.321   4.846  0.0862  0.9381  0.2251
 7084TIP3   OH221215   6.666   0.925   1.111  0.5534  0.2763 -0.2813
 7084TIP3    H121216   6.685   0.977   1.189  1.5483  0.0178 -0.3350
 7084TIP3    H221217   6.724   0.962   1.044 -0.8023  0.9754 -1.1171
 7085TIP3   OH221218   1.567   5.569   1.169  0.8826  0.2938 -0.1466
 7085TIP3    H121219   1.645   5.582   1.114 -0.1338  0.6446 -1.5387
 7085TIP3    H221220   1.509   5.641   1.147  0.0339 -0.1152  0.6832
 7086TIP3   OH221221   2.829   1.701   3.422 -0.1382  0.0011 -0.3327
 7086TIP3    H121222   2.875   1.740   3.495 -0.6516 -0.1264  0.0633
 7086TIP3    H221223   2.891   1.707   3.349 -0.0683  1.1808 -0.1865
 7087TIP3   OH221224   0.108   5.102   4.515  0.0044  0.0044  0.2331
 7087TIP3    H121225   0.185   5.120   4.571 -0.2481 -0.8103  0.8668
 7087TIP3    H221226   0.055   5.042   4.567 -0.2618 -0.7508 -0.8854
 7088TIP3   OH221227   0.215   5.162   0.667 -0.5878 -0.4513 -0.0330
 7088TIP3    H121228   0.138   5.133   0.618  0.5867 -0.5408 -1.9113
 7088TIP3    H221229   0.192   5.250   0.698 -1.8089 -0.8779  0.3406
 7089TIP3   OH221230   6.840   4.668   3.943  0.0165 -0.5171  0.2464
 7089TIP3    H121231   6.780   4.738   3.968 -0.5396 -2.0613  3.7667
 7089TIP3    H221232   6.821   4.652   3.851 -1.1181  2.6306 -0.1945
 7090TIP3   OH221233   1.077   0.768   4.844 -0.5581  0.0313  0.2035
 7090TIP3    H121234   1.000   0.825   4.843 -0.5546  0.0304 -1.2558
 7090TIP3    H221235   1.043   0.681   4.827 -0.1996  0.0837 -0.7997
 7091TIP3   OH221236   0.483   3.016   0.886  0.0044  0.3684  0.1342
 7091TIP3    H121237   0.434   2.997   0.967 -1.4182 -0.6899 -0.9127
 7091TIP3    H221238   0.556   2.955   0.887 -0.4061 -0.1276  0.2984
 7092TIP3   OH221239   5.009   5.620   5.205 -0.2020 -0.0260  0.2821
 7092TIP3    H121240   4.994   5.656   5.292 -0.5156  0.0208  0.2109
 7092TIP3    H221241   5.086   5.564   5.214 -0.1882  0.0426  0.5706
 7093TIP3   OH221242   2.314   2.669   4.518  0.4409  0.1145 -0.5092
 7093TIP3    H121243   2.355   2.746   4.557 -1.2494  0.6588  0.2661
 7093TIP3    H221244   2.221   2.689   4.518 -0.0156 -1.8350 -0.5022
 7094TIP3   OH221245   0.876   3.549   4.111  0.7217  0.7302  0.8453
 7094TIP3    H121246   0.899   3.471   4.061  0.5084  0.3662  1.3069
 7094TIP3    H221247   0.928   3.543   4.191  0.2220  0.7180  1.1784
 7095TIP3   OH221248   2.476   1.618   5.812  0.3578  0.1975  0.4716
 7095TIP3    H121249   2.508   1.707   5.795 -0.1642  0.4976  1.0267
 7095TIP3    H221250   2.392   1.631   5.856 -1.3075 -0.5510 -2.2427
 7096TIP3   OH221251   6.925   0.554   3.508 -0.6464 -0.4783  0.1127
 7096TIP3    H121252   6.936   0.622   3.441 -2.5227 -1.2303 -1.0516
 7096TIP3    H221253   6.918   0.602   3.590  0.8516  0.5357 -0.3102
 7097TIP3   OH221254   6.290   6.273   0.541 -0.3697  0.0453  0.0765
 7097TIP3    H121255   6.351   6.200   0.536 -0.7215 -0.2844  0.4309
 7097TIP3    H221256   6.344   6.352   0.534 -0.0591 -0.2548 -0.9471
 7098TIP3   OH221257   6.084   3.046   5.602 -0.3095 -0.1284  0.1433
 7098TIP3    H121258   6.100   3.005   5.517  0.6046  0.4718  0.0077
 7098TIP3    H221259   6.031   2.983   5.650  2.1200 -2.1000  0.4303
 7099TIP3   OH221260   0.702   2.113   1.846  0.1996  0.2219  0.4600
 7099TIP3    H121261   0.675   2.104   1.938  0.2388  0.9726  0.5457
 7099TIP3    H221262   0.796   2.096   1.847 -0.0378 -1.3264  0.3155
 7100TIP3   OH221263   6.675   4.845   3.237  0.4467 -0.2477 -0.5965
 7100TIP3    H121264   6.746   4.890   3.282  0.3524 -1.3599  0.7164
 7100TIP3    H221265   6.708   4.834   3.147  1.2155  0.7571 -0.4584
 7101TIP3   OH221266   2.579   1.030   3.359 -0.0645  0.0286  0.4512
 7101TIP3    H121267   2.595   0.936   3.351  0.3234  0.1807 -0.7943
 7101TIP3    H221268   2.653   1.071   3.312 -1.7479  0.8579 -1.6669
 7102TIP3   OH221269   4.002   4.694   2.121  0.2392  0.3571  0.1263
 7102TIP3    H121270   4.028   4.692   2.029 -0.5745  0.3349 -0.1126
 7102TIP3    H221271   4.003   4.602   2.148  1.0117  0.4101  0.3037
 7103TIP3   OH221272   6.075   0.314   1.195 -0.2922 -0.0136 -0.3162
 7103TIP3    H121273   6.117   0.342   1.114 -0.4016  1.3793  0.0865
 7103TIP3    H221274   5.993   0.274   1.167  0.0956 -0.3975 -0.9357
 7104TIP3   OH221275   4.586   6.461   0.521 -0.0280 -0.4446  0.2132
 7104TIP3    H121276   4.530   6.385   0.506 -0.6510 -0.2214  1.2834
 7104TIP3    H221277   4.555   6.526   0.457 -1.4275 -0.1143  1.1682
 7105TIP3   OH221278   0.233   4.607   3.438 -0.4587 -0.8422  0.3627
 7105TIP3    H121279   0.292   4.644   3.503 -0.8417 -0.2296  0.3723
 7105TIP3    H221280   0.148   4.601   3.482 -0.3400 -2.0493  0.4621
 7106TIP3   OH221281   3.723   5.120   3.254  0.6914 -0.1871 -0.5302
 7106TIP3    H121282   3.736   5.158   3.340 -0.3916  0.4137 -0.6196
 7106TIP3    H221283   3.796   5.154   3.201  0.8064  0.2322 -0.1052
 7107TIP3   OH221284   0.480   4.080   0.992 -0.3050  0.3296 -0.3679
 7107TIP3    H121285   0.480   3.986   1.014  1.6588  0.6869  1.5135
 7107TIP3    H221286   0.572   4.103   0.989 -0.7635  2.2046 -0.9159
 7108TIP3   OH221287   4.351   3.311   4.112  0.1005 -0.1235 -0.2024
 7108TIP3    H121288   4.366   3.364   4.033 -2.0037  0.2789 -0.3930
 7108TIP3    H221289   4.365   3.372   4.184  0.7834 -0.1554 -0.3034
 7109TIP3   OH221290   7.077   5.033   4.204 -0.2154 -0.1076 -0.1912
 7109TIP3    H121291   7.113   5.013   4.118 -1.6545  0.7748 -1.0387
 7109TIP3    H221292   6.985   5.005   4.199 -0.4651  0.4521  0.8689
 7110TIP3   OH221293   2.105   5.616   4.569  0.1697  0.5954  0.0651
 7110TIP3    H121294   2.187   5.665   4.575 -1.8287  4.3709  0.0608
 7110TIP3    H221295   2.086   5.613   4.475  0.3862 -0.5169  0.0450
 7111TIP3   OH221296   5.516   6.770   0.134  0.6725  0.1392  0.3186
 7111TIP3    H121297   5.528   6.858   0.100 -1.5680  0.4448  0.2131
 7111TIP3    H221298   5.528   6.713   0.059  2.6995  0.2573  0.4958
 7112TIP3   OH221299   0.415   3.995   3.530 -0.0274  0.2204  0.1958
 7112TIP3    H121300   0.381   4.042   3.606 -0.3793 -1.7953  1.3530
 7112TIP3    H221301   0.361   3.916   3.524 -1.0374  0.9990 -3.1071
 7113TIP3   OH221302   3.428   4.827   3.224  0.7045  0.4729 -0.0825
 7113TIP3    H121303   3.413   4.780   3.306 -0.5884 -1.5712 -1.4145
 7113TIP3    H221304   3.359   4.893   3.222 -1.7261 -1.9237 -1.1759
 7114TIP3   OH221305   4.546   2.331   3.433 -0.5903 -0.0048 -0.2041
 7114TIP3    H121306   4.542   2.238   3.453 -2.4224  0.0689 -0.0381
 7114TIP3    H221307   4.589   2.371   3.509 -0.1021 -0.6622 -0.1279
 7115TIP3   OH221308   5.200   4.477   0.102  0.2726  0.0629 -0.1613
 7115TIP3    H121309   5.196   4.564   0.062  0.9702  0.0974 -0.1680
 7115TIP3    H221310   5.292   4.464   0.123  0.1029 -0.4734  0.2963
 7116TIP3   OH221311   5.513   5.703   2.511  0.4190 -0.6924  0.3967
 7116TIP3    H121312   5.438   5.712   2.570  1.3801  0.8520  1.4352
 7116TIP3    H221313   5.534   5.793   2.486 -1.3228 -1.2761 -4.1821
 7117TIP3   OH221314   4.028   6.765   2.205  0.1513  0.2044  0.2977
 7117TIP3    H121315   3.970   6.840   2.212 -0.9747 -0.5316 -0.7640
 7117TIP3    H221316   4.019   6.736   2.115 -0.4135 -1.9504  0.9851
 7118TIP3   OH221317   0.184   6.654   5.222 -0.2034  0.3543 -0.7155
 7118TIP3    H121318   0.186   6.699   5.137 -0.0734 -1.2081 -1.5884
 7118TIP3    H221319   0.097   6.613   5.225 -0.2369  0.4699 -0.0534
 7119TIP3   OH221320   0.485   2.155   4.471 -0.2636  0.4575 -0.3903
 7119TIP3    H121321   0.446   2.154   4.559 -1.2628  3.7478 -0.6472
 7119TIP3    H221322   0.413   2.130   4.413 -0.6662  1.7993 -0.4979
 7120TIP3   OH221323   5.384   6.124   5.690 -0.0187  0.2245 -0.2770
 7120TIP3    H121324   5.432   6.150   5.612 -2.6746 -1.0130 -2.4971
 7120TIP3    H221325   5.439   6.057   5.731  1.0861  0.3561 -1.4963
 7121TIP3   OH221326   4.846   6.089   1.080 -0.9657  0.0445 -0.0141
 7121TIP3    H121327   4.933   6.097   1.120 -0.6892  1.3099 -0.8141
 7121TIP3    H221328   4.813   6.178   1.075 -1.3229 -0.1526 -1.8176
 7122TIP3   OH221329   6.354   0.122   0.498 -0.2088 -0.1804  0.0791
 7122TIP3    H121330   6.263   0.099   0.476 -0.4913  0.5216  0.4582
 7122TIP3    H221331   6.397   0.131   0.413 -0.0716 -2.0545 -0.0904
 7123TIP3   OH221332   1.221   0.521   5.695  0.3598 -0.4209  0.2582
 7123TIP3    H121333   1.174   0.509   5.777 -0.4565 -0.6504 -0.2223
 7123TIP3    H221334   1.243   0.614   5.692 -0.6595 -0.1671  0.2001
 7124TIP3   OH221335   4.844   4.406   5.293  0.1724 -0.1203  0.1907
 7124TIP3    H121336   4.877   4.445   5.213  3.4265 -0.3620  1.2486
 7124TIP3    H221337   4.878   4.316   5.292 -1.6100 -0.8639  0.8666
 7125TIP3   OH221338   5.768   3.474   5.517  0.2550 -0.4242 -0.0312
 7125TIP3    H121339   5.799   3.441   5.601  1.2268 -0.4185 -0.3748
 7125TIP3    H221340   5.838   3.452   5.455 -0.2141  0.0333 -0.7388
 7126TIP3   OH221341   0.446   3.966   1.831  0.0226 -0.3098 -0.3653
 7126TIP3    H121342   0.516   4.025   1.858  1.1628 -1.4353 -0.7762
 7126TIP3    H221343   0.385   3.967   1.905  1.4562 -0.8267  0.8873
 7127TIP3   OH221344   0.783   4.345   1.305  0.2798  0.2607 -0.1162
 7127TIP3    H121345   0.842   4.311   1.372 -0.6263 -0.0782  0.5123
 7127TIP3    H221346   0.705   4.291   1.311 -0.4208  1.2194 -0.3994
 7128TIP3   OH221347   1.507   6.242   2.753 -0.4632 -0.0519  0.1269
 7128TIP3    H121348   1.482   6.263   2.663 -0.4166  0.1865  0.1696
 7128TIP3    H221349   1.602   6.228   2.749 -0.5894 -0.9292 -0.0303
 7129TIP3   OH221350   1.290   4.271   0.761  0.2041  0.3277 -0.0231
 7129TIP3    H121351   1.310   4.338   0.826 -0.1521  0.7130 -0.3000
 7129TIP3    H221352   1.339   4.298   0.683  0.0730  0.2654 -0.1298
 7130TIP3   OH221353   1.315   2.301   2.288  0.0669 -0.5963 -0.3535
 7130TIP3    H121354   1.259   2.223   2.284  0.5014 -0.8624 -2.5395
 7130TIP3    H221355   1.266   2.363   2.342 -2.3581 -0.8275 -2.1432
 7131TIP3   OH221356   6.501   4.350   0.700 -0.0606 -0.9343  0.0391
 7131TIP3    H121357   6.553   4.320   0.626  0.6797  0.0282  0.1461
 7131TIP3    H221358   6.510   4.282   0.766  1.4767 -0.5594  0.2404
 7132TIP3   OH221359   7.081   3.351   5.481 -0.2039  0.2128 -0.1486
 7132TIP3    H121360   7.169   3.324   5.457  1.4325  3.5519  1.4412
 7132TIP3    H221361   7.042   3.273   5.521  1.4917 -1.7089 -1.9963
 7133TIP3   OH221362   5.494   2.094   2.925 -0.5697 -0.1508 -0.0899
 7133TIP3    H121363   5.442   2.168   2.956 -0.7963 -0.5903  0.5934
 7133TIP3    H221364   5.480   2.093   2.830 -1.7486 -0.2134  0.0670
 7134TIP3   OH221365   1.785   1.632   4.794  0.2661 -0.0422 -0.3341
 7134TIP3    H121366   1.839   1.684   4.855  1.1106  0.6223 -1.6053
 7134TIP3    H221367   1.825   1.545   4.794 -0.5693 -0.4559  1.0722
 7135TIP3   OH221368   0.170   5.730   0.437 -0.2787 -0.6181 -0.1617
 7135TIP3    H121369   0.139   5.797   0.376  0.3661  0.5220  0.7273
 7135TIP3    H221370   0.256   5.760   0.465 -0.9220 -0.6070  2.0032
 7136TIP3   OH221371   5.075   0.299   5.164  0.0721 -0.0568 -0.3952
 7136TIP3    H121372   5.099   0.349   5.086 -0.4870  0.1890 -0.4128
 7136TIP3    H221373   4.980   0.307   5.170  0.2038  1.0366  1.0434
 7137TIP3   OH221374   3.598   5.919   5.340  0.4979 -0.2527 -0.4122
 7137TIP3    H121375   3.592   5.970   5.420  0.9630  0.6158 -0.9206
 7137TIP3    H221376   3.580   5.981   5.270 -0.2530 -1.0767 -0.9680
 7138TIP3   OH221377   3.074   4.051   2.810  0.0852  0.2906 -0.2205
 7138TIP3    H121378   3.089   4.014   2.897  0.7627 -1.0065 -0.8594
 7138TIP3    H221379   3.161   4.052   2.769 -0.2644  0.6091 -0.9794
 7139TIP3   OH221380   1.250   6.256   4.456  0.7534 -0.0431  0.1236
 7139TIP3    H121381   1.163   6.257   4.496 -0.2954  0.0689 -1.9844
 7139TIP3    H221382   1.288   6.340   4.479 -0.1544  0.3593  0.1940
 7140TIP3   OH221383   1.148   1.684   4.629  0.1137 -0.6201  0.1948
 7140TIP3    H121384   1.234   1.658   4.661  1.4793  1.7288 -1.2357
 7140TIP3    H221385   1.112   1.739   4.698  0.3015 -0.6466  0.3148
 7141TIP3   OH221386   1.200   5.864   1.905  0.0546 -0.3001 -0.8193
 7141TIP3    H121387   1.203   5.817   1.988  2.3581  0.2108 -0.5311
 7141TIP3    H221388   1.257   5.812   1.847 -2.1498 -1.1104 -2.3982
 7142TIP3   OH221389   5.460   3.144   0.293  0.2525  0.0101 -0.8572
 7142TIP3    H121390   5.431   3.110   0.378  0.2885 -1.1880 -1.2935
 7142TIP3    H221391   5.396   3.211   0.270 -0.8709 -0.9976 -0.7490
 7143TIP3   OH221392   4.080   0.592   5.500  0.0372 -0.3270  0.2340
 7143TIP3    H121393   4.043   0.514   5.458  0.4367 -0.0549 -0.6617
 7143TIP3    H221394   4.163   0.562   5.537  0.0949 -0.3772  0.0652
 7144TIP3   OH221395   4.962   3.600   0.817 -0.7113 -0.0931 -0.0295
 7144TIP3    H121396   4.989   3.510   0.797 -0.5048  0.0065 -0.2022
 7144TIP3    H221397   4.914   3.628   0.739  0.5798  0.4952 -0.6438
 7145TIP3   OH221398   4.900   5.280   4.771 -0.4566  0.0266  0.3726
 7145TIP3    H121399   4.950   5.243   4.844 -1.7449 -0.9510  0.7974
 7145TIP3    H221400   4.812   5.243   4.781 -1.0079  0.9126 -0.9264
 7146TIP3   OH221401   6.836   4.216   2.483 -0.2630  0.7190 -0.1722
 7146TIP3    H121402   6.865   4.300   2.518 -2.6424  1.0102  1.2815
 7146TIP3    H221403   6.774   4.239   2.413 -1.4894  0.2300  0.7238
 7147TIP3   OH221404   1.822   4.461   5.407 -0.4075  0.7046 -0.0455
 7147TIP3    H121405   1.863   4.447   5.321 -1.8084 -3.1153 -0.3206
 7147TIP3    H221406   1.888   4.507   5.458  2.3131 -0.8302 -1.8796
 7148TIP3   OH221407   2.315   5.083   4.258 -0.1269 -0.2253  0.5660
 7148TIP3    H121408   2.375   5.032   4.203  0.0790  1.4879 -0.8651
 7148TIP3    H221409   2.230   5.075   4.215  0.0598  1.2311 -0.0930
 7149TIP3   OH221410   0.788   0.875   1.326  0.4934 -0.4162 -0.3202
 7149TIP3    H121411   0.778   0.817   1.251 -0.0304  2.1824 -2.3875
 7149TIP3    H221412   0.699   0.894   1.355  0.6495 -0.5564  0.2654
 7150TIP3   OH221413   1.659   5.120   0.087  0.0424  0.5039 -0.4529
 7150TIP3    H121414   1.622   5.202   0.117  1.7006  1.1288  0.0354
 7150TIP3    H221415   1.601   5.090   0.018 -1.2904  1.4241  0.2428
 7151TIP3   OH221416   2.083   6.487   0.734 -0.4631  0.1948 -0.1434
 7151TIP3    H121417   2.020   6.439   0.681 -2.0453  2.9623 -0.9188
 7151TIP3    H221418   2.079   6.577   0.702  1.9827  1.0259  1.5706
 7152TIP3   OH221419   4.356   2.243   1.980 -0.4473 -0.3462  0.6424
 7152TIP3    H121420   4.436   2.219   1.933 -0.9241 -0.9785  0.1336
 7152TIP3    H221421   4.286   2.229   1.916 -1.1063 -1.2135  1.5443
 7153TIP3   OH221422   6.547   1.371   1.770  0.2326  0.2562  0.0700
 7153TIP3    H121423   6.550   1.304   1.702  0.8284  0.7021 -0.3593
 7153TIP3    H221424   6.592   1.446   1.731  0.4005  0.5898  0.8847
 7154TIP3   OH221425   1.483   4.361   1.309  0.0301 -0.3296  0.2579
 7154TIP3    H121426   1.510   4.294   1.372 -2.6108 -1.9421 -0.1782
 7154TIP3    H221427   1.436   4.426   1.361 -0.9249 -0.9402  0.1842
 7155TIP3   OH221428   7.037   5.893   4.906 -0.0901 -0.3437  0.3484
 7155TIP3    H121429   7.014   5.959   4.971 -1.8180 -1.3696  0.8541
 7155TIP3    H221430   7.058   5.942   4.828  1.5766  0.9068  1.5208
 7156TIP3   OH221431   2.723   1.645   5.339  0.1399  0.4860  0.3200
 7156TIP3    H121432   2.742   1.702   5.264  1.8175 -3.1918 -2.3532
 7156TIP3    H221433   2.629   1.628   5.333  0.3033  0.0038 -1.1938
 7157TIP3   OH221434   5.960   5.953   1.000  0.1506  0.2864 -0.1989
 7157TIP3    H121435   5.865   5.961   1.004  0.1475  1.0220 -1.3899
 7157TIP3    H221436   5.977   5.861   1.023 -0.9750 -0.3557 -1.7541
 7158TIP3   OH221437   0.747   1.939   4.185  0.9013 -0.2353  0.5471
 7158TIP3    H121438   0.664   1.930   4.231  0.3020 -1.3797 -0.7033
 7158TIP3    H221439   0.797   2.003   4.237 -0.2125 -0.5568  2.0574
 7159TIP3   OH221440   2.355   6.051   1.139  0.2877 -0.1895 -0.0028
 7159TIP3    H121441   2.415   6.054   1.214  0.5361  1.6704 -0.2444
 7159TIP3    H221442   2.372   6.132   1.091  0.1432 -1.3392 -2.1094
 7160TIP3   OH221443   3.043   0.022   2.058  0.5616  0.1601 -0.0325
 7160TIP3    H121444   3.136   0.036   2.041  0.4528 -0.0700 -0.8526
 7160TIP3    H221445   3.032   0.047   2.149  2.2344 -3.4203  1.3704
 7161TIP3   OH221446   3.487   1.220   5.044  0.1009 -0.0536  0.0834
 7161TIP3    H121447   3.481   1.285   4.974  1.0982  1.7354  1.5726
 7161TIP3    H221448   3.540   1.262   5.112 -1.3855 -1.4232  2.2392
 7162TIP3   OH221449   6.320   6.621   2.363 -0.0220  0.0911 -0.2814
 7162TIP3    H121450   6.345   6.542   2.412 -1.9282 -0.3181  0.1046
 7162TIP3    H221451   6.294   6.684   2.430 -0.7322  0.2366 -0.6867
 7163TIP3   OH221452   4.055   5.062   0.459 -0.2399 -0.6365 -0.1610
 7163TIP3    H121453   4.143   5.095   0.441 -0.9769  1.3999 -0.2996
 7163TIP3    H221454   4.061   5.026   0.547  0.2479  1.5422  0.7635
 7164TIP3   OH221455   6.316   5.045   5.044  0.9007  0.1029  0.7465
 7164TIP3    H121456   6.354   5.085   4.966  0.8861 -2.0035 -0.4306
 7164TIP3    H221457   6.267   5.116   5.086  1.1116  1.3717 -1.0205
 7165TIP3   OH221458   3.440   6.773   4.856  0.3635  0.0768 -0.3680
 7165TIP3    H121459   3.482   6.843   4.906 -0.1058  0.8044 -0.9785
 7165TIP3    H221460   3.511   6.733   4.806  0.6424  0.0745  0.0270
 7166TIP3   OH221461   0.062   6.603   2.231 -0.0331  0.4648  0.4377
 7166TIP3    H121462   0.046   6.617   2.324 -0.4232 -0.0373  0.4454
 7166TIP3    H221463  -0.016   6.557   2.199  1.2114 -1.7820  0.4254
 7167TIP3   OH221464   3.080   1.683   4.822  0.3099  0.3331  0.0279
 7167TIP3    H121465   3.016   1.739   4.866 -1.1929 -0.9692 -0.4148
 7167TIP3    H221466   3.163   1.731   4.830 -0.9235  2.7673 -0.5831
 7168TIP3   OH221467   2.379   1.606   3.677 -0.2439  0.1152  0.2243
 7168TIP3    H121468   2.409   1.631   3.765 -2.5226  2.2707  0.5041
 7168TIP3    H221469   2.445   1.645   3.618 -0.2370  1.2099  0.9188
 7169TIP3   OH221470   2.995   4.058   5.217  0.4151 -0.3469  0.1193
 7169TIP3    H121471   3.006   4.131   5.279  0.6157  0.3134 -0.6692
 7169TIP3    H221472   2.970   4.100   5.135 -3.1164 -1.4213  0.5089
 7170TIP3   OH221473   0.162   0.789   2.054 -0.1888  0.3845 -0.2380
 7170TIP3    H121474   0.081   0.778   2.003  0.6265  1.0959 -1.7467
 7170TIP3    H221475   0.173   0.883   2.062  0.0691  0.2856  0.7009
 7171TIP3   OH221476   0.598   5.683   5.750 -0.3976 -0.6378 -0.1053
 7171TIP3    H121477   0.676   5.702   5.698 -0.2507 -2.4029 -0.6002
 7171TIP3    H221478   0.630   5.675   5.840 -0.0737 -0.9493 -0.2466
 7172TIP3   OH221479   3.402   0.624   4.075 -0.6412 -0.1722 -0.0031
 7172TIP3    H121480   3.462   0.673   4.132  0.6758 -1.2520 -0.4201
 7172TIP3    H221481   3.349   0.573   4.136 -0.5248  0.1038  0.3374
 7173TIP3   OH221482   4.711   2.747   3.311 -0.0790  0.1760  0.1815
 7173TIP3    H121483   4.753   2.661   3.320  0.6843  0.1802 -2.5063
 7173TIP3    H221484   4.782   2.810   3.323 -0.1185  0.3234 -0.3141
 7174TIP3   OH221485   0.345   5.510   3.738  0.2069 -0.1860  0.0273
 7174TIP3    H121486   0.341   5.603   3.762  2.4704  0.3592 -1.4413
 7174TIP3    H221487   0.320   5.509   3.646  0.2549 -1.0412  0.0207
 7175TIP3   OH221488   2.916   0.145   2.374  0.0342  0.3857  0.4703
 7175TIP3    H121489   2.892   0.186   2.457  0.3992  0.6754  0.4322
 7175TIP3    H221490   2.848   0.079   2.360 -0.1923  0.5344  0.8529
 7176TIP3   OH221491   5.169   3.394   5.357  0.2148 -0.6190 -0.1281
 7176TIP3    H121492   5.117   3.363   5.432 -1.1173  2.2490  0.2542
 7176TIP3    H221493   5.111   3.384   5.282 -0.3853  1.0948  0.0566
 7177TIP3   OH221494   4.320   2.532   4.366 -0.0867  0.5490  0.3307
 7177TIP3    H121495   4.326   2.444   4.403 -2.7808  0.3979  0.5836
 7177TIP3    H221496   4.236   2.534   4.321  0.1040  2.8527 -0.0538
 7178TIP3   OH221497   1.858   3.684   3.313  0.1445 -0.1003 -0.0848
 7178TIP3    H121498   1.794   3.642   3.371 -0.4504  0.1678 -0.5444
 7178TIP3    H221499   1.831   3.776   3.310 -0.0164 -0.1688 -1.0321
 7179TIP3   OH221500   2.986   4.924   4.798 -0.1512  0.3815 -0.3136
 7179TIP3    H121501   2.930   4.881   4.863 -0.0548 -0.9046 -1.0432
 7179TIP3    H221502   3.075   4.901   4.824 -0.0486  0.8835 -0.2115
 7180TIP3   OH221503   6.086   4.549   2.314  0.3650 -0.3784  0.1725
 7180TIP3    H121504   6.113   4.523   2.402 -0.3228 -1.1947  0.1602
 7180TIP3    H221505   6.107   4.642   2.309  1.1826 -0.5097  0.8961
 7181TIP3   OH221506   1.777   1.371   0.794  0.6561  0.6825  0.2080
 7181TIP3    H121507   1.851   1.419   0.758  0.5005 -0.7121 -2.2380
 7181TIP3    H221508   1.700   1.410   0.752  0.5451 -1.6882 -2.0412
 7182TIP3   OH221509   2.955   3.787   2.655 -0.4948  0.1728  0.3723
 7182TIP3    H121510   2.985   3.816   2.568  0.5484 -1.4194  0.1547
 7182TIP3    H221511   2.961   3.866   2.710  1.4000  0.6091 -0.3706
 7183TIP3   OH221512   1.824   5.803   3.903  0.8411  0.3132  0.3322
 7183TIP3    H121513   1.742   5.851   3.891  0.0886 -0.9371  0.2400
 7183TIP3    H221514   1.861   5.838   3.984  0.4004  1.1483  0.1794
 7184TIP3   OH221515   1.113   5.183   4.693 -0.1700  0.6025 -0.2613
 7184TIP3    H121516   1.058   5.243   4.743 -0.6806  0.4471 -0.6331
 7184TIP3    H221517   1.091   5.096   4.727  0.9027  0.6405  0.6031
 7185TIP3   OH221518   0.603   2.950   1.648  0.4783  0.6200  0.4420
 7185TIP3    H121519   0.625   2.939   1.741  2.1944 -0.7742 -0.0583
 7185TIP3    H221520   0.520   2.904   1.638  1.6363 -1.7472  0.8257
 7186TIP3   OH221521   6.572   5.680   2.329 -0.5338  0.1554 -0.7830
 7186TIP3    H121522   6.624   5.646   2.402 -1.1744  1.1785  0.1914
 7186TIP3    H221523   6.509   5.611   2.310 -2.4610  1.0126  1.8171
 7187TIP3   OH221524   3.316   2.177   4.125 -0.0159 -0.0747  0.3738
 7187TIP3    H121525   3.261   2.242   4.171 -1.3070 -0.2050 -0.9335
 7187TIP3    H221526   3.255   2.126   4.074  1.2123 -1.1350 -0.0784
 7188TIP3   OH221527   6.017   4.676   3.862  0.0877 -0.5106  0.1425
 7188TIP3    H121528   6.022   4.765   3.895  1.5160 -1.1598  1.8538
 7188TIP3    H221529   6.089   4.669   3.799  1.1211 -0.9086  1.3220
 7189TIP3   OH221530   4.547   6.323   5.001 -0.1246 -0.3847  0.4436
 7189TIP3    H121531   4.577   6.327   5.091  0.6319  1.1557  0.1622
 7189TIP3    H221532   4.620   6.283   4.953 -0.4775 -1.0910  0.4817
 7190TIP3   OH221533   0.407   4.804   4.671 -0.3808 -0.0638 -0.5079
 7190TIP3    H121534   0.497   4.779   4.649  0.0706  0.2070  0.9515
 7190TIP3    H221535   0.356   4.724   4.657  0.1502 -0.3400 -0.9162
 7191TIP3   OH221536   0.310   2.714   1.904  0.1576 -0.2653  0.2477
 7191TIP3    H121537   0.312   2.789   1.963  1.1264  0.3283 -0.5159
 7191TIP3    H221538   0.278   2.750   1.821 -1.8600 -1.2157  0.5372
 7192TIP3   OH221539   4.671   3.369   2.542 -0.7887  0.1659  1.0129
 7192TIP3    H121540   4.632   3.321   2.469  0.7148 -0.6018  0.6904
 7192TIP3    H221541   4.724   3.437   2.501  0.3217 -0.4692  1.3430
 7193TIP3   OH221542   2.669   1.961   2.522  0.2787 -0.5139 -0.1346
 7193TIP3    H121543   2.739   1.898   2.543 -1.0330 -1.3855  1.9750
 7193TIP3    H221544   2.643   1.996   2.607 -1.2521  0.4543 -0.9708
 7194TIP3   OH221545   6.803   0.846   0.155  0.1359  0.3949  0.1765
 7194TIP3    H121546   6.806   0.846   0.059  3.2641 -0.6749  0.1485
 7194TIP3    H221547   6.826   0.936   0.179  0.6179  0.3495 -0.1017
 7195TIP3   OH221548   6.968   6.703   4.038  0.1885 -0.2246  0.2251
 7195TIP3    H121549   7.040   6.681   3.979  0.1638 -1.1306  0.5168
 7195TIP3    H221550   6.921   6.774   3.994 -1.1764 -2.3666 -1.9763
 7196TIP3   OH221551   5.183   0.258   3.453 -0.1398 -0.4667  0.1303
 7196TIP3    H121552   5.141   0.342   3.470 -1.7533 -1.5848  2.0715
 7196TIP3    H221553   5.277   0.278   3.454 -0.4161  1.0847  2.0742
 7197TIP3   OH221554   4.152   5.412   2.908  0.1681  0.3114  0.2559
 7197TIP3    H121555   4.162   5.506   2.921  1.5421  0.2296 -0.0840
 7197TIP3    H221556   4.159   5.375   2.996 -0.7125  0.5339  0.4321
 7198TIP3   OH221557   5.543   4.171   2.089 -0.5071  0.3402 -0.5875
 7198TIP3    H121558   5.636   4.193   2.080 -0.7550  0.9614 -2.0844
 7198TIP3    H221559   5.541   4.103   2.156  0.7897  1.7482  0.9753
 7199TIP3   OH221560   4.327   0.538   2.773  0.0207 -0.6733 -0.2648
 7199TIP3    H121561   4.244   0.579   2.796  0.2665 -0.7571  0.7876
 7199TIP3    H221562   4.374   0.606   2.724  0.3902  0.3246  1.3869
 7200TIP3   OH221563   5.141   4.436   2.383  0.2579  0.1997  0.5316
 7200TIP3    H121564   5.159   4.345   2.406 -2.8661 -0.9673 -1.0506
 7200TIP3    H221565   5.072   4.463   2.443 -1.4805  0.1777 -1.3556
 7201TIP3   OH221566   2.126   3.691   1.493 -0.2899 -0.0760 -0.3110
 7201TIP3    H121567   2.111   3.768   1.438 -0.1273  0.3753  0.2540
 7201TIP3    H221568   2.101   3.617   1.439 -0.2258  0.3616 -0.9526
 7202TIP3   OH221569   2.091   3.490   5.180 -0.4365 -0.2398  0.3743
 7202TIP3    H121570   2.182   3.515   5.194 -0.5063  0.8094 -0.8723
 7202TIP3    H221571   2.096   3.400   5.147  0.1595 -0.1475  0.1979
 7203TIP3   OH221572   4.219   0.369   5.815  0.7501 -0.3939 -0.4598
 7203TIP3    H121573   4.287   0.396   5.753 -0.3514  0.9423 -1.1299
 7203TIP3    H221574   4.171   0.301   5.770  2.3117 -2.2014  0.4701
 7204TIP3   OH221575   3.809   3.806   5.742  0.4317  0.8792  0.5895
 7204TIP3    H121576   3.867   3.872   5.703  0.2560  0.5762 -0.1951
 7204TIP3    H221577   3.722   3.827   5.708  0.3735  0.2527  0.3464
 7205TIP3   OH221578   6.708   6.263   1.587 -0.2426  0.4300  0.0609
 7205TIP3    H121579   6.799   6.245   1.565  0.3215 -0.0573  2.5530
 7205TIP3    H221580   6.683   6.192   1.647 -1.6232  1.6407  0.9811
 7206TIP3   OH221581   5.954   0.151   0.155  0.3984  0.0864  0.7501
 7206TIP3    H121582   5.898   0.124   0.082  0.9697 -2.7208  1.2001
 7206TIP3    H221583   5.894   0.179   0.224 -0.2042  1.3124 -0.2389
 7207TIP3   OH221584   6.535   5.949   1.144  0.0697  0.2513  0.5641
 7207TIP3    H121585   6.510   5.991   1.061  0.9790 -0.0416  0.1302
 7207TIP3    H221586   6.587   5.873   1.117 -0.8942 -0.7208  1.3652
 7208TIP3   OH221587   3.736   3.028   2.769 -0.0217  0.0618  0.3822
 7208TIP3    H121588   3.765   2.937   2.758  0.2906  0.4039 -2.2110
 7208TIP3    H221589   3.650   3.031   2.727  0.3360  1.1325 -0.3155
 7209TIP3   OH221590   0.763   3.330   0.916  0.5998 -0.0617 -0.3364
 7209TIP3    H121591   0.671   3.313   0.933  0.5057  1.4429  0.9024
 7209TIP3    H221592   0.809   3.286   0.988  0.5736  1.9089  0.9594
 7210TIP3   OH221593   0.697   5.333   5.626 -0.3563 -0.2211 -0.3300
 7210TIP3    H121594   0.708   5.239   5.642 -2.4376 -0.3975  0.2594
 7210TIP3    H221595   0.609   5.341   5.590 -0.6055  1.6200  0.5925
 7211TIP3   OH221596   4.340   5.079   3.878 -0.7377 -0.1903 -0.2776
 7211TIP3    H121597   4.340   5.174   3.867 -0.9713  0.3370  3.3193
 7211TIP3    H221598   4.428   5.059   3.909 -1.5267 -0.6744  1.7759
 7212TIP3   OH221599   5.874   6.389   3.557 -0.7727  0.4304  0.2654
 7212TIP3    H121600   5.809   6.433   3.502  0.7088  0.4393 -1.5612
 7212TIP3    H221601   5.953   6.442   3.547 -0.6988  1.0710  3.3392
 7213TIP3   OH221602   2.157   0.821   4.210  0.4813  0.8354  0.2750
 7213TIP3    H121603   2.216   0.894   4.192 -0.5980  2.0423  1.3845
 7213TIP3    H221604   2.199   0.774   4.282  2.3844 -1.1630 -1.9431
 7214TIP3   OH221605   3.158   6.374   5.002 -0.8647 -0.6974 -0.5432
 7214TIP3    H121606   3.226   6.440   5.015 -0.6635 -0.6150 -1.8708
 7214TIP3    H221607   3.121   6.360   5.089 -0.3134  0.5112 -0.0921
 7215TIP3   OH221608   6.635   2.823   1.300 -0.0742  0.0968  0.1905
 7215TIP3    H121609   6.606   2.828   1.391 -0.2031 -0.9094  0.2141
 7215TIP3    H221610   6.564   2.778   1.254  0.8946 -1.3375  0.0250
 7216TIP3   OH221611   0.311   5.281   3.881  0.1788 -0.4914 -0.0953
 7216TIP3    H121612   0.329   5.358   3.827  0.2486 -0.2271  0.3052
 7216TIP3    H221613   0.321   5.311   3.971  2.8495 -1.6014  0.0724
 7217TIP3   OH221614   4.203   1.481   2.732 -0.1028  0.0840  0.5195
 7217TIP3    H121615   4.257   1.426   2.790  0.6536  0.0356 -0.2069
 7217TIP3    H221616   4.154   1.537   2.792  1.3043  0.6406  1.2031
 7218TIP3   OH221617   6.658   1.396   0.754 -0.5407 -0.4288  0.7331
 7218TIP3    H121618   6.678   1.331   0.686  1.1802 -0.0222  0.8105
 7218TIP3    H221619   6.629   1.343   0.829  1.0844 -1.1771  0.8813
 7219TIP3   OH221620   1.360   5.678   1.378  0.2926  0.3733 -0.4001
 7219TIP3    H121621   1.432   5.623   1.408  0.6750  0.6184 -0.8551
 7219TIP3    H221622   1.390   5.767   1.395  0.8922  0.5617 -2.3009
 7220TIP3   OH221623   5.580   1.041   3.190 -0.1065 -0.2439  0.7360
 7220TIP3    H121624   5.486   1.055   3.202  0.1356  1.1798  1.1508
 7220TIP3    H221625   5.607   1.112   3.131  0.6437 -0.8821  0.3021
 7221TIP3   OH221626   2.719   1.084   0.188  0.1441 -0.1173 -0.0569
 7221TIP3    H121627   2.811   1.091   0.160  0.4090 -0.2441  0.7639
 7221TIP3    H221628   2.715   1.137   0.268 -0.4703 -0.2258 -0.0158
 7222TIP3   OH221629   5.016   0.235   3.798 -0.2624  0.1662 -0.2692
 7222TIP3    H121630   5.010   0.331   3.803  1.7110  0.3502 -0.8181
 7222TIP3    H221631   5.093   0.213   3.850 -1.0833 -1.2195  0.4247
 7223TIP3   OH221632   5.801   2.453   0.837  0.1838 -0.1509  0.4935
 7223TIP3    H121633   5.805   2.389   0.766 -1.6266  1.2373 -0.9895
 7223TIP3    H221634   5.858   2.418   0.905  2.5552 -1.2607 -1.8881
 7224TIP3   OH221635   5.954   1.006   0.959  0.2976  0.1884 -0.8200
 7224TIP3    H121636   5.997   1.082   0.919  0.6138  0.4652  0.0267
 7224TIP3    H221637   5.954   1.025   1.053 -0.8944 -0.2045 -0.7186
 7225TIP3   OH221638   0.665   2.305   0.639  0.3057  0.6708  0.0237
 7225TIP3    H121639   0.608   2.299   0.715  0.9670  1.1294  0.5614
 7225TIP3    H221640   0.745   2.346   0.671  0.5069  1.0891 -0.9617
 7226TIP3   OH221641   0.137   6.315   0.953  0.0562  0.3944  0.5571
 7226TIP3    H121642   0.082   6.238   0.936 -0.5124  0.9753 -0.2836
 7226TIP3    H221643   0.226   6.280   0.955 -0.1752 -0.2581 -0.0454
 7227TIP3   OH221644   3.482   6.699   0.476 -0.2983  0.5377  0.6404
 7227TIP3    H121645   3.458   6.620   0.525  2.0309  0.6797  2.1619
 7227TIP3    H221646   3.399   6.730   0.438 -1.0792 -3.4237 -1.3415
 7228TIP3   OH221647   2.397   3.040   3.067 -0.3140  0.0634  0.3350
 7228TIP3    H121648   2.357   2.953   3.070 -0.0316 -0.0668  3.3812
 7228TIP3    H221649   2.486   3.025   3.037 -0.4758 -0.5863  0.1623
 7229TIP3   OH221650   3.218   4.649   5.752 -0.2872 -0.0145 -0.6456
 7229TIP3    H121651   3.184   4.623   5.837 -4.8729 -0.6364 -2.3639
 7229TIP3    H221652   3.215   4.744   5.752  0.5964  0.0268  0.1104
 7230TIP3   OH221653   2.892   2.460   0.412 -0.2674  0.6363  0.2958
 7230TIP3    H121654   2.841   2.398   0.464  1.1824  0.6786  1.8582
 7230TIP3    H221655   2.980   2.458   0.452  1.1210  0.2281 -2.5384
 7231TIP3   OH221656   6.882   4.595   1.179 -0.6852 -0.1218 -0.7760
 7231TIP3    H121657   6.910   4.580   1.088  0.1614  0.4052 -0.6092
 7231TIP3    H221658   6.901   4.688   1.194 -0.0735 -0.3942  0.1922
 7232TIP3   OH221659   7.167   0.571   2.104  0.1011  0.7943  0.0803
 7232TIP3    H121660   7.234   0.638   2.116 -0.4958  1.4039  0.0456
 7232TIP3    H221661   7.160   0.528   2.189  1.3111 -0.0194 -0.2075
 7233TIP3   OH221662   6.491   1.872   5.241 -0.1320 -0.4521 -0.1245
 7233TIP3    H121663   6.543   1.871   5.321 -0.6944 -0.2585  0.2511
 7233TIP3    H221664   6.413   1.820   5.263 -1.3754  1.4712  0.2098
 7234TIP3   OH221665   0.091   5.944   4.667  0.7689  0.2080  0.0178
 7234TIP3    H121666   0.184   5.927   4.657  0.5233 -1.2469  0.0367
 7234TIP3    H221667   0.085   6.040   4.675  2.4840  0.2282  2.2809
 7235TIP3   OH221668   1.572   4.356   5.848 -0.6558  0.2781 -0.1115
 7235TIP3    H121669   1.590   4.302   5.771  1.0254 -0.5363  0.8145
 7235TIP3    H221670   1.534   4.436   5.812 -0.4897 -0.3349 -1.7403
 7236TIP3   OH221671   4.820   5.248   4.159  0.4190 -0.2185  0.1797
 7236TIP3    H121672   4.908   5.220   4.133  0.3612 -0.7015  0.4794
 7236TIP3    H221673   4.786   5.174   4.210 -0.6483 -0.5653 -0.9897
 7237TIP3   OH221674   0.737   2.488   3.771 -0.2100  0.1687 -0.6439
 7237TIP3    H121675   0.659   2.542   3.784  0.1079  0.9335 -1.7188
 7237TIP3    H221676   0.807   2.537   3.814 -0.1471 -0.0168 -0.5366
 7238TIP3   OH221677   2.558   3.173   4.974 -0.0159 -0.3161 -0.0685
 7238TIP3    H121678   2.610   3.149   5.051  0.9690 -0.6302 -0.8106
 7238TIP3    H221679   2.521   3.258   4.995  0.5311 -0.2390  0.6164
 7239TIP3   OH221680   3.063   4.380   1.132  0.2334 -0.3093  0.2048
 7239TIP3    H121681   3.103   4.319   1.070 -0.2609  1.4122 -1.9393
 7239TIP3    H221682   2.969   4.365   1.122  0.0256  1.6481 -1.4038
 7240TIP3   OH221683   1.994   4.566   2.253  0.2325 -0.4937  0.1415
 7240TIP3    H121684   2.074   4.540   2.297  0.9035  0.6248 -0.3572
 7240TIP3    H221685   1.959   4.637   2.307  2.0305  2.1779 -1.9091
 7241TIP3   OH221686   3.919   2.768   3.072 -0.5369 -0.4874  0.0039
 7241TIP3    H121687   3.876   2.691   3.109 -1.3171 -0.1499 -0.1827
 7241TIP3    H221688   4.005   2.770   3.115 -0.6728 -1.2128  0.3289
 7242TIP3   OH221689   0.229   1.148   4.912 -0.6142 -0.0859  0.2351
 7242TIP3    H121690   0.164   1.077   4.906 -2.5944  1.5396  1.0656
 7242TIP3    H221691   0.268   1.136   4.999 -2.3162  0.8619  1.1923
 7243TIP3   OH221692   4.775   0.690   1.799  0.5449  0.1199  0.0645
 7243TIP3    H121693   4.761   0.748   1.724 -2.3128 -0.5350 -0.0210
 7243TIP3    H221694   4.742   0.739   1.874  0.9902 -0.2261  0.4966
 7244TIP3   OH221695   6.386   3.118   4.068 -0.0378  0.0870 -0.4421
 7244TIP3    H121696   6.416   3.079   4.150 -0.3854  1.2033  0.2362
 7244TIP3    H221697   6.341   3.047   4.022  0.4526 -0.6360  0.1679
 7245TIP3   OH221698   1.567   0.674   3.725 -0.3476  0.1958 -0.5181
 7245TIP3    H121699   1.604   0.731   3.792 -1.2853  0.9721 -0.6371
 7245TIP3    H221700   1.634   0.671   3.657  1.2733 -1.8036  1.0437
 7246TIP3   OH221701   2.703   4.710   5.337  0.1281 -0.3212  0.2102
 7246TIP3    H121702   2.779   4.682   5.388 -0.3005 -0.9454  0.5196
 7246TIP3    H221703   2.717   4.804   5.322  0.1920 -0.0861  1.6002
 7247TIP3   OH221704   1.353   4.863   3.994  0.1134 -0.6081 -0.2086
 7247TIP3    H121705   1.305   4.908   4.063 -0.2103  0.1479 -0.9041
 7247TIP3    H221706   1.437   4.909   3.989 -0.3881  0.2528 -1.2206
 7248TIP3   OH221707   5.833   1.882   4.631 -0.3738  0.2951 -0.2946
 7248TIP3    H121708   5.914   1.866   4.680 -0.3933  0.5149 -0.1904
 7248TIP3    H221709   5.806   1.970   4.658  0.6717  1.2635 -2.1770
 7249TIP3   OH221710   5.292   2.387   5.266  0.0446  0.2455 -0.3462
 7249TIP3    H121711   5.223   2.432   5.316 -1.1151 -1.2026 -0.5592
 7249TIP3    H221712   5.276   2.411   5.175  0.1801  0.3696 -0.3373
 7250TIP3   OH221713   0.246   4.555   5.542  0.1314  0.4047  0.2177
 7250TIP3    H121714   0.161   4.530   5.578 -0.5813  1.5327 -0.6048
 7250TIP3    H221715   0.293   4.595   5.615 -0.3853  0.5655  0.4645
 7251TIP3   OH221716   3.383   3.072   0.975  0.3811 -0.5930 -0.5993
 7251TIP3    H121717   3.405   3.093   1.066 -1.8330 -2.0403  0.3371
 7251TIP3    H221718   3.375   3.158   0.932  1.5887  0.1030  0.5129
 7252TIP3   OH221719   7.138   2.577   2.760  0.1183 -0.3072  0.1093
 7252TIP3    H121720   7.226   2.568   2.798  0.6514 -0.1607 -1.0435
 7252TIP3    H221721   7.106   2.661   2.794  0.7405  0.0055 -0.0610
 7253TIP3   OH221722   7.085   0.771   3.447 -0.5245  0.7834 -0.0505
 7253TIP3    H121723   7.037   0.810   3.520 -0.6568  0.5467 -0.0106
 7253TIP3    H221724   7.166   0.822   3.441 -0.7189  1.0933 -0.0291
 7254TIP3   OH221725   0.260   0.504   2.712 -0.2411  0.1776 -0.0468
 7254TIP3    H121726   0.227   0.566   2.777 -1.2033 -1.0618  0.6799
 7254TIP3    H221727   0.313   0.442   2.763 -0.1238 -0.1892 -0.6083
 7255TIP3   OH221728   6.708   3.429   2.118  0.0518  0.0123  0.1806
 7255TIP3    H121729   6.704   3.471   2.033  0.5945 -2.4581 -1.1655
 7255TIP3    H221730   6.664   3.490   2.178 -1.6891  1.1567 -2.1241
 7256TIP3   OH221731   6.219   2.303   0.043 -0.2434 -0.1897  0.3443
 7256TIP3    H121732   6.174   2.307  -0.042  0.9181 -1.2949 -0.3426
 7256TIP3    H221733   6.235   2.395   0.066 -0.2664  0.1092 -0.7953
 7257TIP3   OH221734   1.628   4.827   0.501 -0.2139 -0.2682 -0.0885
 7257TIP3    H121735   1.633   4.735   0.476 -1.8263 -0.3017 -0.3672
 7257TIP3    H221736   1.670   4.874   0.428  1.7018 -0.8139  0.6014
 7258TIP3   OH221737   5.058   2.610   0.792 -0.2498  0.3701 -0.2935
 7258TIP3    H121738   5.098   2.594   0.877 -1.3921 -2.2364 -0.1480
 7258TIP3    H221739   4.991   2.542   0.784 -0.3057  0.6458 -3.1911
 7259TIP3   OH221740   3.423   3.419   2.267 -0.0351 -0.4357 -0.0328
 7259TIP3    H121741   3.429   3.405   2.362  1.8031  1.2981  0.1917
 7259TIP3    H221742   3.413   3.514   2.258 -0.5027 -0.6057 -1.5925
 7260TIP3   OH221743   5.415   1.717   1.223  0.7032 -0.1607 -0.9290
 7260TIP3    H121744   5.463   1.736   1.304 -1.1135  0.6230  0.0316
 7260TIP3    H221745   5.338   1.668   1.252 -0.9333  1.7167 -1.9269
 7261TIP3   OH221746   2.448   1.622   4.925  0.1250 -0.2480 -0.0817
 7261TIP3    H121747   2.452   1.712   4.892 -2.7405 -0.0532 -0.1713
 7261TIP3    H221748   2.441   1.631   5.020  2.1076 -0.5263  0.1213
 7262TIP3   OH221749   5.495   0.511   5.663 -0.1557  0.3961 -0.6928
 7262TIP3    H121750   5.576   0.467   5.639  0.6128  1.5371 -0.2587
 7262TIP3    H221751   5.479   0.573   5.593  0.9462  2.2197  0.5777
 7263TIP3   OH221752   3.001   4.364   2.921 -0.1396 -0.3270  0.0313
 7263TIP3    H121753   3.075   4.370   2.861  1.8862  0.1712  2.4258
 7263TIP3    H221754   2.981   4.455   2.945  0.7977 -0.5934  2.0090
 7264TIP3   OH221755   1.255   5.287   4.352 -0.1844  0.3041 -0.2344
 7264TIP3    H121756   1.346   5.260   4.362 -0.4070 -0.2558  0.3268
 7264TIP3    H221757   1.208   5.239   4.420 -1.0326 -0.0896 -1.0674
 7265TIP3   OH221758   2.374   5.920   1.755  0.0611 -0.3892  0.0632
 7265TIP3    H121759   2.441   5.863   1.718  0.2744  0.0611 -0.2591
 7265TIP3    H221760   2.407   5.943   1.842  1.3572  1.4859 -0.8599
 7266TIP3   OH221761   6.937   3.593   3.545  0.0590 -0.0066  0.4766
 7266TIP3    H121762   6.966   3.532   3.477  0.0112 -0.8016  1.1657
 7266TIP3    H221763   6.899   3.538   3.613 -2.9304  0.9583 -0.2740
 7267TIP3   OH221764   4.098   1.557   1.253  0.0491  0.2523  0.7066
 7267TIP3    H121765   4.079   1.522   1.340 -0.7182  1.7385  1.1628
 7267TIP3    H221766   4.117   1.479   1.200 -2.6755 -1.0004  1.3869
 7268TIP3   OH221767   6.856   2.055   4.213  0.0904 -0.5130  0.1542
 7268TIP3    H121768   6.837   2.060   4.307 -0.0463  0.3317  0.0950
 7268TIP3    H221769   6.893   2.141   4.192 -1.3120 -0.1217 -0.8634
 7269TIP3   OH221770   1.046   6.439   4.204  0.4123  0.0975  0.7952
 7269TIP3    H121771   1.084   6.526   4.216  0.5015  0.8588 -3.3291
 7269TIP3    H221772   1.110   6.393   4.150 -1.1729 -1.2730  0.0142
 7270TIP3   OH221773   7.009   4.732   1.768 -0.0526 -0.4505  0.1082
 7270TIP3    H121774   7.068   4.799   1.799  0.1238  0.0587 -1.2546
 7270TIP3    H221775   6.980   4.762   1.682 -2.1812 -0.7470  0.6387
 7271TIP3   OH221776   3.379   4.972   2.693 -0.3653 -0.1445 -0.3051
 7271TIP3    H121777   3.340   4.916   2.626 -0.2182 -0.3953 -0.1863
 7271TIP3    H221778   3.463   4.930   2.713 -0.3665 -0.0201 -0.0322
 7272TIP3   OH221779   6.565   0.470   4.941 -0.1795  0.2032 -0.4757
 7272TIP3    H121780   6.559   0.455   4.846 -2.4905 -2.6043 -0.0081
 7272TIP3    H221781   6.516   0.552   4.954 -1.7757 -0.5179 -1.5387
 7273TIP3   OH221782   6.011   4.289   1.375 -0.0898  0.0138  0.4231
 7273TIP3    H121783   6.071   4.343   1.427  1.7393 -1.3801 -0.1322
 7273TIP3    H221784   6.058   4.207   1.362 -1.7231 -0.7670 -0.9448
 7274TIP3   OH221785   0.983   2.813   0.302  0.0287  0.1477 -0.2635
 7274TIP3    H121786   1.066   2.860   0.309 -0.3096  0.7062  0.0649
 7274TIP3    H221787   0.916   2.881   0.298 -0.4171 -0.2932 -0.5801
 7275TIP3   OH221788   6.971   6.390   0.114 -0.0389 -0.2267  0.0084
 7275TIP3    H121789   7.022   6.372   0.035  2.6331  1.0830  1.2810
 7275TIP3    H221790   6.970   6.307   0.161 -1.8812 -1.0851 -1.4496
 7276TIP3   OH221791   6.477   2.923   1.049  0.6827  0.4232 -0.3770
 7276TIP3    H121792   6.534   2.959   1.117 -0.3471  1.5053 -0.0602
 7276TIP3    H221793   6.478   2.990   0.980  1.1149 -0.3250 -1.1177
 7277TIP3   OH221794   2.389   6.381   2.788  0.2751  0.2056 -0.0817
 7277TIP3    H121795   2.307   6.372   2.740 -1.4953 -2.6830  3.0425
 7277TIP3    H221796   2.440   6.305   2.763 -0.8799 -1.6271  2.6141
 7278TIP3   OH221797   0.865   0.056   3.226 -0.0918 -0.1129  0.1628
 7278TIP3    H121798   0.816  -0.018   3.189 -2.5196  1.3902  0.1224
 7278TIP3    H221799   0.913   0.019   3.300 -2.2210 -1.5476  0.9348
 7279TIP3   OH221800   2.154   4.081   4.551 -0.1311  0.0443 -0.0611
 7279TIP3    H121801   2.172   4.174   4.555 -0.2047  0.1254 -1.2867
 7279TIP3    H221802   2.059   4.076   4.538  0.1983 -0.0780 -2.9215
 7280TIP3   OH221803   1.593   3.029   5.086 -0.0843 -0.8590  0.7534
 7280TIP3    H121804   1.519   3.090   5.091 -0.7535 -1.5443 -0.4518
 7280TIP3    H221805   1.670   3.084   5.101 -0.7893 -0.0608  1.5896
 7281TIP3   OH221806   4.468   3.701   1.456 -0.0335  0.0522  0.4630
 7281TIP3    H121807   4.541   3.641   1.470  0.4825  0.5292 -0.1832
 7281TIP3    H221808   4.508   3.788   1.454 -0.3822  0.2091 -1.5448
 7282TIP3   OH221809   1.211   0.257   5.186 -0.7205 -0.3246  0.1395
 7282TIP3    H121810   1.178   0.242   5.275  0.8313 -1.5835  0.5445
 7282TIP3    H221811   1.159   0.199   5.131 -1.3634  0.1090  0.2760
 7283TIP3   OH221812   1.111   4.474   5.718 -0.0139  0.1017 -0.8816
 7283TIP3    H121813   1.142   4.396   5.763  1.2566  0.7582 -0.5794
 7283TIP3    H221814   1.136   4.460   5.626 -0.8273 -0.3560 -1.0369
 7284TIP3   OH221815   5.598   1.410   2.969  0.3213 -0.0072 -0.2207
 7284TIP3    H121816   5.519   1.407   2.915  1.3355  0.5107 -1.7779
 7284TIP3    H221817   5.613   1.319   2.994 -1.2435 -0.0099  0.8615
 7285TIP3   OH221818   7.100   1.388   2.727 -0.6386  0.0303 -0.1504
 7285TIP3    H121819   7.173   1.428   2.775 -0.6100  0.7276 -0.7499
 7285TIP3    H221820   7.138   1.363   2.643 -1.5824  2.6940 -1.5070
 7286TIP3   OH221821   2.777   4.394   0.020  0.1343  0.3840  0.1604
 7286TIP3    H121822   2.822   4.309   0.016 -0.7154 -0.0352 -0.8464
 7286TIP3    H221823   2.845   4.455   0.049  1.5463 -0.1196 -1.8325
 7287TIP3   OH221824   0.852   5.128   2.826 -0.0761 -0.1544  0.2406
 7287TIP3    H121825   0.861   5.219   2.852  0.5198  0.2735 -1.3427
 7287TIP3    H221826   0.907   5.120   2.748  0.3973 -2.0331  0.7184
 7288TIP3   OH221827   1.081   2.661   3.682  0.9512  0.0819  0.1964
 7288TIP3    H121828   1.059   2.701   3.598 -0.3675 -0.4627  0.2518
 7288TIP3    H221829   1.058   2.727   3.747  3.4331  1.1199  0.1112
 7289TIP3   OH221830   6.048   3.787   5.020  0.0954  0.3187  0.4559
 7289TIP3    H121831   6.120   3.787   4.958  0.7607 -0.6312  1.2015
 7289TIP3    H221832   6.062   3.866   5.073  0.5896  0.1547  0.5791
 7290TIP3   OH221833   6.184   5.179   4.468  0.7923 -0.0704  0.4538
 7290TIP3    H121834   6.174   5.220   4.554 -2.1457  0.5957 -0.0848
 7290TIP3    H221835   6.214   5.250   4.411  0.0724  0.2042  0.4088
 7291TIP3   OH221836   2.417   6.695   3.706  0.0739  0.0428 -0.3823
 7291TIP3    H121837   2.471   6.733   3.636 -1.6339 -0.2028 -1.9090
 7291TIP3    H221838   2.343   6.656   3.660  1.3818 -4.8263  1.0077
 7292TIP3   OH221839   1.340   2.311   4.668 -0.2096  0.4396  0.5309
 7292TIP3    H121840   1.380   2.255   4.602 -1.2668  1.4596 -1.0276
 7292TIP3    H221841   1.384   2.286   4.750  1.0162 -0.9665 -0.4968
 7293TIP3   OH221842   1.019   1.725   2.365  0.2206  0.1022 -0.0013
 7293TIP3    H121843   0.944   1.714   2.423  0.7755 -0.7498  0.5692
 7293TIP3    H221844   0.989   1.789   2.300  0.3006  2.8264  2.4438
 7294TIP3   OH221845   0.810   1.636   2.030  0.1951  0.0878 -0.5082
 7294TIP3    H121846   0.716   1.649   2.035  0.2337  0.7300 -1.2153
 7294TIP3    H221847   0.824   1.548   2.063 -0.5134  0.4511  0.8088
 7295TIP3   OH221848   7.138   6.286   3.835  0.6672 -1.0561  0.2759
 7295TIP3    H121849   7.074   6.355   3.815  0.2087 -1.6550 -0.4317
 7295TIP3    H221850   7.113   6.214   3.776  1.7829 -1.4338  0.2456
 7296TIP3   OH221851   0.650   6.159   3.275 -0.2822  0.2357 -0.2029
 7296TIP3    H121852   0.711   6.163   3.349  0.1733 -0.0955 -0.5522
 7296TIP3    H221853   0.568   6.126   3.313 -0.1929  0.5223  0.2411
 7297TIP3   OH221854   6.980   0.824   1.355  0.1768 -0.0149 -0.0587
 7297TIP3    H121855   6.914   0.894   1.359 -0.0411 -0.2397  0.3821
 7297TIP3    H221856   6.928   0.743   1.353  0.3431 -0.1507 -2.9364
 7298TIP3   OH221857   5.340   1.279   3.822  0.1923 -0.0230 -0.0195
 7298TIP3    H121858   5.265   1.277   3.763 -0.3581 -0.8442  0.6835
 7298TIP3    H221859   5.319   1.214   3.889  2.0437 -1.0773 -0.4174
 7299TIP3   OH221860   5.276   3.035   5.389  0.3976 -0.0212  0.4668
 7299TIP3    H121861   5.307   3.091   5.460  1.0347  1.4024 -0.8767
 7299TIP3    H221862   5.356   2.994   5.354  0.1983 -0.0441  0.0281
 7300TIP3   OH221863   1.048   5.089   4.406 -0.0072  0.2384 -0.1791
 7300TIP3    H121864   0.996   5.091   4.487  1.6220  1.3252  0.8969
 7300TIP3    H221865   0.990   5.125   4.339 -1.1736 -0.1070  0.6221
 7301TIP3   OH221866   5.008   3.444   0.391 -0.0719 -0.0960  0.0433
 7301TIP3    H121867   5.033   3.417   0.303  0.4875 -0.3926  0.2851
 7301TIP3    H221868   5.064   3.392   0.449 -1.1982 -0.7227  0.6106
 7302TIP3   OH221869   2.947   2.818   4.576 -0.3559 -0.4555  0.1308
 7302TIP3    H121870   2.915   2.840   4.664 -3.4274  0.7492 -1.1176
 7302TIP3    H221871   2.971   2.726   4.581  0.0346 -0.2839  2.3419
 7303TIP3   OH221872   3.138   2.302   0.243  0.3839  0.0790 -0.6405
 7303TIP3    H121873   3.148   2.395   0.263 -0.3553  0.0378 -0.0151
 7303TIP3    H221874   3.202   2.285   0.174  2.4007  0.4530  1.0493
 7304TIP3   OH221875   2.595   2.949   1.330 -0.0287  0.1911 -0.4564
 7304TIP3    H121876   2.588   2.854   1.318  0.6923  0.0982 -0.1625
 7304TIP3    H221877   2.507   2.975   1.359 -0.4575 -0.2601 -1.3032
 7305TIP3   OH221878   0.669   3.606   0.850  0.4127  0.1476 -0.2866
 7305TIP3    H121879   0.712   3.690   0.836 -1.2064  1.2648  1.0550
 7305TIP3    H221880   0.740   3.546   0.872  1.6457  1.0306 -1.6725
 7306TIP3   OH221881   2.246   3.651   3.335  0.1135 -0.0221 -0.0905
 7306TIP3    H121882   2.214   3.581   3.279  1.1602  0.9505 -2.0365
 7306TIP3    H221883   2.341   3.651   3.321  0.1339  1.8272 -0.2608
 7307TIP3   OH221884   1.223   3.613   3.541 -0.4796 -0.3009  0.7169
 7307TIP3    H121885   1.310   3.649   3.523 -0.0208  1.1827  4.7341
 7307TIP3    H221886   1.190   3.666   3.614 -2.0661 -4.5800  3.5449
 7308TIP3   OH221887   1.374   0.962   2.787  0.1827 -0.0577 -0.0627
 7308TIP3    H121888   1.351   1.049   2.819  0.1816  0.0112 -0.2492
 7308TIP3    H221889   1.448   0.935   2.842 -0.8381 -0.6253  1.0830
 7309TIP3   OH221890   6.665   5.423   1.338 -0.4007 -0.3981 -0.2016
 7309TIP3    H121891   6.617   5.371   1.274  1.5847 -1.9533 -0.5104
 7309TIP3    H221892   6.755   5.423   1.307  0.4267 -0.2814  1.9942
 7310TIP3   OH221893   3.060   6.607   0.766  0.4773 -0.2477  0.3830
 7310TIP3    H121894   2.983   6.586   0.713  0.3550  1.0610  0.0023
 7310TIP3    H221895   3.026   6.662   0.837  0.7626 -1.3409  1.3975
 7311TIP3   OH221896   5.838   4.212   0.490  0.5035  0.5268 -0.2783
 7311TIP3    H121897   5.892   4.136   0.469 -0.8764 -0.7711  0.6470
 7311TIP3    H221898   5.863   4.236   0.580 -0.7709 -0.4102  0.3519
 7312TIP3   OH221899   1.391   1.367   5.567  0.1939 -0.1508  0.7172
 7312TIP3    H121900   1.345   1.330   5.642 -0.5875  0.9060  0.7836
 7312TIP3    H221901   1.381   1.302   5.498 -1.2891 -0.0221  0.7767
 7313TIP3   OH221902   6.988   6.122   0.146  0.4536  0.7007 -0.3303
 7313TIP3    H121903   6.952   6.062   0.081  0.0656 -0.3504  0.8191
 7313TIP3    H221904   7.082   6.102   0.148  0.1916 -0.5647  0.7073
 7314TIP3   OH221905   6.139   1.728   0.761 -0.2287  0.2248 -0.2062
 7314TIP3    H121906   6.099   1.653   0.717  0.9348 -1.2207  1.0920
 7314TIP3    H221907   6.070   1.764   0.816 -0.3419 -1.0027  0.4877
 7315TIP3   OH221908   4.199   3.119   5.737 -0.1329 -0.2949  0.2457
 7315TIP3    H121909   4.144   3.052   5.775  0.7992 -0.9488  0.4752
 7315TIP3    H221910   4.154   3.201   5.756 -0.5422 -0.7404  1.2717
 7316TIP3   OH221911   5.106   4.329   5.148  0.1558 -0.6160 -0.1659
 7316TIP3    H121912   5.163   4.373   5.085  1.5191 -0.6944  0.9753
 7316TIP3    H221913   5.142   4.351   5.234 -2.3029  0.3985  0.7003
 7317TIP3   OH221914   3.613   3.234   2.501  0.0263 -0.2957 -0.5767
 7317TIP3    H121915   3.544   3.168   2.508 -1.0637  0.3613 -3.6689
 7317TIP3    H221916   3.573   3.314   2.534  0.7752 -0.7383  1.5392
 7318TIP3   OH221917   1.137   1.027   4.119  0.0276  0.0934 -0.3721
 7318TIP3    H121918   1.111   0.938   4.099 -0.6625  0.3341 -0.5719
 7318TIP3    H221919   1.160   1.025   4.212 -0.3175 -0.2170 -0.2897
 7319TIP3   OH221920   5.353   1.657   3.406 -0.1104  0.2992  0.1532
 7319TIP3    H121921   5.299   1.646   3.484  0.0546  0.5788  0.3110
 7319TIP3    H221922   5.314   1.731   3.360 -0.1857  0.1577 -0.0093
 7320TIP3   OH221923   6.340   5.787   2.161 -0.1313  0.0878 -1.0156
 7320TIP3    H121924   6.360   5.709   2.109  1.3220  0.7486 -1.5168
 7320TIP3    H221925   6.260   5.822   2.122 -2.2244 -2.3751  0.7080
 7321TIP3   OH221926   6.722   4.350   5.828 -0.4226 -0.5374 -0.1558
 7321TIP3    H121927   6.715   4.416   5.897  0.3273  0.4398 -0.9868
 7321TIP3    H221928   6.757   4.272   5.872 -2.0763 -0.6974  1.0070
 7322TIP3   OH221929   3.217   6.723   5.609 -0.1194 -0.0171  0.2774
 7322TIP3    H121930   3.178   6.693   5.527  0.3036 -1.0891  0.4575
 7322TIP3    H221931   3.160   6.688   5.677 -1.1412  1.8427  0.4504
 7323TIP3   OH221932   0.496   6.405   1.237  0.4900 -0.2888  0.1871
 7323TIP3    H121933   0.587   6.409   1.207  0.3419  0.2887 -0.2217
 7323TIP3    H221934   0.502   6.392   1.332  0.9733 -1.7109 -0.0272
 7324TIP3   OH221935   2.577   2.024   3.607  0.3305  0.1600 -0.5604
 7324TIP3    H121936   2.615   1.973   3.679  0.5212 -0.7906 -1.3186
 7324TIP3    H221937   2.633   2.006   3.532  0.3745  1.4710 -0.8712
 7325TIP3   OH221938   6.721   3.147   1.451 -0.1766  0.0081 -0.0596
 7325TIP3    H121939   6.742   3.187   1.535 -1.7059  0.8191 -0.0171
 7325TIP3    H221940   6.731   3.053   1.466  1.0319  0.2251  0.5772
 7326TIP3   OH221941   3.841   4.095   3.045  0.2151 -0.0382 -0.2685
 7326TIP3    H121942   3.812   4.014   3.003  1.2339 -0.7204  0.3064
 7326TIP3    H221943   3.778   4.109   3.116  0.5285 -0.8118  0.1742
 7327TIP3   OH221944   1.652   2.553   3.074  0.5396 -0.0976  0.3829
 7327TIP3    H121945   1.640   2.461   3.049 -2.5366 -0.5339  2.8705
 7327TIP3    H221946   1.745   2.560   3.095  1.1820 -2.1717 -1.3889
 7328TIP3   OH221947   3.881   6.384   4.248  0.5506  0.2553 -0.5195
 7328TIP3    H121948   3.817   6.400   4.179 -0.4234 -1.7132 -0.1621
 7328TIP3    H221949   3.860   6.447   4.316 -0.6028  0.0847 -0.6987
 7329TIP3   OH221950   2.872   3.416   1.914  0.0452 -0.4792 -0.3538
 7329TIP3    H121951   2.880   3.410   1.819 -3.9048  0.3706 -0.9142
 7329TIP3    H221952   2.942   3.475   1.940 -0.4156  1.5541 -3.1857
 7330TIP3   OH221953   3.244   0.856   5.566  0.2934 -0.1953  0.3367
 7330TIP3    H121954   3.286   0.770   5.561  0.7009  0.0308 -0.2818
 7330TIP3    H221955   3.316   0.919   5.564 -0.0693  0.2323 -1.9436
 7331TIP3   OH221956   5.398   6.539   4.976  0.4413  0.0729  0.2374
 7331TIP3    H121957   5.302   6.540   4.981  0.4483  0.1880  0.3436
 7331TIP3    H221958   5.417   6.477   4.905  0.3764 -2.2076  2.0861
 7332TIP3   OH221959   4.605   2.720   4.129 -0.0678 -0.6174  0.0101
 7332TIP3    H121960   4.530   2.779   4.131  0.3865  0.0087 -0.6576
 7332TIP3    H221961   4.638   2.720   4.219 -0.3917 -0.2785  0.1323
 7333TIP3   OH221962   0.829   5.866   4.476  0.0933  0.0187  0.1384
 7333TIP3    H121963   0.920   5.893   4.469  0.1020 -0.0703 -0.0949
 7333TIP3    H221964   0.831   5.792   4.537  0.2202 -0.1875 -0.1150
 7334TIP3   OH221965   5.635   5.481   5.772 -0.0035 -0.0919 -0.3130
 7334TIP3    H121966   5.637   5.547   5.841  0.0790 -1.5867  1.1925
 7334TIP3    H221967   5.545   5.482   5.739 -0.2031  0.2375  0.2325
 7335TIP3   OH221968   0.214   6.030   2.296  0.2115  0.1450 -0.6479
 7335TIP3    H121969   0.234   5.945   2.334  0.7902 -0.2440 -1.7716
 7335TIP3    H221970   0.295   6.080   2.304  0.2282  0.1826 -1.0412
 7336TIP3   OH221971   3.657   0.894   5.197 -0.9922  0.5606  0.4995
 7336TIP3    H121972   3.709   0.972   5.215  0.2777 -0.4603  1.5122
 7336TIP3    H221973   3.654   0.848   5.281 -2.5152 -0.0241  0.1469
 7337TIP3   OH221974   4.925   5.312   0.787 -0.0981 -0.1338 -0.2195
 7337TIP3    H121975   5.009   5.269   0.798 -0.1370 -0.7382 -1.9332
 7337TIP3    H221976   4.936   5.398   0.828  1.3044 -0.2614 -0.2837
 7338TIP3   OH221977   0.760   2.143   4.393 -0.1856 -0.0561 -0.1233
 7338TIP3    H121978   0.666   2.147   4.411 -0.2776 -0.6544 -0.4434
 7338TIP3    H221979   0.787   2.234   4.386 -0.9446  0.1123 -1.0928
 7339TIP3   OH221980   0.566   3.383   5.066  0.1230 -0.0888  0.2219
 7339TIP3    H121981   0.569   3.289   5.085 -1.7969 -0.1466  0.4571
 7339TIP3    H221982   0.522   3.388   4.981 -0.0947  0.5995  0.3722
 7340TIP3   OH221983   6.389   0.561   1.438  0.5489 -0.0553 -0.5576
 7340TIP3    H121984   6.446   0.572   1.362  0.5736 -0.4799 -0.6056
 7340TIP3    H221985   6.318   0.505   1.407  1.4270 -1.6334  0.1466
 7341TIP3   OH221986   4.273   6.432   2.407 -0.0618 -0.0913  0.4012
 7341TIP3    H121987   4.195   6.398   2.362 -0.1881  2.1723 -1.2571
 7341TIP3    H221988   4.241   6.462   2.492 -1.4211  2.2070 -0.8232
 7342TIP3   OH221989   6.135   4.365   4.545 -0.5805  0.2821 -0.0187
 7342TIP3    H121990   6.162   4.332   4.459 -0.8012  0.6945 -0.2538
 7342TIP3    H221991   6.081   4.441   4.524  0.6746  1.3580  0.5085
 7343TIP3   OH221992   7.107   6.593   5.261  0.1696 -0.0533  0.1101
 7343TIP3    H121993   7.091   6.532   5.333 -2.1256  0.0322 -0.2602
 7343TIP3    H221994   7.077   6.678   5.294 -0.4710  0.0755 -0.7656
 7344TIP3   OH221995   4.940   5.319   3.036 -0.2704  0.0463 -0.0307
 7344TIP3    H121996   4.927   5.404   2.994  0.1065 -0.4671 -1.2614
 7344TIP3    H221997   4.856   5.275   3.026  0.2548 -0.6644 -1.7296
 7345TIP3   OH221998   1.476   3.577   2.359  0.7122 -0.1833  0.0286
 7345TIP3    H121999   1.511   3.659   2.395 -0.1178  0.2457 -0.1141
 7345TIP3    H222000   1.437   3.603   2.275  0.9287 -0.8295 -0.2830
 7346TIP3   OH222001   2.919   4.938   2.324  0.2414  0.2467 -0.7267
 7346TIP3    H122002   2.862   5.014   2.314  0.7064  0.6547 -0.3669
 7346TIP3    H222003   2.861   4.868   2.353  0.1277  1.0244  1.0864
 7347TIP3   OH222004   3.205   0.068   1.606 -0.2280 -0.1219 -0.2288
 7347TIP3    H122005   3.178   0.151   1.567 -1.9323 -0.6804 -0.3187
 7347TIP3    H222006   3.276   0.038   1.550  0.2625  1.1492 -0.3330
 7348TIP3   OH222007   0.879   3.232   4.745  0.1282 -0.4157  0.5466
 7348TIP3    H122008   0.830   3.155   4.717 -0.6318 -0.2068  1.2590
 7348TIP3    H222009   0.927   3.203   4.823  0.9618 -0.5504 -0.0022
 7349TIP3   OH222010   4.973   2.901   4.384 -0.2816  0.4365  0.5602
 7349TIP3    H122011   4.983   2.965   4.314  0.2842  0.5344  0.7212
 7349TIP3    H222012   4.966   2.954   4.464  0.5110  0.2996  0.7291
 7350TIP3   OH222013   2.547   2.498   0.193 -0.0922  0.6490 -0.0720
 7350TIP3    H122014   2.483   2.535   0.132  0.0514  0.6094 -0.2449
 7350TIP3    H222015   2.574   2.573   0.247  0.3481  0.8409 -0.5540
 7351TIP3   OH222016   1.980   5.951   0.009 -0.1695  0.1743  0.6327
 7351TIP3    H122017   2.012   5.894   0.079 -2.0585  1.3526  2.5875
 7351TIP3    H222018   1.888   5.926  -0.002  0.4206 -0.9761 -2.5482
 7352TIP3   OH222019   6.286   6.244   3.481 -0.1246  0.1146 -0.6623
 7352TIP3    H122020   6.282   6.176   3.414  0.6325  1.2046 -1.8419
 7352TIP3    H222021   6.206   6.231   3.532 -0.7617 -0.6912 -1.8150
 7353TIP3   OH222022   1.328   3.407   1.784 -0.2965  0.6144  0.0207
 7353TIP3    H122023   1.295   3.331   1.832 -0.3590  0.5581 -0.1086
 7353TIP3    H222024   1.362   3.466   1.851 -2.6495  1.6771  0.3708
 7354TIP3   OH222025   4.107   5.785   3.716  0.2447  0.3869 -0.3712
 7354TIP3    H122026   4.169   5.760   3.784 -0.1589  0.5328  0.0616
 7354TIP3    H222027   4.073   5.702   3.683 -0.3414  0.3237  0.3529
 7355TIP3   OH222028   3.807   5.189   0.827 -0.3106 -0.7076  0.1670
 7355TIP3    H122029   3.758   5.270   0.840  1.4784  0.2640  1.4402
 7355TIP3    H222030   3.898   5.214   0.843  0.2003 -3.1958  1.7997
 7356TIP3   OH222031   6.768   1.741   5.015  0.7553 -0.0685  0.5220
 7356TIP3    H122032   6.789   1.786   5.097 -1.2380 -0.6411  1.4080
 7356TIP3    H222033   6.749   1.651   5.041  0.3188 -0.3198 -0.6107
 7357TIP3   OH222034   6.577   0.133   0.280  0.0012  0.4501  0.1162
 7357TIP3    H122035   6.568   0.220   0.241  0.4647  0.6128  0.3595
 7357TIP3    H222036   6.658   0.099   0.244  0.0043  0.2624  0.2975
 7358TIP3   OH222037   3.691   2.656   0.641  0.6117 -0.2566  0.0281
 7358TIP3    H122038   3.673   2.663   0.735  0.8181 -2.8870  0.3272
 7358TIP3    H222039   3.605   2.652   0.600  0.5201 -0.0042  0.1925
 7359TIP3   OH222040   2.755   1.799   1.348  0.2566 -0.2009 -0.1111
 7359TIP3    H122041   2.781   1.888   1.372 -0.3067  0.0364 -0.3785
 7359TIP3    H222042   2.684   1.811   1.285 -1.7729 -0.8388  1.9228
 7360TIP3   OH222043   1.523   5.020   0.824 -0.3335  0.1060  0.1726
 7360TIP3    H122044   1.547   5.079   0.753 -0.7128 -0.0944 -0.1234
 7360TIP3    H222045   1.544   4.933   0.791  1.3755  0.1342  1.0592
 7361TIP3   OH222046   5.158   1.473   5.337 -0.5011 -0.0646 -0.3199
 7361TIP3    H122047   5.240   1.433   5.364 -0.3324 -0.1803 -0.9985
 7361TIP3    H222048   5.092   1.431   5.392 -0.3156 -1.2172 -0.9477
 7362TIP3   OH222049   6.150   5.431   0.387  0.7336 -0.4174  0.3021
 7362TIP3    H122050   6.206   5.359   0.415  1.7324 -0.1605 -0.9504
 7362TIP3    H222051   6.206   5.509   0.390  0.2467 -0.0297 -0.2790
 7363TIP3   OH222052   6.685   5.330   4.383  0.1765 -0.4609 -0.1188
 7363TIP3    H122053   6.608   5.350   4.436  0.1190  0.2699 -0.4615
 7363TIP3    H222054   6.758   5.336   4.444  0.1236  0.4873 -0.1261
 7364TIP3   OH222055   5.474   4.460   0.139 -0.0358 -0.0953  0.1336
 7364TIP3    H122056   5.532   4.513   0.194 -0.5062  1.9448 -1.2151
 7364TIP3    H222057   5.532   4.401   0.091  0.5018 -0.8553  1.6439
 7365TIP3   OH222058   0.058   6.629   4.671  0.5366 -0.2997 -0.0713
 7365TIP3    H122059   0.099   6.639   4.757  2.6985 -0.3628 -1.0343
 7365TIP3    H222060   0.126   6.654   4.609 -0.9008 -0.4758 -1.7979
 7366TIP3   OH222061   5.373   6.275   4.119 -0.6576 -0.4765 -0.0189
 7366TIP3    H122062   5.358   6.227   4.201  1.2900  0.2502  0.8202
 7366TIP3    H222063   5.327   6.358   4.131 -0.1438 -0.2567  0.4663
 7367TIP3   OH222064   6.115   0.496   3.962 -0.2177 -0.3625  0.1346
 7367TIP3    H122065   6.095   0.589   3.974 -1.7455 -0.4887 -1.0489
 7367TIP3    H222066   6.190   0.495   3.903 -1.2673  0.1395 -1.2529
 7368TIP3   OH222067   1.104   1.993   1.357 -0.1932 -0.0329  0.1880
 7368TIP3    H122068   1.054   1.913   1.342 -0.8123  0.6142 -1.4653
 7368TIP3    H222069   1.193   1.963   1.373 -0.3579 -1.0539 -0.6789
 7369TIP3   OH222070   1.715   5.422   5.636  0.5461 -0.7199  0.0391
 7369TIP3    H122071   1.792   5.375   5.668  0.3567 -0.4861  0.8730
 7369TIP3    H222072   1.641   5.381   5.682  0.4230  0.6562  1.1331
 7370TIP3   OH222073   4.709   3.997   2.692 -0.0387 -0.0190  0.2943
 7370TIP3    H122074   4.623   3.971   2.724 -0.6858 -0.5658 -1.7626
 7370TIP3    H222075   4.734   3.929   2.630  0.8181  1.3359 -0.9015
 7371TIP3   OH222076   2.493   2.417   4.499 -0.7505 -0.2652  0.2801
 7371TIP3    H122077   2.444   2.499   4.490 -1.2755 -0.7009 -1.1512
 7371TIP3    H222078   2.578   2.444   4.535 -1.6266  0.6295  1.7957
 7372TIP3   OH222079   5.530   1.784   0.464  0.3918 -0.2036 -0.4452
 7372TIP3    H122080   5.491   1.724   0.400 -1.4367 -0.1072  0.4920
 7372TIP3    H222081   5.585   1.728   0.519 -0.1690 -0.7864 -0.4596
 7373TIP3   OH222082   5.320   2.563   4.237 -0.1788 -0.4552 -0.0078
 7373TIP3    H122083   5.295   2.558   4.329  0.9501 -0.7490  0.2952
 7373TIP3    H222084   5.246   2.524   4.190 -0.9417  0.0636  0.7254
 7374TIP3   OH222085   1.533   5.305   0.862 -0.7301  0.3219  0.1845
 7374TIP3    H122086   1.525   5.210   0.853  0.7648  0.0818  0.9707
 7374TIP3    H222087   1.443   5.336   0.873 -1.2751 -0.9505 -0.5003
 7375TIP3   OH222088   6.928   3.454   3.815  0.0712 -0.1830 -0.1941
 7375TIP3    H122089   7.020   3.477   3.827 -0.5293  3.5331 -1.3709
 7375TIP3    H222090   6.890   3.457   3.903  0.4699  1.9871 -0.0263
 7376TIP3   OH222091   4.664   1.842   2.694  0.2201  0.0728 -0.0402
 7376TIP3    H122092   4.638   1.757   2.659 -1.2269  1.4029 -2.4529
 7376TIP3    H222093   4.740   1.867   2.642 -0.0679  0.7511 -0.1402
 7377TIP3   OH222094   4.038   6.390   2.277  0.3493  0.2291  0.7001
 7377TIP3    H122095   3.976   6.453   2.241  0.3994 -0.1976 -0.1628
 7377TIP3    H222096   4.013   6.306   2.238  1.1659 -0.0326  0.7191
 7378TIP3   OH222097   0.263   4.657   2.575  0.1169  0.0581  0.4426
 7378TIP3    H122098   0.175   4.677   2.544  0.6960  1.2875 -0.5314
 7378TIP3    H222099   0.290   4.580   2.525  0.0830  0.4909 -0.2584
 7379TIP3   OH222100   6.678   6.090   2.408 -0.6431 -0.2258 -0.5931
 7379TIP3    H122101   6.603   6.126   2.454 -0.1775 -0.8806  0.7454
 7379TIP3    H222102   6.750   6.150   2.427  0.0548 -1.5846  1.3708
 7380TIP3   OH222103   7.013   0.425   3.866  0.0346 -0.1293 -0.0012
 7380TIP3    H122104   6.957   0.374   3.808  1.6783 -1.9832 -0.0961
 7380TIP3    H222105   7.088   0.367   3.883  0.3422  0.9323  2.7537
 7381TIP3   OH222106   3.957   2.049   3.310  0.1799 -0.1844 -0.2845
 7381TIP3    H122107   3.988   2.030   3.398  1.2395  0.3459 -0.5297
 7381TIP3    H222108   4.014   1.998   3.252  0.1288  0.2254 -0.7072
 7382TIP3   OH222109   7.143   3.079   0.184 -0.4715  0.0293 -0.3157
 7382TIP3    H122110   7.090   3.085   0.105 -0.1214  0.5010 -0.5139
 7382TIP3    H222111   7.157   3.169   0.212 -1.7764 -0.1708  1.0887
 7383TIP3   OH222112   4.822   1.141   5.740  0.0331 -0.3388  0.2610
 7383TIP3    H122113   4.747   1.098   5.781 -0.9443 -1.2490 -2.3097
 7383TIP3    H222114   4.791   1.167   5.653  2.7199 -0.8563 -0.9502
 7384TIP3   OH222115   2.299   3.592   4.258 -0.4992  0.1794  0.7258
 7384TIP3    H122116   2.359   3.541   4.313  1.0775  1.5533  0.3618
 7384TIP3    H222117   2.328   3.574   4.169  0.0914  1.6728  0.5924
 7385TIP3   OH222118   4.199   6.250   3.109  0.6964  0.4973  0.2635
 7385TIP3    H122119   4.289   6.221   3.124  0.8695 -0.0952 -1.6096
 7385TIP3    H222120   4.145   6.177   3.141  0.9015  0.5577  0.7563
 7386TIP3   OH222121   0.486   3.152   1.461  0.1808 -0.1076  0.5239
 7386TIP3    H122122   0.393   3.131   1.475  0.4235 -1.6793  0.0074
 7386TIP3    H222123   0.531   3.100   1.527  0.8244 -1.3189 -0.8143
 7387TIP3   OH222124   3.738   3.350   0.531  0.0895  0.2842 -0.0877
 7387TIP3    H122125   3.729   3.349   0.436 -0.4984  0.3515 -0.0328
 7387TIP3    H222126   3.746   3.443   0.553 -1.4168  0.4024  0.0725
 7388TIP3   OH222127   4.287   0.693   1.902  0.1508  0.5085  0.3848
 7388TIP3    H122128   4.344   0.769   1.900  1.5178 -0.4949 -0.4149
 7388TIP3    H222129   4.330   0.632   1.962 -0.0376 -0.2893 -0.2704
 7389TIP3   OH222130   3.010   2.156   0.890  0.0352 -0.4815  0.1108
 7389TIP3    H122131   2.951   2.102   0.943 -0.6225 -0.6293 -0.7413
 7389TIP3    H222132   2.980   2.142   0.800  0.3062  0.7574 -0.1908
 7390TIP3   OH222133   0.820   6.359   4.339  0.3098  0.4926  0.1465
 7390TIP3    H122134   0.896   6.393   4.290  0.0348 -0.2849 -0.8726
 7390TIP3    H222135   0.785   6.289   4.282 -1.2393  0.9149  0.5420
 7391TIP3   OH222136   6.160   0.690   2.341  0.4205  0.2869  0.5109
 7391TIP3    H122137   6.160   0.666   2.248 -1.1012  1.0780  0.2743
 7391TIP3    H222138   6.217   0.625   2.383 -0.8698 -1.6602 -0.6147
 7392TIP3   OH222139   3.580   2.250   2.825 -0.4096  0.2147 -0.0657
 7392TIP3    H122140   3.494   2.259   2.865 -1.0938 -0.3818 -1.3319
 7392TIP3    H222141   3.607   2.160   2.845 -1.0736 -0.3316 -1.4713
 7393TIP3   OH222142   2.875   4.291   4.316  0.8691 -0.0479  0.3829
 7393TIP3    H122143   2.946   4.313   4.376  1.5665  0.5902 -0.6553
 7393TIP3    H222144   2.882   4.197   4.303  0.7871 -0.1737  1.1854
 7394TIP3   OH222145   6.744   3.581   4.714  0.3884  0.5222  0.2505
 7394TIP3    H122146   6.684   3.524   4.667  1.4716  0.4146 -1.0909
 7394TIP3    H222147   6.759   3.538   4.798  0.4580 -0.6847 -0.3682
 7395TIP3   OH222148   6.850   3.701   5.220 -0.0138 -0.3265  0.9022
 7395TIP3    H122149   6.833   3.794   5.232  0.5095 -0.2948  1.4612
 7395TIP3    H222150   6.775   3.669   5.169  0.0381  0.4842  0.3052
 7396TIP3   OH222151   5.335   3.823   4.710 -0.4827  0.4681 -0.4262
 7396TIP3    H122152   5.400   3.892   4.699  1.4269 -0.9414  1.3951
 7396TIP3    H222153   5.367   3.751   4.656  0.6861 -0.9811  2.0779
 7397TIP3   OH222154   3.151   3.574   3.250  0.0507  0.3038  0.5937
 7397TIP3    H122155   3.107   3.645   3.298 -0.7906 -0.4304  0.9386
 7397TIP3    H222156   3.114   3.580   3.162 -0.2934  0.0720  0.7198
 7398TIP3   OH222157   4.642   2.017   0.534  0.4231 -0.0886  0.0856
 7398TIP3    H122158   4.588   1.942   0.558 -2.5827  1.9089  0.1551
 7398TIP3    H222159   4.673   2.053   0.617  1.2042 -0.7462  0.0925
 7399TIP3   OH222160   6.630   6.506   3.245  0.6771  0.2169 -0.0599
 7399TIP3    H122161   6.666   6.435   3.192  1.5310 -0.2288  1.0841
 7399TIP3    H222162   6.538   6.483   3.257  0.6086  0.0390 -0.8620
 7400TIP3   OH222163   2.570   0.374   3.339 -0.1977 -0.0289 -0.2688
 7400TIP3    H122164   2.591   0.321   3.262 -0.9006 -1.4415  0.4742
 7400TIP3    H222165   2.644   0.435   3.347 -0.0147  0.0113 -1.9180
 7401TIP3   OH222166   0.773   4.454   2.286 -0.0882 -0.2340  0.0606
 7401TIP3    H122167   0.856   4.469   2.240 -0.3025 -1.3450 -0.7257
 7401TIP3    H222168   0.724   4.535   2.274  1.3834  0.9763  1.6862
 7402TIP3   OH222169   6.957   6.205   1.172 -0.1452  0.4440  0.5452
 7402TIP3    H122170   6.927   6.239   1.088 -0.2345  0.5031  0.6013
 7402TIP3    H222171   6.887   6.147   1.202  0.7204 -1.1382 -0.3555
 7403TIP3   OH222172   0.958   1.000   0.399  0.0362  0.3287  0.3446
 7403TIP3    H122173   0.948   1.045   0.316  0.5651 -0.6553 -0.2707
 7403TIP3    H222174   1.043   1.028   0.432 -0.1521  0.6812  0.5308
 7404TIP3   OH222175   0.522   5.107   5.351  0.3285  0.5698 -0.2950
 7404TIP3    H122176   0.499   5.111   5.444  1.8240  2.2484  0.0611
 7404TIP3    H222177   0.605   5.060   5.349  0.7918  1.3811 -0.6509
 7405TIP3   OH222178   4.014   0.419   5.290  0.7708 -0.2591  0.6945
 7405TIP3    H122179   4.054   0.461   5.213  0.5749 -0.3957  0.5181
 7405TIP3    H222180   3.987   0.333   5.260 -0.2266  0.0535  0.6347
 7406TIP3   OH222181   0.496   1.936   1.728  0.4784  0.0699  0.9722
 7406TIP3    H122182   0.583   1.932   1.767  0.6352 -1.1188  0.5385
 7406TIP3    H222183   0.457   1.851   1.748 -0.1421  0.1546  0.1560
 7407TIP3   OH222184   2.127   2.300   0.728  0.0691  0.6159 -0.1668
 7407TIP3    H122185   2.063   2.357   0.687 -2.3321 -1.1192  0.9619
 7407TIP3    H222186   2.148   2.344   0.811  0.2345  1.1064 -0.4644
 7408TIP3   OH222187   3.954   3.860   2.446  0.1214  0.5628  0.4145
 7408TIP3    H122188   3.902   3.790   2.484 -0.5805  1.7660  1.7800
 7408TIP3    H222189   3.949   3.846   2.352 -1.9195  0.1179  0.5556
 7409TIP3   OH222190   1.323   4.027   4.490  0.1670  0.1153 -0.1715
 7409TIP3    H122191   1.369   3.971   4.553 -1.8931 -1.2644  0.1970
 7409TIP3    H222192   1.289   4.099   4.542 -1.3345 -0.9022  0.3216
 7410TIP3   OH222193   7.060   4.471   1.863  0.2191  0.1446 -0.5442
 7410TIP3    H122194   7.048   4.536   1.793  1.0325  0.2634 -0.5754
 7410TIP3    H222195   7.153   4.475   1.884 -0.0575  0.2476  0.6954
 7411TIP3   OH222196   4.201   0.077   1.112 -0.1701 -0.6463 -0.1071
 7411TIP3    H122197   4.215   0.132   1.035  2.3275  1.8876  1.9415
 7411TIP3    H222198   4.178  -0.009   1.076 -0.9560  0.8416 -3.5782
 7412TIP3   OH222199   2.147   4.147   4.938  1.1728  0.2754  0.0489
 7412TIP3    H122200   2.124   4.239   4.925 -0.7287 -0.1258  0.2474
 7412TIP3    H222201   2.195   4.122   4.859 -1.4514  0.5112 -1.7314
 7413TIP3   OH222202   5.005   6.194   5.400  0.0275 -0.5862 -0.4692
 7413TIP3    H122203   5.004   6.274   5.347  0.7547 -0.9382 -1.0322
 7413TIP3    H222204   5.029   6.224   5.488 -2.1776  0.1444 -0.0522
 7414TIP3   OH222205   0.502   6.332   4.534  0.5905  0.2996  0.5693
 7414TIP3    H122206   0.537   6.243   4.528 -0.1916  0.0142  0.2495
 7414TIP3    H222207   0.460   6.348   4.450  1.6844  1.3957  0.2010
 7415TIP3   OH222208   5.189   1.675   2.621 -0.1798  0.5248 -0.3633
 7415TIP3    H122209   5.228   1.760   2.602  0.8326 -0.2679 -2.0567
 7415TIP3    H222210   5.176   1.675   2.716 -0.0360  2.4772 -0.3114
 7416TIP3   OH222211   2.821   5.570   0.525  0.1807  0.4766  0.1684
 7416TIP3    H122212   2.751   5.544   0.586 -0.5533  2.0025  0.0116
 7416TIP3    H222213   2.895   5.592   0.582  1.2228 -2.7897  0.2933
 7417TIP3   OH222214   1.177   2.501   4.427  0.4218  0.4926  0.0096
 7417TIP3    H122215   1.170   2.594   4.449  1.2955  0.6236 -0.2249
 7417TIP3    H222216   1.243   2.468   4.488  0.7252  0.2137 -0.4674
 7418TIP3   OH222217   6.368   3.628   5.265 -0.4811  0.0992  0.1931
 7418TIP3    H122218   6.454   3.586   5.268 -0.7070 -0.3623  0.3676
 7418TIP3    H222219   6.386   3.720   5.248  0.1726  0.4337  2.4681
 7419TIP3   OH222220   2.483   5.649   3.845 -0.5452 -0.0602 -0.5428
 7419TIP3    H122221   2.410   5.710   3.859 -0.9765 -0.2295 -1.9015
 7419TIP3    H222222   2.546   5.699   3.794 -0.1570 -0.2388 -0.2395
 7420TIP3   OH222223   2.875   4.568   2.258  0.3030 -0.1720  0.1316
 7420TIP3    H122224   2.910   4.491   2.213  0.0863  0.0647 -0.4630
 7420TIP3    H222225   2.834   4.619   2.188  0.1759  0.3312  0.5675
 7421TIP3   OH222226   2.788   3.935   5.018 -0.1228  0.1362  0.0383
 7421TIP3    H122227   2.726   4.008   5.025 -1.6193 -0.8335 -2.0774
 7421TIP3    H222228   2.847   3.961   4.947 -0.8290 -0.7832 -0.9111
 7422TIP3   OH222229   3.253   2.045   5.760  0.0639  0.2551  0.6646
 7422TIP3    H122230   3.323   2.081   5.706 -0.0664  2.1908  1.7251
 7422TIP3    H222231   3.298   2.008   5.836 -0.0608  2.2145  1.7393
 7423TIP3   OH222232   0.108   3.177   0.516  1.0447 -0.0924 -0.3094
 7423TIP3    H122233   0.088   3.088   0.488  0.2764  0.1354 -0.5020
 7423TIP3    H222234   0.028   3.207   0.559  1.7793  0.0074  1.0420
 7424TIP3   OH222235   6.949   0.431   1.685 -1.0428  0.0337  0.3093
 7424TIP3    H122236   6.920   0.339   1.689 -2.8156  0.6004  2.4227
 7424TIP3    H222237   7.038   0.430   1.721 -1.0295 -0.8489  0.2786
 7425TIP3   OH222238   6.827   6.197   3.533 -0.4726 -0.3773 -0.0536
 7425TIP3    H122239   6.761   6.128   3.542  1.6038 -2.4389  0.2700
 7425TIP3    H222240   6.855   6.214   3.623  1.5446 -1.8053 -0.3332
 7426TIP3   OH222241   3.580   5.267   1.711 -0.2261 -0.1867 -0.1020
 7426TIP3    H122242   3.564   5.177   1.685 -1.2104  0.0341 -0.3340
 7426TIP3    H222243   3.504   5.290   1.765  1.1291 -0.2183  1.9388
 7427TIP3   OH222244   3.368   3.667   0.534 -0.1389  0.2302  0.2807
 7427TIP3    H122245   3.288   3.694   0.578 -1.1249 -1.9577 -0.0293
 7427TIP3    H222246   3.439   3.706   0.585 -1.3582  1.0375  1.3994
 7428TIP3   OH222247   5.531   0.277   3.350  0.5858  0.8286  0.3254
 7428TIP3    H122248   5.554   0.203   3.295 -2.0316 -1.4861  2.0873
 7428TIP3    H222249   5.485   0.337   3.291 -0.3948 -0.6495 -0.4639
 7429TIP3   OH222250   0.620   1.963   0.537 -0.6101 -0.0899 -0.7804
 7429TIP3    H122251   0.589   2.011   0.614  1.0013  0.3774 -0.3870
 7429TIP3    H222252   0.553   1.980   0.470 -1.3464  0.6162  0.0979
 7430TIP3   OH222253   3.398   1.452   4.880  0.1704  0.3379 -0.4676
 7430TIP3    H122254   3.472   1.475   4.824  0.5399  1.3659  0.4045
 7430TIP3    H222255   3.335   1.412   4.821  0.9611  0.4599 -1.4286
 7431TIP3   OH222256   5.271   5.330   0.923  0.0380  0.1317  0.1443
 7431TIP3    H122257   5.364   5.321   0.944  0.1858  1.6757  0.2753
 7431TIP3    H222258   5.244   5.242   0.898  1.3160 -0.5306  0.9552
 7432TIP3   OH222259   7.011   1.290   2.348 -0.1506  0.1063 -0.0789
 7432TIP3    H122260   6.961   1.209   2.350  0.3416 -0.2042 -0.1283
 7432TIP3    H222261   7.098   1.264   2.318  0.3091  0.4797  0.8888
 7433TIP3   OH222262   3.991   2.114   1.592  0.2097  0.0639 -0.4757
 7433TIP3    H122263   4.028   2.100   1.504 -0.0852  1.9729 -0.9691
 7433TIP3    H222264   3.913   2.168   1.576  1.7025  2.9539  1.0831
 7434TIP3   OH222265   4.796   2.705   2.904 -0.0633  0.4517  0.9153
 7434TIP3    H122266   4.725   2.769   2.913 -0.3154 -0.0312  2.6272
 7434TIP3    H222267   4.870   2.745   2.951  0.2995  0.2191  0.5515
 7435TIP3   OH222268   3.768   4.521   0.960  0.0599 -0.1803 -0.3316
 7435TIP3    H122269   3.715   4.446   0.988  0.1848  0.0925  0.6682
 7435TIP3    H222270   3.813   4.491   0.881 -1.9270 -0.2780 -1.5003
 7436TIP3   OH222271   2.020   6.746   4.170  0.4714  0.4971  0.2826
 7436TIP3    H122272   2.104   6.788   4.154  1.1445 -0.1027  2.0116
 7436TIP3    H222273   2.036   6.653   4.151  0.0365  0.4548  0.1073
 7437TIP3   OH222274   4.434   4.720   0.264  0.3914 -0.2959 -0.0248
 7437TIP3    H122275   4.475   4.706   0.350  0.5880 -1.8930 -0.3507
 7437TIP3    H222276   4.458   4.810   0.241  2.1607 -0.5591  0.6324
 7438TIP3   OH222277   5.588   5.919   0.440 -0.6200  0.8172 -0.5332
 7438TIP3    H122278   5.520   5.980   0.469 -2.2893 -1.6827  1.2796
 7438TIP3    H222279   5.542   5.859   0.381  0.0717 -0.7196  0.4455
 7439TIP3   OH222280   4.912   4.189   2.411  0.3299 -0.2561 -0.4480
 7439TIP3    H122281   4.873   4.103   2.398  1.9446 -0.9542 -0.8664
 7439TIP3    H222282   4.978   4.176   2.480 -0.6039  1.0503  0.7690
 7440TIP3   OH222283   4.755   0.740   5.830  0.2136 -0.5746 -0.1971
 7440TIP3    H122284   4.746   0.672   5.764  1.1147 -0.7827 -0.1262
 7440TIP3    H222285   4.836   0.719   5.876  1.7446  1.7330 -1.6088
 7441TIP3   OH222286   2.266   4.476   5.569 -0.3300  0.0855 -0.5662
 7441TIP3    H122287   2.177   4.511   5.564 -0.3529 -0.1469 -2.9058
 7441TIP3    H222288   2.321   4.548   5.539 -0.1551 -0.9379 -2.9741
 7442TIP3   OH222289   3.635   4.779   5.663 -0.1282 -0.0883  0.5553
 7442TIP3    H122290   3.582   4.806   5.589  0.4463 -0.9951 -0.2087
 7442TIP3    H222291   3.610   4.838   5.734 -0.3119  1.1360 -0.5013
 7443TIP3   OH222292   5.987   4.835   1.398  0.0382 -0.6732  0.0135
 7443TIP3    H122293   5.932   4.854   1.322  1.2815 -0.6797 -0.9250
 7443TIP3    H222294   5.960   4.898   1.464 -1.3070 -0.8941 -0.2913
 7444TIP3   OH222295   1.212   4.354   0.168  0.6654 -0.2987  0.4829
 7444TIP3    H122296   1.252   4.269   0.188 -0.1402 -1.0577 -0.9313
 7444TIP3    H222297   1.139   4.332   0.111  0.1046  1.3226  0.5525
 7445TIP3   OH222298   6.052   1.823   4.783  0.8494  0.2366 -0.0212
 7445TIP3    H122299   6.125   1.851   4.837  0.3097  0.2059  0.7382
 7445TIP3    H222300   6.042   1.730   4.803  0.3213  0.3409  0.2233
 7446TIP3   OH222301   5.287   5.010   3.561 -0.5135 -0.3980 -0.6011
 7446TIP3    H122302   5.273   5.101   3.533 -0.0981 -0.3892 -0.7819
 7446TIP3    H222303   5.324   5.017   3.648  1.9988 -0.3027 -1.6056
 7447TIP3   OH222304   5.108   6.564   4.882  0.1118 -0.3480 -0.4519
 7447TIP3    H122305   5.116   6.598   4.793  1.6925 -1.3962 -0.7574
 7447TIP3    H222306   5.103   6.641   4.938  0.2527  0.3276 -1.3593
 7448TIP3   OH222307   6.554   3.882   0.974 -0.2451  0.4420 -0.6765
 7448TIP3    H122308   6.574   3.921   1.059  2.3274 -2.0692  0.0554
 7448TIP3    H222309   6.636   3.892   0.924 -0.3604 -1.5303 -1.3652
 7449TIP3   OH222310   0.827   2.919   2.551  0.1673 -0.1792 -0.7650
 7449TIP3    H122311   0.863   2.971   2.622  1.1526 -2.4728  0.5293
 7449TIP3    H222312   0.866   2.956   2.472  4.5675 -1.6471  0.4151
 7450TIP3   OH222313   1.250   3.903   2.400 -0.1118  0.6590 -0.0906
 7450TIP3    H122314   1.156   3.890   2.402 -0.4264  2.6160 -0.0001
 7450TIP3    H222315   1.279   3.858   2.320 -1.0688 -0.1397 -0.0063
 7451TIP3   OH222316   5.675   6.432   0.022  0.2944 -0.1803  0.3081
 7451TIP3    H122317   5.742   6.476   0.074  0.1856  1.5493 -0.9537
 7451TIP3    H222318   5.724   6.378  -0.040  0.4356 -1.1031  1.1832
 7452TIP3   OH222319   0.160   1.897   3.573 -0.3789 -0.3901 -0.0500
 7452TIP3    H122320   0.157   1.973   3.516 -1.0901  0.1170  0.6459
 7452TIP3    H222321   0.127   1.825   3.519  2.3936 -0.7520 -1.4476
 7453TIP3   OH222322   4.492   1.132   0.537  0.0952 -0.1269  0.6599
 7453TIP3    H122323   4.418   1.177   0.498  1.8234  0.8840 -1.7049
 7453TIP3    H222324   4.464   1.042   0.547 -2.0478  0.5868  1.6420
 7454TIP3   OH222325   4.930   4.850   2.351 -0.1819 -0.0645 -0.1034
 7454TIP3    H122326   4.866   4.809   2.294 -1.2060  1.2234  0.0840
 7454TIP3    H222327   4.898   4.939   2.364  0.9516  0.2110  1.0629
 7455TIP3   OH222328   5.439   3.123   1.852  0.0062  0.1421  0.1113
 7455TIP3    H122329   5.367   3.183   1.831 -0.1959  0.5627  1.8559
 7455TIP3    H222330   5.516   3.165   1.814 -0.2803  1.0510  0.4989
 7456TIP3   OH222331   5.467   4.506   4.215  0.2161  0.0515  0.0021
 7456TIP3    H122332   5.508   4.422   4.234  1.7308  0.9411  0.8477
 7456TIP3    H222333   5.518   4.542   4.142  0.1781  0.6600  0.2705
 7457TIP3   OH222334   5.087   1.937   0.836  0.5054  0.0052 -0.1396
 7457TIP3    H122335   5.181   1.933   0.849  0.7018 -1.0972 -1.6626
 7457TIP3    H222336   5.062   1.849   0.808 -0.9780  0.2859  0.1970
 7458TIP3   OH222337   0.701   1.599   2.717 -0.0079 -0.4479  0.2290
 7458TIP3    H122338   0.742   1.603   2.803 -0.4393 -2.6035  0.5822
 7458TIP3    H222339   0.658   1.513   2.714 -1.3544  0.2214 -1.5308
 7459TIP3   OH222340   3.171   6.265   2.761  0.3260 -0.0026  0.0958
 7459TIP3    H122341   3.077   6.250   2.756  0.2818  0.4834 -0.9130
 7459TIP3    H222342   3.195   6.244   2.851 -1.0246  1.4421  0.8210
 7460TIP3   OH222343   2.278   4.138   3.517  0.0570  0.0164  0.1353
 7460TIP3    H122344   2.272   4.202   3.588  1.9432  1.6493 -1.0602
 7460TIP3    H222345   2.321   4.185   3.446  2.4284 -2.8049 -0.5065
 7461TIP3   OH222346   0.047   2.924   5.695 -0.5296  0.7086 -0.1809
 7461TIP3    H122347   0.080   2.917   5.605  1.2072  0.8733  0.3925
 7461TIP3    H222348   0.014   2.836   5.714 -0.7811  0.6295 -0.9327
 7462TIP3   OH222349   6.174   5.127   5.282  0.5846 -0.3025  0.4448
 7462TIP3    H122350   6.141   5.044   5.248 -0.5984  0.5275 -0.5143
 7462TIP3    H222351   6.262   5.107   5.313  0.5545 -1.7719 -0.3326
 7463TIP3   OH222352   0.304   6.339   1.821 -0.5054 -0.1108  0.5671
 7463TIP3    H122353   0.313   6.388   1.903  0.8110  1.3780 -0.4208
 7463TIP3    H222354   0.232   6.381   1.775  1.1339  1.5357 -0.6362
 7464TIP3   OH222355   1.082   3.817   4.713  0.0545  0.4411 -0.0058
 7464TIP3    H122356   1.007   3.766   4.683  0.9477 -1.3095  0.5660
 7464TIP3    H222357   1.076   3.812   4.809  0.2317  1.3262  0.0549
 7465TIP3   OH222358   6.946   1.071   2.613 -0.7152 -0.3101  0.0261
 7465TIP3    H122359   7.003   1.042   2.542 -0.0159  3.3103 -1.0655
 7465TIP3    H222360   7.005   1.090   2.686 -0.3186  3.1879 -1.0206
 7466TIP3   OH222361   6.419   3.310   4.469 -0.1897 -0.0199  0.6423
 7466TIP3    H122362   6.442   3.253   4.541 -0.1661 -0.9451 -0.0797
 7466TIP3    H222363   6.351   3.262   4.421 -1.1447  1.1432  0.7756
 7467TIP3   OH222364   6.991   5.483   1.975  0.6445 -0.3558 -0.4513
 7467TIP3    H122365   6.970   5.550   2.040 -0.7137  0.2869 -1.5060
 7467TIP3    H222366   6.996   5.402   2.024  0.5888  0.2558  0.5823
 7468TIP3   OH222367   3.700   2.554   4.132  0.3951  0.0596  0.4022
 7468TIP3    H122368   3.647   2.609   4.189  0.1141  0.6437 -0.4018
 7468TIP3    H222369   3.667   2.465   4.146 -1.1432  0.4770 -0.4396
 7469TIP3   OH222370   5.322   1.251   5.343 -0.5424  0.0200 -0.4739
 7469TIP3    H122371   5.230   1.246   5.318 -0.3731  3.1059 -2.2065
 7469TIP3    H222372   5.370   1.232   5.262  0.3416 -0.5799  0.1669
 7470TIP3   OH222373   1.958   0.131   5.425  0.7561 -0.0700  0.3010
 7470TIP3    H122374   1.864   0.126   5.410  0.7568  1.3070 -0.3426
 7470TIP3    H222375   1.969   0.113   5.518 -0.3051  1.2072  0.7023
 7471TIP3   OH222376   4.850   2.635   3.904 -0.1190 -0.5420 -0.5369
 7471TIP3    H122377   4.828   2.712   3.957 -0.8172 -0.1577 -1.3618
 7471TIP3    H222378   4.768   2.586   3.899  0.8350 -2.6064  1.9354
 7472TIP3   OH222379   1.769   2.627   1.086  0.3835  0.0958 -0.2358
 7472TIP3    H122380   1.785   2.634   1.180  0.4124  0.5716 -0.2731
 7472TIP3    H222381   1.839   2.679   1.046 -0.5507  1.2386 -0.4538
 7473TIP3   OH222382   5.954   3.787   1.840 -0.1239 -0.9994  0.5516
 7473TIP3    H122383   5.862   3.779   1.815 -0.2259  0.9021  0.1441
 7473TIP3    H222384   5.998   3.810   1.758  0.5592 -0.9034  0.9438
 7474TIP3   OH222385   7.007   4.598   3.010 -0.2518  0.2999  0.1649
 7474TIP3    H122386   6.923   4.570   3.044  0.3642 -1.4651  0.3511
 7474TIP3    H222387   7.070   4.572   3.077  0.6701 -0.5444 -0.9946
 7475TIP3   OH222388   2.479   3.797   2.587 -0.0504  0.1185 -0.3301
 7475TIP3    H122389   2.476   3.819   2.681  0.9832  1.6296 -0.6054
 7475TIP3    H222390   2.499   3.704   2.585  0.9745  0.2717  0.9738
 7476TIP3   OH222391   4.492   5.835   4.493 -0.2608  0.9746  0.1135
 7476TIP3    H122392   4.571   5.801   4.536  0.1737  0.5888 -0.9429
 7476TIP3    H222393   4.451   5.758   4.453 -0.7538  1.2909 -0.0009
 7477TIP3   OH222394   6.330   5.321   2.592 -0.4095  0.1954 -0.3145
 7477TIP3    H122395   6.240   5.350   2.579  0.2718  2.6682  0.0152
 7477TIP3    H222396   6.345   5.328   2.686  0.9554  2.7008 -0.6428
 7478TIP3   OH222397   1.769   4.916   1.047  0.8730  0.7664 -0.0950
 7478TIP3    H122398   1.803   4.926   0.958 -1.2389  1.6777 -0.8655
 7478TIP3    H222399   1.744   5.005   1.073  0.9497  0.4273  1.2077
 7479TIP3   OH222400   3.030   5.100   5.883 -0.1004 -0.2647 -1.0468
 7479TIP3    H122401   3.078   5.183   5.888 -0.1512 -0.2803 -0.2538
 7479TIP3    H222402   3.096   5.036   5.857  0.0021 -0.0305 -1.3683
 7480TIP3   OH222403   4.313   5.932   2.857 -0.1569  0.2703  0.1858
 7480TIP3    H122404   4.384   5.983   2.896 -0.1614  0.2635  0.2032
 7480TIP3    H222405   4.303   5.969   2.769 -1.6250  1.8034  0.9365
 7481TIP3   OH222406   2.398   0.233   3.498  0.8565  0.3223  0.6636
 7481TIP3    H122407   2.467   0.282   3.454  1.2060 -0.1335  0.6997
 7481TIP3    H222408   2.434   0.146   3.511  0.7388  0.4259  1.8052
 7482TIP3   OH222409   1.183   3.515   2.259 -0.4395  0.2918  0.0843
 7482TIP3    H122410   1.153   3.530   2.349 -2.5806  1.5501 -0.7898
 7482TIP3    H222411   1.236   3.592   2.238 -0.7425  0.4662 -0.0476
 7483TIP3   OH222412   1.538   2.915   1.849  0.0269  0.0813 -0.2281
 7483TIP3    H122413   1.587   2.840   1.882 -0.0965  1.0172  2.2935
 7483TIP3    H222414   1.487   2.880   1.776  2.0258 -1.6198 -0.9266
 7484TIP3   OH222415   1.481   4.866   2.042 -0.4290  0.3397 -0.3766
 7484TIP3    H122416   1.570   4.833   2.027 -0.1360  0.5792  0.7411
 7484TIP3    H222417   1.425   4.788   2.032  0.2897 -0.6801  2.6036
 7485TIP3   OH222418   5.206   4.370   3.760  0.0973 -0.2078  0.5667
 7485TIP3    H122419   5.152   4.406   3.831 -0.8365 -1.8348  0.7124
 7485TIP3    H222420   5.283   4.334   3.805 -0.1512 -0.5956  0.6838
 7486TIP3   OH222421   2.273   0.731   0.041 -0.8728  0.3040  0.3238
 7486TIP3    H122422   2.343   0.756  -0.019  0.4685 -1.0668  1.2402
 7486TIP3    H222423   2.210   0.684  -0.014 -0.4876  0.5293 -0.3126
 7487TIP3   OH222424   6.464   2.312   4.733 -0.0747 -0.6983 -0.5620
 7487TIP3    H122425   6.552   2.276   4.731  0.6029  0.8166  0.1061
 7487TIP3    H222426   6.469   2.385   4.795 -1.7756 -0.5107 -0.5827
 7488TIP3   OH222427   3.184   6.231   0.893  0.0870 -0.4585  0.1923
 7488TIP3    H122428   3.225   6.147   0.911  1.6441  0.0100 -0.9331
 7488TIP3    H222429   3.139   6.219   0.810  1.3204  0.1286 -0.5799
 7489TIP3   OH222430   4.321   6.668   3.825 -0.1066  0.0131  0.4577
 7489TIP3    H122431   4.273   6.647   3.905 -1.6149  1.2526 -0.0891
 7489TIP3    H222432   4.257   6.712   3.769  1.1797  0.0408 -1.0561
 7490TIP3   OH222433   1.121   3.774   3.101  0.0972  0.1553  0.6067
 7490TIP3    H122434   1.087   3.735   3.181 -2.3082 -0.4946 -0.6580
 7490TIP3    H222435   1.095   3.866   3.107 -0.2062  0.0759  0.4951
 7491TIP3   OH222436   6.689   2.602   5.414  0.5631 -0.0308 -0.0514
 7491TIP3    H122437   6.689   2.697   5.425  0.6474  0.0093 -0.3881
 7491TIP3    H222438   6.611   2.572   5.461 -0.1462  0.3234 -0.9705
 7492TIP3   OH222439   1.018   2.199   1.547  0.2405  0.1512 -0.0914
 7492TIP3    H122440   1.046   2.273   1.493 -0.8399  2.5308  2.3607
 7492TIP3    H222441   1.090   2.136   1.542  0.5110  0.5703 -3.5510
 7493TIP3   OH222442   5.827   3.184   4.496 -0.1694  0.5844  0.3475
 7493TIP3    H122443   5.826   3.220   4.407 -0.8650  0.2797  0.2272
 7493TIP3    H222444   5.818   3.260   4.553  0.0251  0.7567  0.1490
 7494TIP3   OH222445   6.804   2.661   0.552 -0.1372 -0.1214  0.3134
 7494TIP3    H122446   6.881   2.607   0.535 -1.5739 -1.9564 -0.9501
 7494TIP3    H222447   6.738   2.599   0.584 -1.4901  1.1163  0.0658
 7495TIP3   OH222448   2.977   6.552   4.078 -0.1666  0.2450 -0.2481
 7495TIP3    H122449   2.992   6.640   4.115  3.0425 -0.0013 -0.6584
 7495TIP3    H222450   2.937   6.503   4.150  2.2050  0.8847  1.6688
 7496TIP3   OH222451   6.661   0.749   5.222  0.5656  0.7928  0.0302
 7496TIP3    H122452   6.615   0.833   5.219  0.5526  0.7529 -1.1128
 7496TIP3    H222453   6.632   0.709   5.304 -1.2646  0.8755 -0.5313
 7497TIP3   OH222454   3.751   3.664   1.838 -0.0523 -0.2727  0.5693
 7497TIP3    H122455   3.754   3.758   1.823  2.7990 -0.3621  0.0031
 7497TIP3    H222456   3.730   3.627   1.753 -0.7226 -0.1727  0.6891
 7498TIP3   OH222457   4.150   3.871   3.514 -0.0349  0.2547 -0.4910
 7498TIP3    H122458   4.225   3.861   3.455  1.5889  2.4895  1.0470
 7498TIP3    H222459   4.085   3.917   3.462  0.3548 -0.0956 -1.3150
 7499TIP3   OH222460   7.066   4.381   3.799  0.2290  0.1968  0.4254
 7499TIP3    H122461   7.073   4.286   3.805  0.3882  0.1420 -0.4460
 7499TIP3    H222462   7.106   4.414   3.880 -1.7023 -0.5192  1.7446
 7500TIP3   OH222463   6.417   1.917   1.366  0.2261 -0.1956  0.3253
 7500TIP3    H122464   6.439   1.834   1.323 -1.1434 -0.5838  0.3026
 7500TIP3    H222465   6.466   1.915   1.448  1.3245 -0.3624 -0.3173
 7501TIP3   OH222466   0.198   4.168   0.182 -0.5270  0.1356  0.0130
 7501TIP3    H122467   0.119   4.141   0.229  0.0610 -0.9152  0.4375
 7501TIP3    H222468   0.258   4.094   0.192 -0.0507  0.2613 -1.6223
 7502TIP3   OH222469   3.555   0.100   2.497  0.1371 -0.5625 -0.6018
 7502TIP3    H122470   3.471   0.104   2.542  0.3826 -1.6465 -0.0081
 7502TIP3    H222471   3.594   0.186   2.511  1.0611 -1.4043  2.9793
 7503TIP3   OH222472   4.685   6.277   3.733 -0.4627  0.5911 -0.1210
 7503TIP3    H122473   4.604   6.326   3.717 -1.0286 -0.8290 -1.9459
 7503TIP3    H222474   4.728   6.273   3.648  1.4780  1.1604  0.7901
 7504TIP3   OH222475   6.076   5.032   2.267  0.3672  0.3004 -0.8735
 7504TIP3    H122476   6.008   5.063   2.208 -0.5141  1.0327  0.4777
 7504TIP3    H222477   6.045   4.947   2.298  0.4389  0.2932 -0.8213
 7505TIP3   OH222478   1.326   5.307   0.207  0.6056  0.2061  0.5028
 7505TIP3    H122479   1.272   5.237   0.242 -1.1997  0.6901 -1.1507
 7505TIP3    H222480   1.300   5.385   0.256 -1.5236  0.7733 -1.3758
 7506TIP3   OH222481   0.911   2.032   0.646  0.5072  0.3098 -0.3829
 7506TIP3    H122482   0.987   2.000   0.597  0.6987 -0.6544  0.5062
 7506TIP3    H222483   0.847   2.056   0.578  0.3158 -2.0929 -1.1303
 7507TIP3   OH222484   5.878   6.381   2.260  0.5465  0.4173 -0.2468
 7507TIP3    H122485   5.967   6.345   2.266  0.4900 -0.4539 -2.9603
 7507TIP3    H222486   5.851   6.361   2.170 -2.5542  0.3414  0.6092
 7508TIP3   OH222487   6.702   2.153   3.943 -0.2699 -0.1375  0.4743
 7508TIP3    H122488   6.767   2.182   4.007  0.0073  1.1015 -0.3297
 7508TIP3    H222489   6.628   2.123   3.996  0.0137  0.7050  1.3818
 7509TIP3   OH222490   6.187   3.933   5.389  0.3185  0.4571  0.1296
 7509TIP3    H122491   6.189   3.948   5.295  0.2313 -0.3921 -0.0134
 7509TIP3    H222492   6.120   3.867   5.402  0.0655  0.8364  0.8334
 7510TIP3   OH222493   2.090   5.984   0.403 -0.1205 -0.0260 -0.1881
 7510TIP3    H122494   2.019   5.978   0.466 -0.6989  1.5016 -0.6459
 7510TIP3    H222495   2.061   5.934   0.328 -0.7926  0.7040 -0.4254
 7511TIP3   OH222496   2.211   3.247   2.617 -0.0842  0.1167  0.3836
 7511TIP3    H122497   2.134   3.301   2.600  0.6614  1.7315  1.7268
 7511TIP3    H222498   2.236   3.270   2.707  1.6011 -0.7917  0.1796
 7512TIP3   OH222499   1.933   6.484   3.206  0.2953 -0.4863  0.2058
 7512TIP3    H122500   2.027   6.501   3.211  0.4367 -1.3746  0.6712
 7512TIP3    H222501   1.926   6.390   3.192 -0.5251 -0.3890 -0.0829
 7513TIP3   OH222502   1.016   4.287   4.012  0.1610  0.2200 -0.5429
 7513TIP3    H122503   1.091   4.313   3.957  0.7654  0.7080  0.4743
 7513TIP3    H222504   1.031   4.195   4.031  0.1683  0.1542 -0.8614
 7514TIP3   OH222505   0.115   0.040   0.744  0.2190  0.9549  0.3332
 7514TIP3    H122506   0.066   0.036   0.826 -0.3503 -2.4366 -0.0136
 7514TIP3    H222507   0.192   0.093   0.765 -0.1430  0.5918  2.9295
 7515TIP3   OH222508   3.688   6.778   4.734  0.0405  0.3331  0.0056
 7515TIP3    H122509   3.745   6.707   4.765 -0.1421 -0.2656 -0.9714
 7515TIP3    H222510   3.747   6.850   4.714  0.2295  0.4655  1.0231
 7516TIP3   OH222511   4.550   1.371   5.713  0.1733  0.6357  0.2507
 7516TIP3    H122512   4.562   1.310   5.639  0.0691  0.6054  0.2597
 7516TIP3    H222513   4.463   1.408   5.700  0.1860  0.6872  0.3167
 7517TIP3   OH222514   0.019   5.043   1.135 -0.0676 -0.1618 -0.4257
 7517TIP3    H122515   0.014   5.138   1.127  1.5986 -0.0553 -0.5235
 7517TIP3    H222516   0.074   5.027   1.211  2.2619 -0.9574 -2.1495
 7518TIP3   OH222517   2.963   6.760   4.797 -0.5482  1.0504 -0.3370
 7518TIP3    H122518   2.880   6.807   4.798 -1.0312  0.2065  0.3077
 7518TIP3    H222519   2.955   6.695   4.868  0.3397  0.4210 -0.7954
 7519TIP3   OH222520   2.323   3.540   5.646  0.1384  0.4480  0.0241
 7519TIP3    H122521   2.336   3.610   5.582 -0.1210  1.9552  1.5277
 7519TIP3    H222522   2.395   3.551   5.709  0.9730 -1.6174 -0.4738
 7520TIP3   OH222523   3.452   6.611   5.471  0.2938  0.1835  0.0968
 7520TIP3    H122524   3.416   6.627   5.558 -1.0243  0.8815 -0.5538
 7520TIP3    H222525   3.547   6.609   5.485  0.0670 -1.1549  1.7670
 7521TIP3   OH222526   1.214   2.570   4.735 -0.0940 -0.6945 -0.0513
 7521TIP3    H122527   1.243   2.490   4.692 -1.6635 -1.1083 -0.4169
 7521TIP3    H222528   1.237   2.557   4.827  1.8787 -0.4736 -0.4634
 7522TIP3   OH222529   4.586   3.856   1.715 -0.2162  0.3723 -0.0907
 7522TIP3    H122530   4.515   3.808   1.757  0.0739  1.2384  1.4695
 7522TIP3    H222531   4.656   3.792   1.705 -0.8168 -0.2128 -0.6233
 7523TIP3   OH222532   5.289   2.982   4.490 -0.1912 -0.1897  0.3339
 7523TIP3    H122533   5.210   2.989   4.436 -0.2085 -0.8930  0.2707
 7523TIP3    H222534   5.361   2.996   4.429 -0.2586  3.4890  0.8199
 7524TIP3   OH222535   0.974   4.893   1.922  0.5793 -0.6738 -0.1774
 7524TIP3    H122536   1.031   4.942   1.863 -0.6574  1.0210 -0.0258
 7524TIP3    H222537   0.991   4.930   2.008 -1.5855  0.7565 -0.2942
 7525TIP3   OH222538   6.717   2.347   2.252  0.2988 -0.4283  0.2072
 7525TIP3    H122539   6.646   2.401   2.217 -0.7905 -1.1738  1.1741
 7525TIP3    H222540   6.716   2.269   2.196 -1.4483 -1.6239  1.7992
 7526TIP3   OH222541   0.362   5.857   4.589 -0.2161  0.1531 -0.9994
 7526TIP3    H122542   0.367   5.761   4.583  0.1055  0.1574 -0.8023
 7526TIP3    H222543   0.390   5.877   4.678  1.8858  0.5831 -1.6978
 7527TIP3   OH222544   0.032   2.856   0.037 -0.4526  0.7593 -0.1035
 7527TIP3    H122545  -0.001   2.796   0.103  0.9396  0.0488 -0.0106
 7527TIP3    H222546  -0.003   2.942   0.062 -0.2382  0.4428  1.3599
 7528TIP3   OH222547   0.329   0.853   2.792 -0.1622  0.0612 -0.0632
 7528TIP3    H122548   0.395   0.827   2.856 -0.7772 -0.8270  0.2357
 7528TIP3    H222549   0.379   0.891   2.720  0.5912  0.3786  0.6139
 7529TIP3   OH222550   4.175   1.782   5.828 -0.5093 -0.0690  0.5507
 7529TIP3    H122551   4.148   1.748   5.743  0.0736  1.0531 -0.1011
 7529TIP3    H222552   4.258   1.826   5.811 -0.2322 -0.0859  1.7684
 7530TIP3   OH222553   3.417   0.367   1.707 -0.5098 -0.2883  0.2190
 7530TIP3    H122554   3.460   0.442   1.749 -0.7761 -0.6290  1.1266
 7530TIP3    H222555   3.465   0.354   1.625  2.6724 -2.0839  2.1625
 7531TIP3   OH222556   6.141   4.880   2.969 -0.0383  0.2112 -0.1010
 7531TIP3    H122557   6.178   4.941   2.905  0.9099 -0.1314  0.0988
 7531TIP3    H222558   6.189   4.897   3.050  1.6705 -2.0560 -0.5064
 7532TIP3   OH222559   7.109   0.053   4.099  0.3548  0.0437  0.3740
 7532TIP3    H122560   7.087   0.053   4.006  0.8366  0.8117  0.2529
 7532TIP3    H222561   7.141  -0.036   4.115 -1.7352 -0.7692  0.3138
 7533TIP3   OH222562   3.092   0.575   2.161  0.5151 -0.2593  0.6398
 7533TIP3    H122563   3.054   0.489   2.144 -1.3706  0.6816 -0.1826
 7533TIP3    H222564   3.153   0.589   2.089 -0.2292 -0.3269 -0.0143
 7534TIP3   OH222565   3.799   2.955   4.566 -0.3429  0.1571  0.4786
 7534TIP3    H122566   3.727   3.019   4.573 -1.5002 -0.8900 -1.0440
 7534TIP3    H222567   3.878   3.009   4.563 -1.0318  1.3589  2.0927
 7535TIP3   OH222568   3.723   5.801   1.848  0.0521 -0.2051 -0.0312
 7535TIP3    H122569   3.757   5.858   1.917 -1.3070 -0.7684  1.1742
 7535TIP3    H222570   3.637   5.838   1.828 -0.1569 -0.8818 -0.3973
 7536TIP3   OH222571   2.848   1.192   4.074  0.0408  0.5810  0.1692
 7536TIP3    H122572   2.854   1.152   4.161  0.2658 -0.1229 -0.1639
 7536TIP3    H222573   2.805   1.126   4.020  0.6983  0.6580 -0.4673
 7537TIP3   OH222574   2.221   1.636   1.892 -0.3905 -0.3371 -0.5764
 7537TIP3    H122575   2.205   1.644   1.986  0.1251  0.4562 -0.5424
 7537TIP3    H222576   2.313   1.609   1.886 -0.0217  0.8939 -0.8587
 7538TIP3   OH222577   3.148   3.755   5.639 -0.4244  0.3393  0.1576
 7538TIP3    H122578   3.182   3.748   5.550 -0.6171  2.0246 -0.0769
 7538TIP3    H222579   3.083   3.685   5.646  0.4572 -0.5796 -0.6065
 7539TIP3   OH222580   2.552   6.247   1.347 -0.2292 -0.1814  0.3884
 7539TIP3    H122581   2.625   6.309   1.344 -1.1515  0.8978 -1.4851
 7539TIP3    H222582   2.586   6.168   1.305  0.0087  0.1803 -0.1159
 7540TIP3   OH222583   2.788   5.935   2.209 -0.2827  0.2013  0.5035
 7540TIP3    H122584   2.818   5.847   2.189 -0.0802  0.4993 -0.5211
 7540TIP3    H222585   2.780   5.979   2.124 -0.5881  1.1038  0.9789
 7541TIP3   OH222586   6.115   1.131   0.348 -0.7007 -0.1011 -0.1604
 7541TIP3    H122587   6.175   1.077   0.399 -1.9217 -1.5140 -0.1600
 7541TIP3    H222588   6.076   1.071   0.285 -2.3360  0.6885  0.0529
 7542TIP3   OH222589   0.828   6.652   3.208  0.2470 -0.6699 -0.7124
 7542TIP3    H122590   0.735   6.670   3.221  0.6010  0.7873 -0.0256
 7542TIP3    H222591   0.865   6.648   3.296  0.6074 -2.7623 -0.9018
 7543TIP3   OH222592   0.771   2.686   1.707  0.2876 -0.5351 -0.2580
 7543TIP3    H122593   0.676   2.680   1.720  0.5415 -2.4784  1.4263
 7543TIP3    H222594   0.791   2.619   1.641  0.5969 -1.0521  0.3449
 7544TIP3   OH222595   6.975   3.797   5.707 -0.3472 -0.1618  0.0076
 7544TIP3    H122596   6.968   3.713   5.753  1.9973 -0.9320 -0.9235
 7544TIP3    H222597   6.933   3.782   5.623 -1.9259  0.3279  0.6732
 7545TIP3   OH222598   5.287   5.939   0.478  0.0609 -0.0423  0.4556
 7545TIP3    H122599   5.255   5.881   0.409  0.0687 -0.3505  0.7108
 7545TIP3    H222600   5.208   5.967   0.524 -0.0200  0.7978 -0.1696
 7546TIP3   OH222601   7.114   4.854   0.934 -0.0898  0.3958 -0.0431
 7546TIP3    H122602   7.165   4.935   0.941  1.1146 -0.4586  1.7899
 7546TIP3    H222603   7.046   4.863   1.001 -0.4788  0.2612 -0.4223
 7547TIP3   OH222604   0.900   5.358   0.750  0.2054  0.1174 -0.0170
 7547TIP3    H122605   0.815   5.333   0.784  0.0314 -0.4601 -0.8505
 7547TIP3    H222606   0.934   5.420   0.814 -0.2507 -0.6766  1.0252
 7548TIP3   OH222607   4.266   1.122   4.025 -0.3556 -0.1344  0.4633
 7548TIP3    H122608   4.219   1.075   4.094 -1.9438 -1.2091 -1.2304
 7548TIP3    H222609   4.299   1.201   4.067 -0.0001 -1.4333  2.7711
 7549TIP3   OH222610   6.206   0.396   3.669 -0.6052  0.5212  0.5144
 7549TIP3    H122611   6.150   0.319   3.659  0.5440 -0.1609 -1.2881
 7549TIP3    H222612   6.184   0.451   3.594  1.1259  0.2112 -0.2553
 7550TIP3   OH222613   1.767   5.920   4.543  0.4059  0.5241 -0.7334
 7550TIP3    H122614   1.778   5.874   4.626 -0.7090 -0.9557 -1.3582
 7550TIP3    H222615   1.704   5.989   4.562  0.5845  0.5506 -0.2226
 7551TIP3   OH222616   3.908   2.818   0.806 -0.2811  0.6754 -0.2526
 7551TIP3    H122617   3.896   2.729   0.841 -1.9303  0.3053 -1.6538
 7551TIP3    H222618   3.963   2.806   0.729 -1.3068  0.7036 -1.0111
 7552TIP3   OH222619   5.660   1.230   2.161  0.1727 -0.6011  0.8270
 7552TIP3    H122620   5.576   1.209   2.118  0.6133 -2.1264  0.6509
 7552TIP3    H222621   5.714   1.153   2.147  1.6009  0.3223  1.0215
 7553TIP3   OH222622   2.224   0.400   0.539 -0.9224  0.0273 -0.0208
 7553TIP3    H122623   2.146   0.445   0.509 -1.1905 -0.8577 -0.7092
 7553TIP3    H222624   2.297   0.443   0.494 -0.9148  1.3739  1.2301
 7554TIP3   OH222625   2.404   2.748   0.258 -0.4592 -0.6316  0.0010
 7554TIP3    H122626   2.495   2.775   0.249 -0.5771 -0.4712 -0.7840
 7554TIP3    H222627   2.362   2.819   0.307  0.0293 -1.1398  1.1879
 7555TIP3   OH222628   0.629   2.069   2.110 -0.3358 -0.4519 -0.5483
 7555TIP3    H122629   0.685   2.093   2.184 -0.8674 -0.3144 -0.1841
 7555TIP3    H222630   0.540   2.075   2.145 -0.6162  0.1084 -1.3384
 7556TIP3   OH222631   2.358   2.235   0.400 -0.3389 -0.0335  0.2798
 7556TIP3    H122632   2.328   2.189   0.322  0.1610 -0.6087  0.4146
 7556TIP3    H222633   2.357   2.327   0.376  0.4754 -0.2503 -0.6428
 7557TIP3   OH222634   5.342   5.547   1.770 -0.4264  0.7177 -0.2293
 7557TIP3    H122635   5.400   5.565   1.844  0.1737  0.2583 -0.5800
 7557TIP3    H222636   5.343   5.452   1.762 -0.9232  0.7334 -0.4882
 7558TIP3   OH222637   4.926   2.360   0.889  0.4826  0.7410  0.2117
 7558TIP3    H122638   4.923   2.301   0.965  1.2598  0.3455 -0.0574
 7558TIP3    H222639   4.852   2.419   0.903 -1.9640 -1.8602 -0.7794
 7559TIP3   OH222640   2.691   6.217   4.518 -0.2882 -0.6948  0.6453
 7559TIP3    H122641   2.604   6.181   4.501 -0.5544 -0.2848  1.1232
 7559TIP3    H222642   2.711   6.269   4.441 -0.2932 -1.1238  0.3544
 7560TIP3   OH222643   3.693   5.970   2.325 -0.4437  0.1631  0.3112
 7560TIP3    H122644   3.694   5.875   2.317  0.5532  0.2428 -0.8963
 7560TIP3    H222645   3.728   5.987   2.412 -0.8137 -0.5772  0.6102
 7561TIP3   OH222646   3.736   1.521   1.404  0.2655 -0.0071 -0.0430
 7561TIP3    H122647   3.670   1.526   1.474  1.2210  1.9213  0.7898
 7561TIP3    H222648   3.802   1.585   1.429  1.4423 -0.4134 -1.9313
 7562TIP3   OH222649   6.855   6.247   4.856 -0.0762 -0.1771 -0.3439
 7562TIP3    H122650   6.875   6.215   4.768  2.0859 -0.0802  0.0485
 7562TIP3    H222651   6.864   6.342   4.850  1.2570 -0.2408  0.1903
 7563TIP3   OH222652   0.458   2.329   2.039 -0.1563  0.3605 -0.4180
 7563TIP3    H122653   0.441   2.343   1.946 -0.6922 -0.7156 -0.5020
 7563TIP3    H222654   0.376   2.292   2.072  0.1395  0.4384  0.4198
 7564TIP3   OH222655   2.734   0.992   3.932  0.3928  0.1920 -0.2807
 7564TIP3    H122656   2.719   1.014   3.840  0.6735  0.2443 -0.3150
 7564TIP3    H222657   2.771   0.904   3.930 -0.3464 -0.1245 -0.1671
 7565TIP3   OH222658   7.170   2.668   0.231 -0.0525 -0.0422 -0.1685
 7565TIP3    H122659   7.078   2.650   0.214  0.2775 -0.0052 -2.3605
 7565TIP3    H222660   7.217   2.598   0.185  1.0260  0.4541  0.1385
 7566TIP3   OH222661   1.114   0.064   5.909  0.3681 -0.1030  0.2764
 7566TIP3    H122662   1.186   0.056   5.846  0.5535 -1.2604  0.6144
 7566TIP3    H222663   1.048   0.002   5.877 -0.0553  0.2086  0.5389
 7567TIP3   OH222664   0.027   2.648   5.710 -0.8258  0.2785 -0.4363
 7567TIP3    H122665  -0.048   2.589   5.722  0.9254 -2.4839 -1.9764
 7567TIP3    H222666   0.069   2.651   5.796  0.1660 -2.4919 -0.7372
 7568TIP3   OH222667   0.824   5.772   5.573  0.2026  0.5539 -0.0858
 7568TIP3    H122668   0.912   5.777   5.537  0.2733 -0.3336 -0.0723
 7568TIP3    H222669   0.767   5.765   5.496  0.2663 -0.2424 -0.0745
 7569TIP3   OH222670   6.215   3.520   5.756 -0.2630  0.0701  0.5762
 7569TIP3    H122671   6.240   3.546   5.667  0.4787 -0.2250  0.6912
 7569TIP3    H222672   6.144   3.457   5.743  0.1759 -0.3481  0.1664
 7570TIP3   OH222673   1.421   2.319   3.507 -0.1140 -0.4101 -0.0601
 7570TIP3    H122674   1.464   2.342   3.424 -0.3472  0.3538  0.0285
 7570TIP3    H222675   1.488   2.336   3.574 -0.8738  1.8884  0.1950
 7571TIP3   OH222676   5.042   2.183   2.507 -0.0680  0.1766  0.4740
 7571TIP3    H122677   5.006   2.237   2.437 -1.9038 -1.9184 -0.2842
 7571TIP3    H222678   5.063   2.099   2.466  2.9165  0.2394  1.5755
 7572TIP3   OH222679   5.905   2.340   0.228  0.0811  0.3773 -0.2010
 7572TIP3    H122680   5.999   2.340   0.248  0.3948  0.0011 -1.5654
 7572TIP3    H222681   5.888   2.253   0.192 -0.4734  0.9357 -1.3353
 7573TIP3   OH222682   0.984   1.170   1.890  0.3134 -0.4681  0.5568
 7573TIP3    H122683   1.018   1.094   1.842 -2.0049 -2.4420  1.8096
 7573TIP3    H222684   0.940   1.132   1.966 -3.0895  1.9207  0.0018
 7574TIP3   OH222685   6.056   5.425   2.550  0.0979 -0.2334 -0.6075
 7574TIP3    H122686   6.037   5.485   2.622  0.5417  0.1682 -0.8193
 7574TIP3    H222687   5.975   5.376   2.537  0.1802 -0.6980  0.5242
 7575TIP3   OH222688   7.181   2.493   3.673 -0.4228 -0.2853 -0.4591
 7575TIP3    H122689   7.138   2.412   3.699  0.2327 -0.2744  0.7268
 7575TIP3    H222690   7.259   2.465   3.625  0.5106 -0.4217  1.0722
 7576TIP3   OH222691   6.495   2.350   1.863 -0.1716 -0.6301 -0.4176
 7576TIP3    H122692   6.481   2.256   1.865  0.7686 -0.9414 -3.6710
 7576TIP3    H222693   6.407   2.387   1.872 -0.3540 -1.5085  4.0151
 7577TIP3   OH222694   6.434   2.490   5.503 -0.0444  0.0381  0.1851
 7577TIP3    H122695   6.396   2.576   5.524 -0.5688  0.8786 -3.5656
 7577TIP3    H222696   6.369   2.449   5.446  0.7718 -2.3870  0.8927
 7578TIP3   OH222697   3.645   4.855   2.759 -0.7475 -0.2969  0.1865
 7578TIP3    H122698   3.717   4.918   2.769 -1.3037  0.6263 -1.2986
 7578TIP3    H222699   3.657   4.794   2.832  0.4563  0.8866  1.0411
 7579TIP3   OH222700   0.402   2.945   3.734 -0.2572 -0.2561 -0.3949
 7579TIP3    H122701   0.328   2.997   3.765  0.5021 -0.2786  1.6133
 7579TIP3    H222702   0.443   2.912   3.814  0.7381 -1.9190 -1.5237
 7580TIP3   OH222703   0.678   2.521   5.417 -0.2064  0.5000 -0.8814
 7580TIP3    H122704   0.722   2.600   5.386  0.1668  0.2240 -1.0632
 7580TIP3    H222705   0.601   2.512   5.360 -1.2570  1.7148  0.2798
 7581TIP3   OH222706   1.804   4.853   5.795 -0.4802 -0.1602 -0.5509
 7581TIP3    H122707   1.728   4.911   5.805 -0.9065 -0.4880 -1.7803
 7581TIP3    H222708   1.774   4.768   5.829 -0.0550  0.1500  0.6648
 7582TIP3   OH222709   5.054   2.894   0.805 -0.0888  0.5127 -0.4154
 7582TIP3    H122710   5.057   2.814   0.856 -1.4397  0.1825 -0.8097
 7582TIP3    H222711   5.115   2.953   0.849 -0.0831 -0.2706  0.6691
 7583TIP3   OH222712   4.610   0.646   2.490 -0.1988 -0.0786 -0.0655
 7583TIP3    H122713   4.605   0.555   2.519 -0.9845 -0.9686 -2.7237
 7583TIP3    H222714   4.702   0.670   2.501 -0.0323 -1.0866  0.9100
 7584TIP3   OH222715   3.372   4.767   1.567 -0.1922 -0.2647 -0.3613
 7584TIP3    H122716   3.333   4.703   1.627 -2.4235 -0.1477 -1.6141
 7584TIP3    H222717   3.341   4.742   1.481  0.9690  1.0345 -1.2049
 7585TIP3   OH222718   1.838   1.490   0.424  0.3661  0.1012  0.3797
 7585TIP3    H122719   1.916   1.491   0.480  0.2004 -1.0161  0.6580
 7585TIP3    H222720   1.836   1.577   0.384  1.1435  0.5151  1.2059
 7586TIP3   OH222721   5.658   3.652   1.414  0.3397  0.0317  0.1616
 7586TIP3    H122722   5.636   3.572   1.366 -1.4911  0.1926  0.6563
 7586TIP3    H222723   5.598   3.718   1.380 -0.6697  0.2751  2.2468
 7587TIP3   OH222724   5.028   5.448   2.182 -0.3974 -0.7287 -0.3673
 7587TIP3    H122725   5.023   5.435   2.087 -0.3198 -0.4101 -0.4185
 7587TIP3    H222726   5.089   5.381   2.213  3.4107  2.0164 -1.1950
 7588TIP3   OH222727   5.863   6.069   5.367 -0.4441  0.0740 -0.2296
 7588TIP3    H122728   5.947   6.114   5.366 -0.4805  0.1367 -0.6242
 7588TIP3    H222729   5.802   6.131   5.326 -1.2272  1.0563  2.2427
 7589TIP3   OH222730   4.810   2.304   5.204 -0.5156 -0.0564 -0.4701
 7589TIP3    H122731   4.757   2.314   5.125 -0.4988 -3.0469 -0.9722
 7589TIP3    H222732   4.780   2.222   5.243  0.2868  0.7479  2.0270
 7590TIP3   OH222733   1.423   6.006   2.224  0.1715 -0.7898 -0.5820
 7590TIP3    H122734   1.339   6.031   2.185  0.7614  0.7934 -0.9196
 7590TIP3    H222735   1.400   5.947   2.296 -1.4478  1.6453  1.0463
 7591TIP3   OH222736   5.386   5.023   4.729 -0.4711 -0.3346  0.1390
 7591TIP3    H122737   5.297   5.058   4.731 -0.4767 -0.3758  0.7626
 7591TIP3    H222738   5.424   5.058   4.648 -0.4049  1.3150  0.8503
 7592TIP3   OH222739   6.814   4.562   1.928  0.4280 -0.8449 -0.2340
 7592TIP3    H122740   6.900   4.545   1.891  0.1947 -0.2246 -1.0787
 7592TIP3    H222741   6.756   4.500   1.884  0.2949 -0.6873 -0.2809
 7593TIP3   OH222742   4.289   3.522   0.367  0.0823 -0.0050 -0.2055
 7593TIP3    H122743   4.197   3.495   0.372  0.5327 -1.7891 -0.7582
 7593TIP3    H222744   4.336   3.452   0.412  1.3065  0.0595 -1.3590
 7594TIP3   OH222745   3.590   3.555   3.979 -0.5337  0.4283 -0.4010
 7594TIP3    H122746   3.600   3.462   3.999  3.5934  1.3095  3.4973
 7594TIP3    H222747   3.664   3.575   3.922 -1.6624  1.2700 -1.6081
 7595TIP3   OH222748   3.313   2.671   5.541 -0.1106  0.4412  0.4082
 7595TIP3    H122749   3.342   2.687   5.451  2.8861 -1.1852  0.9536
 7595TIP3    H222750   3.358   2.737   5.593  1.2712 -0.9680  1.0819
 7596TIP3   OH222751   4.514   2.106   2.329  0.2606  0.7173  0.2228
 7596TIP3    H122752   4.545   2.143   2.411 -0.3095  2.6341 -0.3751
 7596TIP3    H222753   4.594   2.094   2.277  0.6506 -0.7312  1.0922
 7597TIP3   OH222754   0.226   2.158   2.701  0.3024  0.4460  0.1526
 7597TIP3    H122755   0.321   2.167   2.705  0.2895  0.4421  0.4533
 7597TIP3    H222756   0.193   2.212   2.773  0.0725  0.5172 -0.0030
 7598TIP3   OH222757   4.651   2.303   0.010 -0.2883 -0.1017 -0.0228
 7598TIP3    H122758   4.652   2.279   0.102 -1.2604  1.2598  0.3808
 7598TIP3    H222759   4.739   2.338  -0.007 -1.1197  3.0479  1.4218
 7599TIP3   OH222760   4.690   0.416   2.615  0.0062  0.3677 -0.6396
 7599TIP3    H122761   4.655   0.340   2.568 -2.0138  1.1074 -0.4018
 7599TIP3    H222762   4.757   0.451   2.556  2.0834 -2.3440 -0.1596
 7600TIP3   OH222763   2.695   0.170   3.161 -0.3533  0.0453 -0.4654
 7600TIP3    H122764   2.641   0.096   3.135  0.6940 -0.8323 -0.1809
 7600TIP3    H222765   2.759   0.134   3.222 -0.3578  1.3405  0.3557
 7601TIP3   OH222766   0.544   0.624   1.484 -0.3623 -0.2523 -0.1770
 7601TIP3    H122767   0.468   0.649   1.432 -0.7820 -0.5047  0.3133
 7601TIP3    H222768   0.566   0.536   1.454 -1.4783 -0.9788  1.0469
 7602TIP3   OH222769   6.171   5.397   4.299  0.0266  0.5243 -0.3659
 7602TIP3    H122770   6.144   5.434   4.214  1.4349 -0.4488 -1.2741
 7602TIP3    H222771   6.218   5.468   4.342 -0.0881  0.7997 -0.6870
 7603TIP3   OH222772   6.957   3.407   2.200  0.0796  0.3390  0.3045
 7603TIP3    H122773   6.872   3.416   2.156  1.6503  0.1562 -3.1068
 7603TIP3    H222774   7.002   3.489   2.180  1.0233  0.0840  1.3236
 7604TIP3   OH222775   4.012   2.751   5.852  0.6993 -0.2245  0.3988
 7604TIP3    H122776   3.969   2.728   5.769 -0.5118 -0.1027  0.9802
 7604TIP3    H222777   3.945   2.738   5.918  1.5318  0.1064  1.3237
 7605TIP3   OH222778   6.489   0.604   2.149  0.0098 -0.4922 -0.7645
 7605TIP3    H122779   6.555   0.588   2.082 -0.7589 -1.2188 -1.3600
 7605TIP3    H222780   6.470   0.517   2.185 -0.1224 -0.1996 -0.1085
 7606TIP3   OH222781   0.164   1.838   2.476  0.6167 -0.3626  0.0148
 7606TIP3    H122782   0.138   1.908   2.536  3.4134  0.4500  0.4027
 7606TIP3    H222783   0.155   1.757   2.528 -1.9969 -0.3299 -0.2336
 7607TIP3   OH222784   0.253   0.052   2.005 -0.3909 -0.0425 -0.3814
 7607TIP3    H122785   0.159   0.066   1.999 -0.3250  0.0897 -1.2492
 7607TIP3    H222786   0.264  -0.043   2.005 -0.4724 -0.0785 -1.6493
 7608TIP3   OH222787   1.653   0.972   3.633  0.2481  0.5233  0.3296
 7608TIP3    H122788   1.708   0.894   3.632  2.6446  2.0687 -1.7658
 7608TIP3    H222789   1.670   1.013   3.718 -1.6979 -1.5509  1.8113
 7609TIP3   OH222790   2.694   5.688   5.686  0.3881 -0.3559 -0.3219
 7609TIP3    H122791   2.742   5.652   5.761  1.3846 -0.4663 -0.9960
 7609TIP3    H222792   2.760   5.737   5.637 -0.5110  0.6908 -0.5095
 7610TIP3   OH222793   0.485   4.355   1.611  0.2855 -0.1810  0.2658
 7610TIP3    H122794   0.571   4.396   1.610  0.4398 -0.4358  1.9002
 7610TIP3    H222795   0.495   4.277   1.557  1.1866 -0.4417  0.8020
 7611TIP3   OH222796   2.699   4.135   4.562 -0.5662 -0.2432  0.0899
 7611TIP3    H122797   2.681   4.046   4.591 -2.8462 -0.0356 -0.5381
 7611TIP3    H222798   2.778   4.160   4.610  0.0272 -2.4962  0.4364
 7612TIP3   OH222799   4.769   2.272   4.900  0.4931 -0.3977 -0.8133
 7612TIP3    H122800   4.709   2.346   4.894 -0.2854 -1.0427 -1.2239
 7612TIP3    H222801   4.778   2.241   4.810 -0.3647 -1.6937 -0.4868
 7613TIP3   OH222802   0.644   1.075   2.768  0.1499 -0.3533 -0.0849
 7613TIP3    H122803   0.583   1.053   2.697 -0.0813  1.9945 -0.6897
 7613TIP3    H222804   0.728   1.087   2.725  0.5389 -1.1978  0.4082
 7614TIP3   OH222805   5.626   3.886   2.782  0.2872  0.1786 -0.5241
 7614TIP3    H122806   5.717   3.877   2.812 -0.5220 -2.2009  1.5869
 7614TIP3    H222807   5.612   3.811   2.724 -1.2205 -1.6075  1.9568
 7615TIP3   OH222808   6.760   1.095   0.920 -0.5864  0.0145  0.5886
 7615TIP3    H122809   6.713   1.178   0.919  0.6013  0.7177  0.9256
 7615TIP3    H222810   6.844   1.114   0.878 -0.2847 -1.0071  0.6879
 7616TIP3   OH222811   2.164   3.913   3.274  0.1930  0.0933  0.0220
 7616TIP3    H122812   2.172   3.827   3.315  1.3456  1.4108  2.7711
 7616TIP3    H222813   2.243   3.960   3.301 -0.1818  1.9165 -1.7767
 7617TIP3   OH222814   1.538   1.264   3.870 -0.0002 -0.1766  0.1778
 7617TIP3    H122815   1.469   1.198   3.864 -0.9307  0.5561  1.8891
 7617TIP3    H222816   1.521   1.309   3.953  1.9678  0.6964  0.1806
 7618TIP3   OH222817   3.421   4.966   1.166  0.0131  0.4197 -0.4605
 7618TIP3    H122818   3.449   4.989   1.077 -0.4279  0.7342 -0.5172
 7618TIP3    H222819   3.482   5.013   1.222  1.0271 -0.6836 -0.5891
 7619TIP3   OH222820   5.813   0.547   3.257 -0.1306 -0.2827 -0.1646
 7619TIP3    H122821   5.762   0.494   3.317 -0.3935 -1.4149 -1.3339
 7619TIP3    H222822   5.883   0.584   3.311 -0.7229 -0.7377  0.9491
 7620TIP3   OH222823   3.572   4.699   5.309 -0.2723  0.6766  0.5721
 7620TIP3    H122824   3.526   4.615   5.309 -1.3000  1.2121 -0.8676
 7620TIP3    H222825   3.665   4.674   5.302 -0.3716 -0.3697  2.3250
 7621TIP3   OH222826   3.929   3.730   0.474  0.4573  0.3891 -0.1877
 7621TIP3    H122827   3.862   3.752   0.409 -0.7243  0.0241  0.8760
 7621TIP3    H222828   3.998   3.687   0.423  0.3656  1.6561 -1.4585
 7622TIP3   OH222829   7.161   5.403   5.188 -0.3512  0.3105 -0.3720
 7622TIP3    H122830   7.082   5.386   5.240  0.4162 -0.6517  0.5204
 7622TIP3    H222831   7.226   5.343   5.223  0.6843  0.8251 -1.3510
 7623TIP3   OH222832   7.114   3.341   0.616 -0.2092 -0.3844 -0.3031
 7623TIP3    H122833   7.163   3.421   0.596 -2.1400  0.5366 -1.6434
 7623TIP3    H222834   7.031   3.351   0.569 -1.0595 -2.5838  0.5946
 7624TIP3   OH222835   4.323   2.922   4.531  0.3516 -0.2837 -0.2077
 7624TIP3    H122836   4.252   2.900   4.592  0.7397 -1.3156 -0.1118
 7624TIP3    H222837   4.280   2.974   4.463 -0.7182 -1.7027 -0.6656
 7625TIP3   OH222838   2.512   2.703   4.860 -0.0003 -0.1963 -0.1630
 7625TIP3    H122839   2.541   2.706   4.769  0.8042 -0.6299  0.0669
 7625TIP3    H222840   2.454   2.628   4.865 -1.2379  0.6900 -0.6330
 7626TIP3   OH222841   4.049   1.356   0.355  0.1645 -0.0198 -0.1040
 7626TIP3    H122842   3.989   1.342   0.428  0.7205  0.6762  0.5082
 7626TIP3    H222843   4.035   1.447   0.329  1.7907  0.5698  0.8822
 7627TIP3   OH222844   0.605   4.939   2.298 -0.4138 -0.4112 -0.2548
 7627TIP3    H122845   0.612   4.877   2.371 -2.8158  0.2820  0.6625
 7627TIP3    H222846   0.536   5.000   2.325 -0.4711  0.6387 -2.5699
 7628TIP3   OH222847   5.993   6.113   2.381 -0.1866  0.2630 -0.2487
 7628TIP3    H122848   5.923   6.146   2.324 -0.0716 -2.0485 -1.8521
 7628TIP3    H222849   6.073   6.132   2.333  0.0441 -0.0847 -0.0047
 7629TIP3   OH222850   5.403   4.099   4.054  0.4081 -0.3089 -0.1745
 7629TIP3    H122851   5.313   4.072   4.037  0.2098  0.6612 -0.8060
 7629TIP3    H222852   5.416   4.084   4.147 -0.9194  0.9248  0.2498
 7630TIP3   OH222853   1.892   5.028   3.236 -0.5644 -0.7614 -0.2182
 7630TIP3    H122854   1.859   5.042   3.325 -0.1916 -1.6471  0.0653
 7630TIP3    H222855   1.872   5.110   3.191  0.4374  0.2403  1.0411
 7631TIP3   OH222856   0.872   3.734   0.659 -0.0317 -0.1624 -0.0432
 7631TIP3    H122857   0.904   3.731   0.749  1.8755  0.0849 -0.6695
 7631TIP3    H222858   0.875   3.643   0.629 -0.5939 -0.2333  0.0919
 7632TIP3   OH222859   2.580   5.447   5.439 -0.3056 -0.2118  0.2225
 7632TIP3    H122860   2.628   5.431   5.521  0.9889  3.4740  0.4029
 7632TIP3    H222861   2.636   5.410   5.371  0.7598  0.3657  0.7487
 7633TIP3   OH222862   1.766   2.231   2.168 -0.0070 -0.1311 -0.2201
 7633TIP3    H122863   1.679   2.257   2.138 -0.2264 -0.8392 -0.2079
 7633TIP3    H222864   1.771   2.137   2.148  0.0672 -0.4985  1.4306
 7634TIP3   OH222865   3.034   1.042   0.198 -0.5003  0.4337  0.0172
 7634TIP3    H122866   3.014   1.056   0.106 -0.0369  0.4733 -0.0798
 7634TIP3    H222867   3.089   0.963   0.199  0.6231  1.2007  0.1204
 7635TIP3   OH222868   3.475   3.886   1.663 -0.5811 -0.1693  0.3696
 7635TIP3    H122869   3.561   3.907   1.697 -0.1767  0.5887 -1.0477
 7635TIP3    H222870   3.452   3.960   1.607 -1.1525 -1.3629 -1.0653
 7636TIP3   OH222871   4.685   3.587   3.891 -0.8352 -0.2627  0.4668
 7636TIP3    H122872   4.699   3.668   3.941 -1.1692 -0.9898  1.7951
 7636TIP3    H222873   4.590   3.581   3.882 -0.8084 -0.4960  0.3377
 7637TIP3   OH222874   6.489   2.145   5.147  0.1141 -0.0701 -0.6151
 7637TIP3    H122875   6.529   2.174   5.229  1.3535  0.4552 -1.3772
 7637TIP3    H222876   6.502   2.050   5.147  2.5433  0.1988 -1.4001
 7638TIP3   OH222877   2.349   4.227   5.580 -0.7352 -0.1229 -0.4694
 7638TIP3    H122878   2.316   4.315   5.595  0.0657 -0.1112  1.7202
 7638TIP3    H222879   2.432   4.240   5.533 -0.3957  0.3580  0.2338
 7639TIP3   OH222880   3.424   1.348   5.585  0.4447 -0.6672 -0.0447
 7639TIP3    H122881   3.348   1.359   5.641  0.8602 -2.9553  1.0904
 7639TIP3    H222882   3.391   1.302   5.508  0.5742 -1.1797  0.2030
 7640TIP3   OH222883   5.293   3.331   0.136 -0.7199  0.0786 -0.3918
 7640TIP3    H122884   5.382   3.335   0.101  0.1670  2.4231  1.7929
 7640TIP3    H222885   5.239   3.376   0.071  0.2963  1.4770 -0.3092
 7641TIP3   OH222886   0.402   5.048   4.170 -0.5032 -0.0238  0.4812
 7641TIP3    H122887   0.393   5.022   4.262  0.8665 -0.5825  0.4884
 7641TIP3    H222888   0.335   4.998   4.124 -0.4676 -0.5988  1.0368
 7642TIP3   OH222889   4.429   5.063   1.189 -0.5636 -0.2572  0.1286
 7642TIP3    H122890   4.397   5.150   1.165  1.3567  0.6748  0.7659
 7642TIP3    H222891   4.353   5.006   1.176 -1.7728  1.4284 -0.6664
 7643TIP3   OH222892   3.242   5.110   0.601 -0.0027 -0.2387 -0.0800
 7643TIP3    H122893   3.299   5.115   0.524  0.0760  0.0641 -0.0059
 7643TIP3    H222894   3.249   5.020   0.630 -0.6223 -0.5581 -0.8697
 7644TIP3   OH222895   6.948   4.297   5.114 -0.4988 -0.3326 -0.3377
 7644TIP3    H122896   6.857   4.274   5.095 -0.8636  1.9797 -1.7997
 7644TIP3    H222897   6.954   4.292   5.209 -2.3467  0.0168 -0.1528
 7645TIP3   OH222898   6.152   1.858   4.217  0.1979  0.0227 -0.0738
 7645TIP3    H122899   6.181   1.944   4.185 -2.1804  1.0494  0.3221
 7645TIP3    H222900   6.130   1.810   4.137  1.1225 -0.0720 -0.2802
 7646TIP3   OH222901   0.374   2.003   5.397 -0.1312 -0.1286 -0.1692
 7646TIP3    H122902   0.418   1.971   5.476 -0.0124  0.0406 -0.1667
 7646TIP3    H222903   0.301   1.942   5.384  0.2744 -0.5817 -0.3385
 7647TIP3   OH222904   4.331   1.739   1.135  0.6819  0.0454 -0.1062
 7647TIP3    H122905   4.297   1.829   1.138 -0.0571 -0.2470  2.3236
 7647TIP3    H222906   4.281   1.697   1.066  1.3049  1.5644 -1.5571
 7648TIP3   OH222907   5.958   2.070   5.852  0.5822  0.6532 -0.3933
 7648TIP3    H122908   5.953   2.109   5.939 -1.1942  0.7506 -0.4836
 7648TIP3    H222909   5.955   2.144   5.792  0.6964  0.5427 -0.5368
 7649TIP3   OH222910   5.770   0.775   0.988 -0.1073 -0.6991  0.2152
 7649TIP3    H122911   5.680   0.756   1.015  0.3035  0.1140  2.3331
 7649TIP3    H222912   5.780   0.870   1.002  0.3665 -0.3182 -2.3194
 7650TIP3   OH222913   3.742   5.918   2.896  0.5150 -0.7371 -0.4309
 7650TIP3    H122914   3.693   5.843   2.863  0.4344 -1.8015  1.8837
 7650TIP3    H222915   3.779   5.960   2.818  1.4170 -3.7604 -1.7544
 7651TIP3   OH222916   1.821   3.477   0.285  0.4224  0.3599  0.3792
 7651TIP3    H122917   1.857   3.536   0.219  2.1952 -0.6066  0.4333
 7651TIP3    H222918   1.822   3.390   0.244  1.5230 -0.2577  1.6114
 7652TIP3   OH222919   6.348   6.448   3.326  0.1016  0.4115  0.6858
 7652TIP3    H122920   6.320   6.375   3.382  0.6467 -0.4294 -0.1097
 7652TIP3    H222921   6.334   6.416   3.237  2.2290  0.4756  0.2673
 7653TIP3   OH222922   3.237   5.889   2.498  0.9781  0.0566  0.0749
 7653TIP3    H122923   3.220   5.813   2.554  0.6673 -0.9836 -1.3468
 7653TIP3    H222924   3.226   5.965   2.555 -0.5015 -0.8930  1.1331
 7654TIP3   OH222925   6.534   1.484   3.914  0.0357 -0.6552  0.5350
 7654TIP3    H122926   6.555   1.492   3.821  0.8693 -0.4390  0.7363
 7654TIP3    H222927   6.440   1.463   3.916 -0.1800  0.1643 -0.3218
 7655TIP3   OH222928   5.846   2.832   5.430 -0.6616 -0.0466  0.0832
 7655TIP3    H122929   5.940   2.843   5.445 -0.6969  0.5240 -0.0967
 7655TIP3    H222930   5.839   2.807   5.338 -0.7029  0.0976  0.0480
 7656TIP3   OH222931   2.007   3.696   1.757  0.0978  0.2692  0.0304
 7656TIP3    H122932   2.012   3.697   1.661  2.6789 -0.7098  0.0694
 7656TIP3    H222933   2.053   3.776   1.784  0.3435 -0.0070  0.4413
 7657TIP3   OH222934   1.192   2.425   0.234  0.0697 -0.3695 -0.1877
 7657TIP3    H122935   1.276   2.450   0.273 -0.2768 -0.6802  0.8013
 7657TIP3    H222936   1.150   2.371   0.301 -1.1469  0.2056 -0.4534
 7658TIP3   OH222937   2.537   0.848   4.648  0.5805 -0.3358 -0.5607
 7658TIP3    H122938   2.606   0.851   4.581  0.8432  1.4389 -0.2528
 7658TIP3    H222939   2.584   0.831   4.730  0.6369  0.6471 -0.3836
 7659TIP3   OH222940   7.133   0.818   1.918  0.0062  0.0709 -0.1559
 7659TIP3    H122941   7.117   0.784   1.830 -1.2051  0.5572 -0.1444
 7659TIP3    H222942   7.074   0.892   1.927  3.0096  2.7063 -0.4043
 7660TIP3   OH222943   5.069   5.013   1.573 -0.0339  0.3089 -0.6631
 7660TIP3    H122944   5.040   4.925   1.551 -2.3418  1.2735 -1.8221
 7660TIP3    H222945   5.072   5.060   1.490  0.0411  1.6269  0.0506
 7661TIP3   OH222946   7.145   4.828   4.544  0.6200 -0.0678 -0.1137
 7661TIP3    H122947   7.093   4.907   4.552  2.6016  1.1856  1.3842
 7661TIP3    H222948   7.117   4.772   4.616  0.4281  0.0339 -0.1111
 7662TIP3   OH222949   0.641   6.013   0.480  0.0875 -0.1119 -0.1063
 7662TIP3    H122950   0.667   6.104   0.492  0.8893 -0.1101 -1.5776
 7662TIP3    H222951   0.724   5.966   0.470 -0.2336 -1.2573  1.9997
 7663TIP3   OH222952   5.735   0.825   3.224  0.1439 -0.0255 -0.2668
 7663TIP3    H122953   5.816   0.859   3.261  0.1014  0.0088 -0.2038
 7663TIP3    H222954   5.679   0.902   3.214 -0.0933 -0.1268  0.2359
 7664TIP3   OH222955   1.316   0.239   5.582 -0.0845 -0.0186  0.2844
 7664TIP3    H122956   1.320   0.306   5.650 -0.7986 -0.4404  0.7558
 7664TIP3    H222957   1.289   0.286   5.503 -1.9186  0.0696  0.9126
 7665TIP3   OH222958   2.488   2.435   5.031 -0.3547 -0.3005  0.7300
 7665TIP3    H122959   2.572   2.477   5.046  0.4714 -0.8335 -1.9312
 7665TIP3    H222960   2.426   2.488   5.081  0.9664  2.6262 -0.4913
 7666TIP3   OH222961   3.296   1.430   5.335  0.1603  0.3903  0.2154
 7666TIP3    H122962   3.368   1.486   5.364  0.1392 -0.3150  1.6872
 7666TIP3    H222963   3.259   1.476   5.260  0.3240  2.2161  1.2093
 7667TIP3   OH222964   5.571   0.402   1.601 -0.2509 -0.2212 -0.1799
 7667TIP3    H122965   5.623   0.361   1.670 -1.1572  0.3768  0.8729
 7667TIP3    H222966   5.631   0.406   1.526  1.5413  1.2078  1.2371
 7668TIP3   OH222967   7.167   4.773   2.217  0.7895 -0.1769  0.4348
 7668TIP3    H122968   7.208   4.778   2.303  0.5106  0.2288  0.5454
 7668TIP3    H222969   7.222   4.713   2.167  1.7247  0.6505  0.4584
 7669TIP3   OH222970   2.273   3.857   5.575  0.0144 -0.0130  0.2059
 7669TIP3    H122971   2.355   3.824   5.540  0.3190  0.1656  0.7229
 7669TIP3    H222972   2.253   3.934   5.522  0.3880  0.1687  0.3285
 7670TIP3   OH222973   2.321   4.465   5.847  0.5268 -0.6303 -0.1579
 7670TIP3    H122974   2.327   4.400   5.778  0.3644  1.1840 -1.9589
 7670TIP3    H222975   2.351   4.546   5.807 -2.7965  1.2489  0.8367
 7671TIP3   OH222976   6.923   4.967   4.705  0.3961 -0.0429  0.7387
 7671TIP3    H122977   6.917   4.963   4.800 -0.0914 -2.0546  0.6563
 7671TIP3    H222978   6.861   4.902   4.673  0.3960  0.7319 -0.9773
 7672TIP3   OH222979   2.655   2.054   1.177 -0.2400 -0.0291 -0.0672
 7672TIP3    H122980   2.702   2.055   1.261 -0.2378 -0.7389 -0.0590
 7672TIP3    H222981   2.650   2.147   1.152 -1.5954  0.3590  1.4591
 7673TIP3   OH222982   3.649   0.351   2.544  0.1574  0.0486  0.0821
 7673TIP3    H122983   3.599   0.412   2.598 -0.4009 -0.5857  0.3084
 7673TIP3    H222984   3.719   0.403   2.506 -0.9406  1.0761 -0.6154
 7674TIP3   OH222985   7.056   2.836   2.832  0.3952 -0.2241  0.3272
 7674TIP3    H122986   6.989   2.889   2.790  1.2982 -1.1476 -2.4790
 7674TIP3    H222987   7.104   2.898   2.888 -0.5807  1.1842 -0.3396
 7675TIP3   OH222988   0.670   6.615   5.633  0.2404 -0.0086  0.2200
 7675TIP3    H122989   0.711   6.692   5.672 -2.7532  1.6581  0.3739
 7675TIP3    H222990   0.682   6.545   5.698  0.1659  1.2363  1.6200
 7676TIP3   OH222991   2.497   5.458   2.082  0.3234 -0.0578 -0.6381
 7676TIP3    H122992   2.530   5.434   2.168 -2.4392  0.9029  0.7912
 7676TIP3    H222993   2.576   5.483   2.033  1.9002  0.3387  1.9066
 7677TIP3   OH222994   4.706   5.151   0.946  0.2602  0.0991  0.6881
 7677TIP3    H122995   4.778   5.203   0.913  0.2269 -0.1381  0.2262
 7677TIP3    H222996   4.630   5.209   0.943 -0.0296 -0.2928 -0.9455
 7678TIP3   OH222997   2.783   2.685   0.543  0.7408  0.2023  0.2000
 7678TIP3    H122998   2.850   2.621   0.519  0.3417  0.2984 -1.2974
 7678TIP3    H222999   2.703   2.633   0.553  0.5909  0.3531 -0.1945
 7679TIP3   OH223000   4.665   5.900   1.819  0.3271 -0.4115 -0.6143
 7679TIP3    H123001   4.697   5.927   1.905  2.9544 -0.3310 -1.5448
 7679TIP3    H223002   4.591   5.958   1.802 -1.1500 -1.3117  2.0922
 7680TIP3   OH223003   4.175   4.722   3.549  0.3095 -0.8132  0.1513
 7680TIP3    H123004   4.212   4.802   3.587 -0.8497  0.1683 -0.7080
 7680TIP3    H223005   4.220   4.712   3.465  1.5410 -1.9437  0.9128
 7681TIP3   OH223006   2.856   3.333   3.317 -0.1025 -0.6740  0.1567
 7681TIP3    H123007   2.946   3.363   3.330 -0.3724  0.5264 -0.6228
 7681TIP3    H223008   2.807   3.374   3.389 -0.0937 -1.0285  0.3658
 7682TIP3   OH223009   5.250   1.920   3.319  0.0996  0.2059  0.2381
 7682TIP3    H123010   5.175   1.972   3.292  0.7410  1.4594  0.8050
 7682TIP3    H223011   5.308   1.920   3.243  0.3872  0.8858  0.4487
 7683TIP3   OH223012   5.716   6.159   0.659 -0.1907 -0.1675  0.3100
 7683TIP3    H123013   5.709   6.186   0.751 -1.3406 -1.2762  0.5806
 7683TIP3    H223014   5.627   6.166   0.626  0.0116 -0.8442 -0.4039
 7684TIP3   OH223015   6.065   3.540   2.993  0.3399  0.0167  0.3522
 7684TIP3    H123016   6.011   3.605   3.038 -0.4866 -0.8792  0.6854
 7684TIP3    H223017   6.090   3.478   3.061 -1.4503 -1.7053 -0.4645
 7685TIP3   OH223018   3.897   1.462   0.606  0.0088  0.0043  0.1029
 7685TIP3    H123019   3.808   1.455   0.640  0.0901 -0.1405  0.2922
 7685TIP3    H223020   3.908   1.555   0.587  0.1925  0.2025  1.1264
 7686TIP3   OH223021   2.891   3.066   1.391  0.2035 -0.1786 -0.4192
 7686TIP3    H123022   2.895   3.021   1.475 -0.9271  0.3980 -0.0272
 7686TIP3    H223023   2.813   3.030   1.348 -0.6429  1.2375 -0.1559
 7687TIP3   OH223024   3.601   1.651   5.067 -0.3386  0.4597  0.0339
 7687TIP3    H123025   3.687   1.657   5.025 -0.3829  0.5907 -0.0363
 7687TIP3    H223026   3.556   1.582   5.017 -0.8305  1.4360 -0.9092
 7688TIP3   OH223027   2.262   1.871   1.096 -0.0476  0.1780  0.3999
 7688TIP3    H123028   2.354   1.863   1.119  0.1534  0.3351 -0.3299
 7688TIP3    H223029   2.257   1.951   1.044 -0.4471 -0.2745 -0.2721
 7689TIP3   OH223030   1.384   1.243   2.861  0.3803  0.0810  0.0344
 7689TIP3    H123031   1.344   1.255   2.775 -0.5926 -1.1295  0.3014
 7689TIP3    H223032   1.458   1.305   2.861 -0.0886  0.6920 -1.3429
 7690TIP3   OH223033   3.344   3.668   2.260 -0.0558  0.0119 -0.4154
 7690TIP3    H123034   3.334   3.726   2.336  0.3023  2.0241 -1.8209
 7690TIP3    H223035   3.353   3.728   2.186 -1.1780 -1.8832 -2.1629
 7691TIP3   OH223036   4.903   3.765   3.001 -0.1140  0.3497  0.2018
 7691TIP3    H123037   4.886   3.713   3.080  0.6785  0.2842  0.3434
 7691TIP3    H223038   4.852   3.723   2.933 -3.1709  2.0883  1.2229
 7692TIP3   OH223039   6.493   0.028   4.003 -0.3579 -0.0876 -0.1506
 7692TIP3    H123040   6.477  -0.028   3.927  2.1109 -0.6077 -0.3932
 7692TIP3    H223041   6.408   0.038   4.045 -1.4711 -1.1971 -2.0253
 7693TIP3   OH223042   0.261   3.041   2.527 -0.1302  0.2525 -0.1267
 7693TIP3    H123043   0.171   3.018   2.506 -0.7424 -0.0058  2.3813
 7693TIP3    H223044   0.314   2.975   2.483 -1.2588 -0.4472 -0.4810
 7694TIP3   OH223045   2.946   3.120   5.586 -0.2303  0.2243  0.9538
 7694TIP3    H123046   2.888   3.080   5.651  0.9931 -1.4584  1.0767
 7694TIP3    H223047   2.954   3.054   5.517  1.5962  0.3658  0.9878
 7695TIP3   OH223048   2.373   0.550   2.922 -0.0980 -0.2629  0.1510
 7695TIP3    H123049   2.450   0.598   2.891 -0.5283 -0.2070 -0.8806
 7695TIP3    H223050   2.327   0.612   2.979 -0.4787  0.4837 -0.9156
 7696TIP3   OH223051   3.313   5.431   5.118  0.3657 -0.6006 -0.4059
 7696TIP3    H123052   3.364   5.511   5.124 -0.0762 -0.4053  1.2022
 7696TIP3    H223053   3.354   5.371   5.181 -0.0193 -1.2273 -0.7386
 7697TIP3   OH223054   3.695   3.611   1.278 -0.2699 -0.6700  0.0611
 7697TIP3    H123055   3.720   3.520   1.261 -1.3095 -1.1077  0.7873
 7697TIP3    H223056   3.663   3.643   1.193  2.1005 -0.2641 -0.7527
 7698TIP3   OH223057   0.820   6.558   1.889 -0.0324 -0.5539  0.1573
 7698TIP3    H123058   0.838   6.637   1.837 -0.0833  0.0353  1.0207
 7698TIP3    H223059   0.728   6.539   1.873 -0.9930  1.5713  2.5740
 7699TIP3   OH223060   1.390   2.479   3.029 -0.6769  0.1038  0.4563
 7699TIP3    H123061   1.471   2.526   3.010 -0.3788 -1.1715 -1.7793
 7699TIP3    H223062   1.335   2.493   2.952 -1.7625 -0.7690  1.0365
 7700TIP3   OH223063   4.974   0.624   4.830 -0.2400  0.5986 -0.2280
 7700TIP3    H123064   4.879   0.615   4.837 -0.2095 -0.5221 -0.9669
 7700TIP3    H223065   4.990   0.634   4.736  0.3585  0.8815 -0.0966
 7701TIP3   OH223066   0.785   3.035   0.203 -0.2164 -0.2318  0.5156
 7701TIP3    H123067   0.790   3.093   0.128  0.6872 -0.6795  0.2230
 7701TIP3    H223068   0.788   3.093   0.279 -0.6462  0.1855  0.2181
 7702TIP3   OH223069   4.587   2.283   3.161  0.5627 -0.1627 -0.2417
 7702TIP3    H123070   4.574   2.304   3.253  1.0988  0.0348 -0.2100
 7702TIP3    H223071   4.640   2.355   3.126  0.2312 -0.1536 -0.7424
 7703TIP3   OH223072   6.557   6.581   2.551 -0.5329 -0.1075  0.1804
 7703TIP3    H123073   6.637   6.600   2.600 -0.1506 -1.7490  0.2249
 7703TIP3    H223074   6.569   6.625   2.467  1.0821 -1.5232 -0.3771
 7704TIP3   OH223075   3.142   5.329   5.802  0.1743  0.2400  0.3287
 7704TIP3    H123076   3.219   5.385   5.812  0.4476  0.2790 -1.5801
 7704TIP3    H223077   3.072   5.390   5.778  0.1438 -0.0623 -0.3729
 7705TIP3   OH223078   1.569   5.024   4.024 -0.1580 -0.2471  0.4323
 7705TIP3    H123079   1.647   5.062   3.983 -1.3352  0.5691 -1.1653
 7705TIP3    H223080   1.584   5.035   4.118  1.8884 -0.6268  0.1987
 7706TIP3   OH223081   2.282   0.291   5.166 -0.3538  0.2738 -0.4466
 7706TIP3    H123082   2.227   0.273   5.242 -0.1921  0.8320 -0.1931
 7706TIP3    H223083   2.307   0.205   5.134 -0.1401  0.0379  0.3331
 7707TIP3   OH223084   1.770   0.235   1.919 -0.8755 -0.2880 -0.2500
 7707TIP3    H123085   1.784   0.212   2.011 -0.8910 -1.2714 -0.4841
 7707TIP3    H223086   1.843   0.195   1.872 -1.3510 -0.5632 -0.7704
 7708TIP3   OH223087   1.992   0.769   0.588 -0.1476 -0.0984  0.4552
 7708TIP3    H123088   1.965   0.763   0.496  2.6217 -0.8552 -0.3966
 7708TIP3    H223089   1.996   0.863   0.605 -0.1565  0.0684 -0.3951
 7709TIP3   OH223090   5.414   5.417   3.374  0.5855  0.1825  0.4082
 7709TIP3    H123091   5.353   5.483   3.339  1.3781 -0.1478 -1.7814
 7709TIP3    H223092   5.497   5.436   3.330  1.2315 -1.3009  0.9403
 7710TIP3   OH223093   5.580   3.082   3.978 -0.3079 -0.0634 -0.1244
 7710TIP3    H123094   5.538   3.019   3.918  0.2482 -0.1798 -0.4012
 7710TIP3    H223095   5.588   3.162   3.926  1.0967 -0.4639 -0.5638
 7711TIP3   OH223096   4.194   6.027   4.982  0.6504 -0.2599  0.9372
 7711TIP3    H123097   4.265   5.991   4.929  0.6094  0.5741  0.2839
 7711TIP3    H223098   4.173   6.111   4.940  0.8654  0.6118  2.5036
 7712TIP3   OH223099   5.049   3.692   4.878  0.5608 -0.2107  0.9090
 7712TIP3    H123100   5.114   3.757   4.902 -0.3961  0.5907  1.3901
 7712TIP3    H223101   4.965   3.738   4.884 -0.0097 -1.0229 -0.3678
 7713TIP3   OH223102   3.752   1.208   4.886  0.3778 -0.2542  0.1813
 7713TIP3    H123103   3.827   1.246   4.932 -0.3641 -0.0579  1.2437
 7713TIP3    H223104   3.751   1.116   4.913  0.1667 -0.2294  0.2562
 7714TIP3   OH223105   5.580   4.068   0.385 -0.5203  0.3633 -0.1400
 7714TIP3    H123106   5.526   4.010   0.332 -2.3363  2.3070 -0.5837
 7714TIP3    H223107   5.608   4.016   0.460  0.1238 -1.7734 -1.7856
 7715TIP3   OH223108   1.644   3.054   5.660 -0.2560 -0.1477  0.2039
 7715TIP3    H123109   1.562   3.097   5.682 -0.8375 -0.9243 -0.4218
 7715TIP3    H223110   1.673   3.014   5.742  0.0693  1.0311  0.6916
 7716TIP3   OH223111   2.961   5.548   1.829 -0.2651  0.2114  0.3569
 7716TIP3    H123112   3.019   5.530   1.903  0.7568  1.1094 -0.2002
 7716TIP3    H223113   3.011   5.519   1.752 -1.0431 -0.0997 -0.0432
 7717TIP3   OH223114   1.738   2.688   2.252 -0.5201 -0.0169  0.6809
 7717TIP3    H123115   1.682   2.690   2.329 -2.0315 -0.2356 -0.3518
 7717TIP3    H223116   1.756   2.595   2.237 -0.0459  0.0379  0.8789
 7718TIP3   OH223117   1.125   2.179   3.859  0.4020 -0.4121  0.0883
 7718TIP3    H123118   1.175   2.197   3.939  1.3860 -1.0365 -0.3641
 7718TIP3    H223119   1.106   2.085   3.863  1.5446 -0.7094 -0.9916
 7719TIP3   OH223120   1.408   0.699   1.553 -0.5437 -0.1349  0.0982
 7719TIP3    H123121   1.333   0.663   1.601 -0.4756 -0.5655 -0.1170
 7719TIP3    H223122   1.484   0.677   1.607 -0.3859 -1.2920 -0.5725
 7720TIP3   OH223123   6.439   4.425   4.540 -0.0868  0.2655  0.4252
 7720TIP3    H123124   6.387   4.502   4.562  0.4639  0.7484  0.0428
 7720TIP3    H223125   6.408   4.400   4.452  0.3996  0.6204  0.1498
 7721TIP3   OH223126   4.800   2.796   5.181  0.2697  0.9505  0.3496
 7721TIP3    H123127   4.849   2.874   5.154  0.0659  0.7389 -0.6732
 7721TIP3    H223128   4.716   2.804   5.137  0.3726 -0.0056 -0.0540
 7722TIP3   OH223129   2.785   3.884   4.575  0.4913  0.1475  0.1054
 7722TIP3    H123130   2.823   3.861   4.660 -0.3295 -0.5442  0.3039
 7722TIP3    H223131   2.756   3.800   4.539 -0.1834  0.5647 -0.3504
 7723TIP3   OH223132   1.433   0.153   4.207 -0.4014  0.7871 -0.0432
 7723TIP3    H123133   1.443   0.058   4.202 -1.5842  0.5748  1.1195
 7723TIP3    H223134   1.506   0.187   4.155  1.4993 -0.7194  1.4715
 7724TIP3   OH223135   0.928   4.567   4.973 -0.6410 -0.1894 -0.3179
 7724TIP3    H123136   0.993   4.580   4.903 -2.3274 -1.0182 -2.1224
 7724TIP3    H223137   0.966   4.499   5.028  0.5299  0.1460 -0.6679
 7725TIP3   OH223138   0.565   0.716   2.872  0.3476  0.0582 -0.3669
 7725TIP3    H123139   0.585   0.636   2.822 -0.8162  0.6683 -1.9049
 7725TIP3    H223140   0.563   0.687   2.963  1.0796 -1.4292 -0.7848
 7726TIP3   OH223141   1.715   5.410   2.554  0.2529  0.0193 -0.2242
 7726TIP3    H123142   1.810   5.394   2.549  0.2552  0.0445 -0.2634
 7726TIP3    H223143   1.697   5.419   2.647  0.3574  0.4482 -0.2465
 7727TIP3   OH223144   5.522   3.909   5.827 -0.0829 -0.3808 -0.3487
 7727TIP3    H123145   5.541   3.833   5.882  0.2355  0.3905  0.6367
 7727TIP3    H223146   5.493   3.872   5.744 -1.5382 -1.5941  0.6400
 7728TIP3   OH223147   4.570   4.586   2.690 -0.4791 -0.0762  0.0543
 7728TIP3    H123148   4.594   4.560   2.779 -2.5103 -0.3137  0.5857
 7728TIP3    H223149   4.646   4.635   2.658 -0.7316  2.4733  2.9375
 7729TIP3   OH223150   0.427   4.231   5.021 -0.4061 -0.1818 -0.6459
 7729TIP3    H123151   0.358   4.167   5.038  1.1863 -1.8887 -0.3012
 7729TIP3    H223152   0.469   4.201   4.941  0.3588  0.4396 -0.4885
 7730TIP3   OH223153   5.786   6.386   4.327  0.4089 -0.3054 -0.1109
 7730TIP3    H123154   5.797   6.419   4.237  0.3107 -1.4932 -0.5858
 7730TIP3    H223155   5.875   6.383   4.362  0.3699  0.9097  0.1225
 7731TIP3   OH223156   6.588   0.223   4.160  0.4630 -0.1338 -0.4666
 7731TIP3    H123157   6.678   0.254   4.154 -0.2866  2.0306 -1.9049
 7731TIP3    H223158   6.583   0.151   4.097  1.3593 -0.8345  0.2408
 7732TIP3   OH223159   0.076   4.331   4.924 -0.0480 -0.1339  0.9749
 7732TIP3    H123160   0.087   4.366   5.013  1.6555 -1.1817  1.2019
 7732TIP3    H223161   0.022   4.253   4.936  1.5940 -1.2464  1.3489
 7733TIP3   OH223162   3.143   1.339   1.567 -0.1163 -0.7982 -0.4346
 7733TIP3    H123163   3.113   1.351   1.477  0.4150 -0.5784 -0.5847
 7733TIP3    H223164   3.230   1.377   1.569 -0.7013  0.5615  0.5622
 7734TIP3   OH223165   5.037   3.503   3.591 -0.6405 -0.5878  1.2283
 7734TIP3    H123166   5.003   3.529   3.676  0.1490  2.1123  0.8197
 7734TIP3    H223167   5.132   3.512   3.599 -0.6118  0.7275 -0.1959
 7735TIP3   OH223168   0.748   4.598   4.266  0.3823 -0.1587 -0.1230
 7735TIP3    H123169   0.754   4.510   4.229 -1.8285 -0.6590  0.5211
 7735TIP3    H223170   0.665   4.598   4.314 -0.0554  2.5080 -0.7006
 7736TIP3   OH223171   5.606   4.455   1.642  0.2322 -0.1671 -0.2414
 7736TIP3    H123172   5.676   4.408   1.596  0.9191 -1.8036  2.2878
 7736TIP3    H223173   5.650   4.515   1.701 -0.6292  1.3835 -1.0893
 7737TIP3   OH223174   0.960   6.341   3.154  0.2274  0.0148 -0.3418
 7737TIP3    H123175   0.931   6.341   3.063  1.2782 -0.5264 -0.6869
 7737TIP3    H223176   1.055   6.347   3.150  0.4537 -1.9499  0.6318
 7738TIP3   OH223177   5.289   6.711   3.771  0.0679 -0.0965 -0.1811
 7738TIP3    H123178   5.361   6.658   3.736  0.2116 -0.2197  0.2838
 7738TIP3    H223179   5.329   6.796   3.791  0.6335 -0.8339  2.1145
 7739TIP3   OH223180   0.738   2.878   5.433  0.0176  0.1316  0.3794
 7739TIP3    H123181   0.761   2.828   5.354 -1.3400 -1.1865  0.7771
 7739TIP3    H223182   0.733   2.969   5.403 -1.0149 -0.4045 -1.2040
 7740TIP3   OH223183   0.330   1.059   3.952  0.1521 -0.1416 -0.5953
 7740TIP3    H123184   0.295   1.142   3.983 -0.2272 -0.4741 -0.1109
 7740TIP3    H223185   0.424   1.064   3.970 -0.0883 -0.4172  0.8686
 7741TIP3   OH223186   1.791   0.770   5.239  0.0141  0.1938 -0.1056
 7741TIP3    H123187   1.882   0.740   5.241  0.3881  0.7286 -3.2490
 7741TIP3    H223188   1.745   0.714   5.302  2.2790 -0.8700  0.7116
 7742TIP3   OH223189   2.075   4.861   5.839  0.1503 -0.2630 -0.1658
 7742TIP3    H123190   1.994   4.877   5.791 -0.0775  2.6948  1.0400
 7742TIP3    H223191   2.051   4.865   5.931  1.5799  0.2814  0.2206
 7743TIP3   OH223192   0.845   3.751   1.383 -0.2802 -0.2982 -0.8221
 7743TIP3    H123193   0.800   3.831   1.356  1.0287  0.3377 -1.2310
 7743TIP3    H223194   0.780   3.702   1.432 -1.0104  1.1940 -0.2296
 7744TIP3   OH223195   1.310   1.177   5.389 -0.4100 -0.1689  0.0495
 7744TIP3    H123196   1.236   1.116   5.392 -1.0519  0.5295 -0.9516
 7744TIP3    H223197   1.363   1.145   5.316  0.2602 -0.6360  0.7317
 7745TIP3   OH223198   2.925   3.609   0.132 -0.3809  0.4567 -0.3582
 7745TIP3    H123199   2.958   3.692   0.168  0.2110  1.4432 -2.9914
 7745TIP3    H223200   2.851   3.587   0.189  0.4735  1.8947  1.4085
 7746TIP3   OH223201   1.837   1.322   4.601 -0.8384 -0.3363  0.6749
 7746TIP3    H123202   1.860   1.231   4.617  0.8017  0.1382  1.2336
 7746TIP3    H223203   1.910   1.372   4.638 -2.3883  1.2783  1.7221
 7747TIP3   OH223204   1.571   0.940   2.976 -0.1445 -0.6434 -0.1661
 7747TIP3    H123205   1.589   0.853   3.012 -2.9301 -1.4111 -0.4330
 7747TIP3    H223206   1.565   0.997   3.053 -0.3093 -1.1001  0.1634
 7748TIP3   OH223207   5.046   3.969   2.570 -0.1116 -0.1049  0.2913
 7748TIP3    H123208   4.969   3.917   2.551  0.7984 -1.8222  1.0589
 7748TIP3    H223209   5.106   3.909   2.615  0.9712  1.6233  1.3200
 7749TIP3   OH223210   4.542   3.285   3.891  0.5413  0.2392 -0.3562
 7749TIP3    H123211   4.627   3.302   3.932  2.1781 -2.3904 -2.3161
 7749TIP3    H223212   4.562   3.276   3.797 -1.7276 -1.3472 -0.7664
 7750TIP3   OH223213   6.001   1.626   2.008  0.4397 -0.0174 -0.0342
 7750TIP3    H123214   6.012   1.538   1.972  1.0268 -0.4090  1.0469
 7750TIP3    H223215   5.927   1.663   1.959  0.9105 -0.6792 -1.2794
 7751TIP3   OH223216   2.077   1.067   3.843 -0.3220 -0.3761 -0.2387
 7751TIP3    H123217   2.010   1.012   3.883  1.8693 -1.6494  1.8968
 7751TIP3    H223218   2.037   1.154   3.841 -1.8661 -0.9754  1.4625
 7752TIP3   OH223219   6.759   2.443   0.891  0.5957 -0.3401 -0.6294
 7752TIP3    H123220   6.848   2.476   0.897  0.1598  1.2763 -2.1133
 7752TIP3    H223221   6.704   2.520   0.906 -0.6113 -1.4385  1.0465
 7753TIP3   OH223222   7.233   0.788   4.079  0.0917 -0.0801  0.0640
 7753TIP3    H123223   7.143   0.755   4.082  0.3292 -0.7622 -0.0820
 7753TIP3    H223224   7.229   0.873   4.124 -0.6809  0.0415 -0.2110
 7754TIP3   OH223225   1.698   4.145   4.726 -0.1722 -0.6310 -0.1502
 7754TIP3    H123226   1.627   4.196   4.765 -0.7844 -0.3422 -1.6177
 7754TIP3    H223227   1.703   4.066   4.780 -0.9918 -0.2406  0.5201
 7755TIP3   OH223228   6.817   0.994   5.381  0.3523 -0.0635  0.0039
 7755TIP3    H123229   6.816   0.983   5.476 -0.4266  0.7372  0.1027
 7755TIP3    H223230   6.840   0.908   5.347  1.0206 -0.2646  0.9278
 7756TIP3   OH223231   1.636   0.955   0.322 -0.1243  0.4932 -0.1025
 7756TIP3    H123232   1.562   0.991   0.274 -0.5959  1.8968  1.5908
 7756TIP3    H223233   1.704   1.021   0.315 -0.9469  1.8283  2.9091
 7757TIP3   OH223234   3.516   6.111   2.539  0.3746 -0.2887  0.9987
 7757TIP3    H123235   3.605   6.077   2.529 -0.2994 -1.7269 -0.7415
 7757TIP3    H223236   3.463   6.058   2.479 -1.3648  1.6624  0.6863
 7758TIP3   OH223237   1.384   3.631   5.869  0.0830 -0.5119  0.5260
 7758TIP3    H123238   1.348   3.605   5.954  1.9275  0.8876  1.8245
 7758TIP3    H223239   1.314   3.611   5.807 -2.7722  1.5467  2.7663
 7759TIP3   OH223240   1.863   1.533   1.926 -0.3127 -0.1974  0.8520
 7759TIP3    H123241   1.782   1.570   1.963  0.4491 -1.3925  4.0467
 7759TIP3    H223242   1.930   1.555   1.990  1.6131 -0.7096 -0.8910
 7760TIP3   OH223243   6.343   0.639   2.532 -0.0365 -0.3518  0.1455
 7760TIP3    H123244   6.295   0.710   2.574  0.3077  0.1979 -0.3823
 7760TIP3    H223245   6.435   0.658   2.550 -0.0015 -2.0800  2.2431
 7761TIP3   OH223246   5.550   0.926   3.972  0.7976  0.4893 -0.1494
 7761TIP3    H123247   5.538   1.000   4.031  1.8583 -0.3457  1.1564
 7761TIP3    H223248   5.643   0.906   3.976  0.2279 -2.3255  1.3251
 7762TIP3   OH223249   5.856   0.441   3.499 -0.5038 -0.1938  0.3143
 7762TIP3    H123250   5.797   0.500   3.545  0.0586  0.6042  0.0248
 7762TIP3    H223251   5.944   0.477   3.514 -0.1237 -1.0825  0.3263
 7763TIP3   OH223252   2.813   4.047   0.944 -0.1666 -0.0123 -0.3616
 7763TIP3    H123253   2.788   3.968   0.894 -0.7559  0.1874 -0.3912
 7763TIP3    H223254   2.764   4.118   0.902 -0.0977  0.2765  0.0472
 7764TIP3   OH223255   1.042   1.170   2.380  0.4709  0.1690  0.6724
 7764TIP3    H123256   1.051   1.175   2.285 -1.5298 -0.3175  0.4168
 7764TIP3    H223257   1.103   1.102   2.407 -0.6040 -1.3419 -0.5670
 7765TIP3   OH223258   0.229   4.972   4.804 -0.1270 -0.9748 -0.9505
 7765TIP3    H123259   0.284   4.968   4.726 -0.0181 -1.9589 -0.8358
 7765TIP3    H223260   0.252   4.893   4.853  0.4631  0.0726  0.5244
 7766TIP3   OH223261   7.006   0.662   3.025  0.7278 -0.0501 -0.1107
 7766TIP3    H123262   7.037   0.662   2.934  0.9767 -1.3484 -0.0402
 7766TIP3    H223263   7.062   0.599   3.070 -0.9634 -1.3031  0.3653
 7767TIP3   OH223264   5.655   5.622   1.662  0.2771  0.2925 -0.6688
 7767TIP3    H123265   5.699   5.618   1.747  0.6433  0.8680 -0.8219
 7767TIP3    H223266   5.706   5.686   1.612  0.0788 -0.0583 -1.3321
 7768TIP3   OH223267   2.486   6.006   2.493 -0.0640  0.2014 -0.1280
 7768TIP3    H123268   2.490   5.941   2.562  2.0632  0.3886 -0.0182
 7768TIP3    H223269   2.511   5.958   2.413 -1.0944  0.3066 -0.5296
 7769TIP3   OH223270   0.747   4.046   4.508  0.0579  0.2123 -0.2156
 7769TIP3    H123271   0.831   4.075   4.544  0.1988  2.7489 -2.3012
 7769TIP3    H223272   0.693   4.125   4.507 -2.1242 -1.1758  0.2657
 7770TIP3   OH223273   1.350   0.022   5.756 -0.5583  0.2113 -0.4306
 7770TIP3    H123274   1.399   0.063   5.827  0.2173 -1.3292 -0.0224
 7770TIP3    H223275   1.335   0.092   5.693 -0.5772  1.4379  0.8792
 7771TIP3   OH223276   7.133   2.379   1.376 -0.0605 -0.0827  0.1755
 7771TIP3    H123277   7.043   2.367   1.406 -0.7232  0.2072 -1.5978
 7771TIP3    H223278   7.161   2.293   1.346 -0.9720  0.4472 -2.3915
 7772TIP3   OH223279   5.251   3.595   1.231  0.2736 -0.4108  0.2242
 7772TIP3    H123280   5.334   3.620   1.192 -0.2712 -0.4397 -0.9995
 7772TIP3    H223281   5.191   3.666   1.207 -0.7012 -1.6739 -1.2504
 7773TIP3   OH223282   3.540   4.502   5.826 -0.0685  0.5003 -0.0172
 7773TIP3    H123283   3.626   4.518   5.865 -0.0128  0.8292 -0.2707
 7773TIP3    H223284   3.550   4.530   5.735 -0.3214  0.1429 -0.1573
 7774TIP3   OH223285   2.348   3.500   5.297 -0.0509 -0.1604 -0.5197
 7774TIP3    H123286   2.434   3.487   5.257  0.2515  2.9034 -1.1464
 7774TIP3    H223287   2.325   3.415   5.333  4.0011 -0.7548  1.2277
 7775TIP3   OH223288   5.671   2.446   2.066  0.2625 -0.0111 -0.8067
 7775TIP3    H123289   5.659   2.372   2.126  0.6890 -0.0678 -0.7879
 7775TIP3    H223290   5.744   2.496   2.103  0.6421 -0.1403 -1.3621
 7776TIP3   OH223291   2.375   2.550   0.752  0.1522 -0.2451 -0.0831
 7776TIP3    H123292   2.286   2.574   0.780  0.2085  0.1213 -0.2093
 7776TIP3    H223293   2.422   2.633   0.751  0.4700 -0.4267 -0.1195
 7777TIP3   OH223294   4.740   3.404   0.543 -0.6693 -1.2190 -0.4292
 7777TIP3    H123295   4.758   3.358   0.461 -1.7042 -2.3925 -0.0470
 7777TIP3    H223296   4.790   3.485   0.537  1.1967 -2.3485 -1.1838
 7778TIP3   OH223297   6.580   2.819   4.548  0.3425  0.3282 -0.3398
 7778TIP3    H123298   6.648   2.799   4.613  0.3055 -1.1120 -0.7121
 7778TIP3    H223299   6.585   2.747   4.485 -1.4355  0.2510 -0.4423
 7779TIP3   OH223300   0.775   5.097   3.492  0.0063  0.1257  0.6138
 7779TIP3    H123301   0.730   5.143   3.563 -0.0013 -1.1717  1.5064
 7779TIP3    H223302   0.866   5.126   3.498  0.0262 -0.0464  1.2441
 7780TIP3   OH223303   3.172   6.050   3.497 -0.0518  0.3126 -0.6401
 7780TIP3    H123304   3.161   5.963   3.459  1.0724  0.6716 -1.8444
 7780TIP3    H223305   3.083   6.076   3.523 -0.3737 -1.2463 -0.0688
 7781TIP3   OH223306   1.673   2.521   5.531 -0.1861  0.3115 -0.3974
 7781TIP3    H123307   1.605   2.584   5.555  0.5511  1.4800 -1.2766
 7781TIP3    H223308   1.755   2.569   5.542  0.4557 -0.7665 -0.2865
 7782TIP3   OH223309   6.086   6.491   2.829 -0.5570 -0.6334  0.1643
 7782TIP3    H123310   6.043   6.424   2.775 -0.1356 -0.1046 -0.8455
 7782TIP3    H223311   6.179   6.486   2.804 -0.1471 -1.1652  1.6859
 7783TIP3   OH223312   5.876   4.956   4.204  0.1845 -0.2057 -0.3934
 7783TIP3    H123313   5.841   4.873   4.237  0.9407 -0.1548  0.5884
 7783TIP3    H223314   5.950   4.975   4.262  1.5535 -0.0762 -2.1084
 7784TIP3   OH223315   3.254   3.801   2.491 -0.1463 -0.1133  1.1356
 7784TIP3    H123316   3.171   3.847   2.478  0.6450  1.2602  0.6441
 7784TIP3    H223317   3.261   3.790   2.586 -1.5637 -1.6148  1.1007
 7785TIP3   OH223318   4.252   2.768   3.622  0.1595  0.2121 -0.3892
 7785TIP3    H123319   4.216   2.785   3.535  0.6824  1.9147 -0.3192
 7785TIP3    H223320   4.180   2.786   3.682  0.4292  1.3557 -0.3750
 7786TIP3   OH223321   3.304   0.814   4.818  0.1262  0.0461 -0.5697
 7786TIP3    H123322   3.269   0.759   4.888  1.3550  0.1234  0.1336
 7786TIP3    H223323   3.370   0.869   4.861 -0.5985  1.6326 -1.3705
 7787TIP3   OH223324   6.921   5.732   1.263 -0.7548 -0.0520 -0.6073
 7787TIP3    H123325   7.007   5.734   1.220 -0.4045 -1.3506 -0.0244
 7787TIP3    H223326   6.927   5.797   1.333 -0.3817  0.1459 -0.8225
 7788TIP3   OH223327   2.869   3.387   5.446  0.1383  0.1715  0.2995
 7788TIP3    H123328   2.897   3.308   5.492  0.2714 -0.1602 -0.3349
 7788TIP3    H223329   2.778   3.400   5.472  0.6560  0.9042  1.9000
 7789TIP3   OH223330   1.720   5.590   0.602 -0.0101 -0.1059 -0.2956
 7789TIP3    H123331   1.766   5.548   0.675  1.2110  1.0998 -0.3487
 7789TIP3    H223332   1.643   5.630   0.643  0.2117 -0.1683  0.1978
 7790TIP3   OH223333   4.758   2.487   2.292 -0.1777 -0.4857 -0.1362
 7790TIP3    H123334   4.691   2.449   2.235 -0.4120 -0.4021  0.0847
 7790TIP3    H223335   4.837   2.434   2.274 -0.2951 -0.5724 -0.4059
 7791TIP3   OH223336   2.467   1.536   0.083 -0.1912 -0.2417 -0.2311
 7791TIP3    H123337   2.546   1.581   0.054 -0.0700 -0.2819  0.0297
 7791TIP3    H223338   2.493   1.492   0.164 -0.9394  1.1795  0.8259
 7792TIP3   OH223339   3.365   1.708   2.554 -0.8707  0.0285  0.1488
 7792TIP3    H123340   3.424   1.688   2.627  1.2094 -0.2035 -1.4916
 7792TIP3    H223341   3.341   1.622   2.519 -1.6456  0.1486  0.3699
 7793TIP3   OH223342   0.039   6.017   1.590 -0.0264 -0.0559  0.3449
 7793TIP3    H123343  -0.006   6.029   1.507 -0.0578  0.7301  0.4610
 7793TIP3    H223344  -0.030   5.996   1.653  0.0508 -1.0913  0.0937
 7794TIP3   OH223345   2.320   1.171   1.441 -0.3087  0.0372  0.6292
 7794TIP3    H123346   2.397   1.126   1.476  0.1726  0.4135  0.0664
 7794TIP3    H223347   2.247   1.113   1.463  0.5057 -2.2103 -2.0309
 7795TIP3   OH223348   1.195   4.978   2.145  0.0987 -0.4713 -0.2416
 7795TIP3    H123349   1.234   4.959   2.060  1.2214  0.4985  0.0407
 7795TIP3    H223350   1.259   5.033   2.190 -1.4734  0.9486  0.3593
 7796TIP3   OH223351   4.585   5.702   0.559  0.3214  0.1831  0.6473
 7796TIP3    H123352   4.624   5.627   0.604 -0.8600  0.2154  1.8149
 7796TIP3    H223353   4.641   5.776   0.583 -0.7118  0.3527  2.8403
 7797TIP3   OH223354   3.699   2.998   1.371 -0.4172  0.0079 -0.2669
 7797TIP3    H123355   3.793   2.980   1.375 -0.4210 -0.0212 -0.3079
 7797TIP3    H223356   3.693   3.091   1.349 -0.3723  0.6386  2.0364
 7798TIP3   OH223357   0.214   3.108   5.181  0.7109 -0.4524 -0.1127
 7798TIP3    H123358   0.195   3.170   5.111  1.2896 -1.2356 -0.9900
 7798TIP3    H223359   0.308   3.090   5.172  0.8868 -0.2403  1.1431
 7799TIP3   OH223360   5.114   4.149   3.154  0.3586 -0.0893 -0.1129
 7799TIP3    H123361   5.071   4.067   3.178  2.4605 -0.9640  0.9331
 7799TIP3    H223362   5.129   4.142   3.060 -0.3029 -0.4822 -0.1909
 7800TIP3   OH223363   0.274   1.577   2.895 -0.1552  0.3197  0.0755
 7800TIP3    H123364   0.247   1.668   2.910  1.1712  0.8622 -0.6243
 7800TIP3    H223365   0.287   1.541   2.982 -0.8496  0.7446  0.3673
 7801TIP3   OH223366   2.232   5.638   0.223 -0.3788  0.4174  0.6094
 7801TIP3    H123367   2.276   5.722   0.208  2.8235 -1.4734 -2.1926
 7801TIP3    H223368   2.291   5.591   0.282 -1.3401 -0.3781  0.9422
 7802TIP3   OH223369   1.899   0.227   4.775 -0.3492  0.2610  0.3674
 7802TIP3    H123370   1.923   0.319   4.766  2.5874 -0.3849  0.6578
 7802TIP3    H223371   1.905   0.209   4.869  2.8697 -1.0283  0.0217
 7803TIP3   OH223372   1.639   0.295   3.111  0.6656 -0.0722 -0.2073
 7803TIP3    H123373   1.634   0.337   3.197 -1.2646  0.1720 -0.3927
 7803TIP3    H223374   1.642   0.367   3.049  0.3319 -0.2317 -0.4096
 7804TIP3   OH223375   0.359   3.817   2.300 -0.2991  0.1481 -0.3131
 7804TIP3    H123376   0.350   3.898   2.350  0.9383 -0.3247  0.7417
 7804TIP3    H223377   0.325   3.749   2.358  2.1913 -0.5602  0.4613
 7805TIP3   OH223378   3.346   1.114   5.891 -0.6417 -0.2328  0.3275
 7805TIP3    H123379   3.298   1.033   5.877 -1.8634  0.7984 -1.9439
 7805TIP3    H223380   3.413   1.115   5.823  0.8668 -0.3337  1.7386
 7806TIP3   OH223381   0.754   3.874   1.872 -0.2749 -0.1499 -0.4812
 7806TIP3    H123382   0.839   3.839   1.844 -0.2522  0.2897 -0.9918
 7806TIP3    H223383   0.699   3.797   1.885  0.2218 -0.4400 -0.0932
 7807TIP3   OH223384   6.406   1.360   2.587  0.0814 -0.2817 -0.6039
 7807TIP3    H123385   6.351   1.337   2.512  0.5769  1.3746 -1.5198
 7807TIP3    H223386   6.494   1.333   2.560  0.2649  0.3502 -0.6379
 7808TIP3   OH223387   1.389   0.757   4.646  0.3709 -0.3013 -0.1803
 7808TIP3    H123388   1.418   0.747   4.737  0.1802 -0.3522 -0.1256
 7808TIP3    H223389   1.448   0.823   4.609  0.4504 -0.2833 -0.0206
 7809TIP3   OH223390   3.398   1.927   1.685 -0.1455  0.7390 -0.4940
 7809TIP3    H123391   3.486   1.898   1.709  0.0500 -0.1890 -2.1296
 7809TIP3    H223392   3.405   1.952   1.593 -1.1661  2.6193 -0.1125
 7810TIP3   OH223393   0.744   0.913   0.215 -0.1492 -0.0724 -0.1446
 7810TIP3    H123394   0.785   0.964   0.285  1.5541 -1.3862 -0.1127
 7810TIP3    H223395   0.810   0.911   0.145 -0.6318 -1.2209 -0.6033
 7811TIP3   OH223396   1.088   5.508   1.033 -0.1274  0.2810  0.0556
 7811TIP3    H123397   0.998   5.524   1.002 -0.1207  1.1899  0.4862
 7811TIP3    H223398   1.118   5.593   1.064  0.4016 -0.2949  1.1814
 7812TIP3   OH223399   0.369   6.208   0.277  0.0683  0.3285 -0.3979
 7812TIP3    H123400   0.414   6.292   0.280  0.1733  0.2593  0.1064
 7812TIP3    H223401   0.330   6.198   0.364 -0.3449  0.0748 -0.6079
 7813TIP3   OH223402   0.839   0.085   1.659 -0.4606  0.3293  0.0213
 7813TIP3    H123403   0.847   0.137   1.739 -0.3211 -1.4640  1.2239
 7813TIP3    H223404   0.929   0.067   1.633 -0.5104  0.4191 -0.2182
 7814TIP3   OH223405   6.539   1.009   0.798  0.0336 -0.0062  0.4605
 7814TIP3    H123406   6.472   1.076   0.811 -0.7358 -1.2654  4.0123
 7814TIP3    H223407   6.613   1.038   0.851 -0.0909 -1.6002  1.5776
 7815TIP3   OH223408   0.490   6.651   5.266  0.5170 -0.4309  0.5147
 7815TIP3    H123409   0.480   6.638   5.172 -1.5234  1.2564  0.4304
 7815TIP3    H223410   0.554   6.721   5.274  0.1965 -0.1212  0.3596
 7816TIP3   OH223411   6.160   5.986   1.808 -0.0464 -0.1127  0.8574
 7816TIP3    H123412   6.068   6.006   1.788 -0.0770 -0.7289  0.3101
 7816TIP3    H223413   6.197   5.959   1.723  0.1247 -1.7600  1.4237
 7817TIP3   OH223414   3.319   5.264   1.508  0.1946 -0.2758 -0.6449
 7817TIP3    H123415   3.320   5.296   1.418  1.0207 -4.0209 -2.1753
 7817TIP3    H223416   3.405   5.223   1.520  0.4442  0.8794  2.2365
 7818TIP3   OH223417   0.737   2.075   5.261 -0.3060  0.4726  0.7079
 7818TIP3    H123418   0.653   2.114   5.238 -1.1422 -1.5792  0.0450
 7818TIP3    H223419   0.786   2.146   5.304 -1.6810  2.2071 -0.4632
 7819TIP3   OH223420   1.181   4.298   3.782  0.0819  0.0682 -0.3839
 7819TIP3    H123421   1.185   4.210   3.821 -0.5179  0.3373  0.2922
 7819TIP3    H223422   1.178   4.282   3.688  0.2869 -0.6251 -0.2803
 7820TIP3   OH223423   3.232   4.161   3.130  0.3686  0.0336  0.5487
 7820TIP3    H123424   3.218   4.067   3.118 -0.8931  0.3046 -0.2441
 7820TIP3    H223425   3.325   4.174   3.113  0.0424 -0.6878 -2.2169
 7821TIP3   OH223426   1.283   5.716   5.677 -0.2091  0.7278 -0.0264
 7821TIP3    H123427   1.213   5.659   5.646 -1.5607  0.5777  3.0172
 7821TIP3    H223428   1.260   5.803   5.642 -0.4420  0.2054 -1.2113
 7822TIP3   OH223429   3.565   4.166   5.795 -0.0375  0.0469  0.2677
 7822TIP3    H123430   3.551   4.171   5.890  0.5005 -0.7132  0.4049
 7822TIP3    H223431   3.573   4.072   5.778  2.1293  0.2752 -0.1799
 7823TIP3   OH223432   2.265   4.826   4.088 -0.4497  0.1840  0.2064
 7823TIP3    H123433   2.282   4.774   4.167  2.9137  2.5550  1.2642
 7823TIP3    H223434   2.194   4.885   4.114  0.9810  1.3237  1.8079
 7824TIP3   OH223435   1.808   2.718   5.161 -0.2756  0.3302 -0.5353
 7824TIP3    H123436   1.716   2.715   5.189 -1.0388  1.6956 -2.6534
 7824TIP3    H223437   1.839   2.628   5.171 -1.9034 -0.2049  0.0357
 7825TIP3   OH223438   1.789   1.372   4.298 -0.3251 -0.1299 -0.4522
 7825TIP3    H123439   1.873   1.358   4.341 -0.5034 -1.6832 -0.5469
 7825TIP3    H223440   1.811   1.391   4.207 -0.0064  1.7389 -0.0136
 7826TIP3   OH223441   0.863   1.735   4.013 -0.2422  0.1277  0.1073
 7826TIP3    H123442   0.832   1.803   4.072 -0.6332  1.3261 -1.3942
 7826TIP3    H223443   0.945   1.705   4.051 -0.2836  1.1478  1.0355
 7827TIP3   OH223444   1.442   5.836   4.233  0.3010  0.6308  0.5779
 7827TIP3    H123445   1.402   5.811   4.150  1.0252 -2.2970  1.0103
 7827TIP3    H223446   1.383   5.903   4.269 -0.2096  1.7031 -2.0556
 7828TIP3   OH223447   5.376   5.895   1.856 -0.1825  0.8917  0.0454
 7828TIP3    H123448   5.318   5.842   1.909 -0.7736  1.5288  0.0493
 7828TIP3    H223449   5.373   5.982   1.897  2.0274  0.5756  1.0449
 7829TIP3   OH223450   5.744   5.357   3.059  0.3599  0.2006  0.1306
 7829TIP3    H123451   5.821   5.300   3.067 -2.5251 -3.8884  3.3752
 7829TIP3    H223452   5.719   5.352   2.966  1.4223 -2.2873 -0.0901
 7830TIP3   OH223453   0.046   4.367   2.514  0.4526  0.0554  0.4682
 7830TIP3    H123454   0.128   4.398   2.476  1.5087  0.9598  3.2152
 7830TIP3    H223455   0.061   4.274   2.531  0.6904  0.0862  0.4322
 7831TIP3   OH223456   3.381   1.178   2.372 -0.1868  0.0381 -0.0084
 7831TIP3    H123457   3.454   1.162   2.313  1.1546  0.0341  1.5718
 7831TIP3    H223458   3.316   1.225   2.319  0.5119 -0.8416 -1.7142
 7832TIP3   OH223459   7.094   2.093   2.109  0.1225 -0.3017 -0.2888
 7832TIP3    H123460   7.078   2.008   2.067  0.3233 -0.2612 -0.4503
 7832TIP3    H223461   7.127   2.149   2.039  0.6934 -0.3035 -0.0325
 7833TIP3   OH223462   4.147   3.117   3.787  0.1853 -0.4676  0.2006
 7833TIP3    H123463   4.112   3.028   3.785  2.2547 -1.3382  0.4126
 7833TIP3    H223464   4.181   3.127   3.877  1.7440 -0.2282 -0.3789
 7834TIP3   OH223465   1.102   1.428   1.938 -0.6022  0.1202 -0.1481
 7834TIP3    H123466   1.091   1.429   2.033 -0.4435  0.0936 -0.1294
 7834TIP3    H223467   1.107   1.336   1.915 -3.1432 -0.0073 -0.4824
 7835TIP3   OH223468   5.433   2.338   3.696 -0.3614 -0.4820  0.4198
 7835TIP3    H123469   5.510   2.395   3.695 -0.1476 -0.7629 -0.5933
 7835TIP3    H223470   5.467   2.252   3.673 -0.9907 -0.5903 -0.1327
 7836TIP3   OH223471   7.056   0.207   5.765  0.0598 -0.5475  0.1980
 7836TIP3    H123472   7.083   0.116   5.753  0.4542 -0.2931 -1.0063
 7836TIP3    H223473   7.005   0.227   5.686 -0.9769 -0.0528  0.9694
 7837TIP3   OH223474   6.403   6.613   4.638 -0.0440  0.0032 -0.4748
 7837TIP3    H123475   6.402   6.596   4.543 -0.4946  2.1215 -0.9097
 7837TIP3    H223476   6.480   6.668   4.651 -0.3827  0.3033  0.2730
 7838TIP3   OH223477   6.333   5.002   1.920 -0.2015  0.2778  0.0949
 7838TIP3    H123478   6.301   5.092   1.931  0.4199  0.5213  0.0247
 7838TIP3    H223479   6.338   4.990   1.825  1.6762  0.9354  0.0541
 7839TIP3   OH223480   2.581   1.892   2.115  0.3904  0.1890  0.0997
 7839TIP3    H123481   2.587   1.963   2.051 -1.0656 -0.1755 -0.4801
 7839TIP3    H223482   2.537   1.931   2.190  1.9198  0.5618  0.8500
 7840TIP3   OH223483   0.472   0.601   0.197  0.5943  0.3456 -0.0661
 7840TIP3    H123484   0.458   0.695   0.206  0.1278  0.5965 -2.6122
 7840TIP3    H223485   0.566   0.591   0.184  0.4128  0.7407 -1.9350
 7841TIP3   OH223486   1.128   6.614   1.618 -0.2082 -0.3574  0.2150
 7841TIP3    H123487   1.122   6.518   1.618  0.2355 -0.3903 -0.4828
 7841TIP3    H223488   1.118   6.638   1.526 -0.9586  0.3166  0.4556
 7842TIP3   OH223489   4.613   5.915   0.904 -0.3965 -0.2796 -0.2435
 7842TIP3    H123490   4.666   5.980   0.857  0.3121  0.0482  0.9537
 7842TIP3    H223491   4.649   5.830   0.876 -0.7711 -0.1446 -1.1726
 7843TIP3   OH223492   5.704   3.070   0.481 -0.6149  0.2491 -0.7480
 7843TIP3    H123493   5.692   3.037   0.570  2.3565 -0.9402 -0.6853
 7843TIP3    H223494   5.647   3.015   0.427  0.2311 -1.4476  0.0359
 7844TIP3   OH223495   1.260   1.436   5.217 -0.1553  0.1419  0.1226
 7844TIP3    H123496   1.298   1.405   5.135  0.8362 -0.9585  0.9626
 7844TIP3    H223497   1.269   1.362   5.277 -0.6460  1.0021  1.2999
 7845TIP3   OH223498   6.655   2.530   3.310 -0.1003  0.1979 -0.0017
 7845TIP3    H123499   6.566   2.494   3.312 -0.2904  0.5871  2.4367
 7845TIP3    H223500   6.643   2.624   3.322  0.6172  0.1341  1.5635
 7846TIP3   OH223501   0.410   3.337   4.572  0.7178  0.2188  0.6177
 7846TIP3    H123502   0.456   3.264   4.532  0.9431 -0.0175  1.2972
 7846TIP3    H223503   0.326   3.340   4.528  1.9508  1.7071 -1.8605
 7847TIP3   OH223504   2.706   3.209   0.709  0.5427  0.2821 -0.0197
 7847TIP3    H123505   2.782   3.244   0.756 -0.0051  1.2007  0.1963
 7847TIP3    H223506   2.682   3.278   0.648 -0.4652  0.2227  0.3038
 7848TIP3   OH223507   4.761   5.358   2.480 -0.3315 -0.2658 -0.2396
 7848TIP3    H123508   4.734   5.269   2.456  0.3176 -1.3743  2.6352
 7848TIP3    H223509   4.690   5.414   2.450 -1.5577 -1.9714 -0.6656
 7849TIP3   OH223510   6.349   6.421   5.117 -0.3551 -0.1916 -0.5344
 7849TIP3    H123511   6.340   6.500   5.065  1.8129  0.1104 -0.5344
 7849TIP3    H223512   6.281   6.428   5.184  0.6420  2.3752  0.3140
 7850TIP3   OH223513   5.827   5.138   3.858  0.3697 -0.2324 -0.1195
 7850TIP3    H123514   5.803   5.054   3.897 -0.0818 -0.2994 -0.5290
 7850TIP3    H223515   5.743   5.176   3.832  0.4503  0.8913  1.1528
 7851TIP3   OH223516   4.870   1.932   1.013 -0.0297 -0.0501 -0.2251
 7851TIP3    H123517   4.942   1.918   0.951 -0.7072  0.7127 -1.2034
 7851TIP3    H223518   4.812   1.857   0.999  0.5179 -0.6406  0.5312
 7852TIP3   OH223519   1.349   3.532   5.419 -0.1836 -0.2061 -0.2142
 7852TIP3    H123520   1.283   3.504   5.483  0.2340 -1.2411 -0.2188
 7852TIP3    H223521   1.328   3.483   5.340 -0.2002  0.4525 -0.6190
 7853TIP3   OH223522   4.558   0.951   5.879 -0.1559 -0.4662 -0.1461
 7853TIP3    H123523   4.623   0.881   5.888 -1.1297 -1.4311 -0.3080
 7853TIP3    H223524   4.521   0.938   5.791 -0.4939  0.1297 -0.0985
 7854TIP3   OH223525   3.526   5.376   5.573 -0.0375  0.3608 -0.0534
 7854TIP3    H123526   3.550   5.464   5.543  0.6409 -0.6436 -2.7176
 7854TIP3    H223527   3.591   5.356   5.641  0.7893  1.3128 -0.5327
 7855TIP3   OH223528   5.552   0.416   0.506 -0.6994  0.3455  0.0107
 7855TIP3    H123529   5.549   0.417   0.602 -0.7867  0.9080  0.0105
 7855TIP3    H223530   5.562   0.508   0.482  0.5839  0.0896 -0.4884
 7856TIP3   OH223531   1.876   2.442   4.930  0.6170  0.1337 -0.5178
 7856TIP3    H123532   1.897   2.381   4.859 -1.6136  1.1808 -2.1956
 7856TIP3    H223533   1.943   2.426   4.996  0.8747 -3.2370 -1.4126
 7857TIP3   OH223534   5.439   6.364   1.836  0.2952 -0.2455  0.0021
 7857TIP3    H123535   5.518   6.357   1.783 -0.4169  0.9584 -1.2884
 7857TIP3    H223536   5.412   6.455   1.827 -0.1082 -0.0952  2.1220
 7858TIP3   OH223537   2.097   3.520   4.808  0.5955  0.7393  0.3772
 7858TIP3    H123538   2.101   3.478   4.722 -0.8097  1.7452 -0.2066
 7858TIP3    H223539   2.138   3.456   4.867  0.4285 -0.5245 -0.8112
 7859TIP3   OH223540   1.291   2.660   5.372  0.1324 -0.1997  0.5341
 7859TIP3    H123541   1.355   2.704   5.429  0.0658 -1.2456  1.4453
 7859TIP3    H223542   1.247   2.598   5.429 -1.7972  0.5581 -0.0571
 7860TIP3   OH223543   4.063   6.549   1.390  0.6944 -0.0561 -0.1306
 7860TIP3    H123544   4.011   6.626   1.412  1.5624  0.4462  0.1962
 7860TIP3    H223545   4.144   6.584   1.352  2.2614 -0.6720  2.4237
 7861TIP3   OH223546   6.244   2.183   4.284  0.1241 -0.1421  0.0052
 7861TIP3    H123547   6.241   2.236   4.364  1.1681  0.7908 -0.5527
 7861TIP3    H223548   6.288   2.238   4.220  0.3796 -1.3382 -0.8827
 7862TIP3   OH223549   3.241   5.763   2.728 -0.4617  0.0880 -0.2102
 7862TIP3    H123550   3.298   5.810   2.789  0.3660 -1.5670  0.3746
 7862TIP3    H223551   3.227   5.678   2.770  1.0516 -1.5756 -2.7527
 7863TIP3   OH223552   4.100   5.365   4.372 -0.0925 -0.2358  0.1306
 7863TIP3    H123553   4.015   5.321   4.378 -0.5186  0.5647  0.0744
 7863TIP3    H223554   4.107   5.416   4.453 -0.2646  0.7384 -0.4559
 7864TIP3   OH223555   1.364   4.274   2.487  0.0154 -0.1434 -0.0190
 7864TIP3    H123556   1.429   4.218   2.531  0.2724 -0.1788 -0.4403
 7864TIP3    H223557   1.383   4.362   2.519  0.3871 -0.1284 -0.2731
 7865TIP3   OH223558   2.936   6.752   0.968 -0.9113  0.3481  0.1290
 7865TIP3    H123559   2.930   6.843   0.996 -1.2833  0.4939 -0.4019
 7865TIP3    H223560   2.846   6.729   0.942 -0.7516 -0.0534 -0.0788
 7866TIP3   OH223561   2.490   6.316   2.002  0.4721 -0.0202 -0.0838
 7866TIP3    H123562   2.415   6.342   2.057  1.0266  0.7486  0.3251
 7866TIP3    H223563   2.566   6.334   2.057  1.0520  0.9476 -1.1727
 7867TIP3   OH223564   3.318   4.032   2.684  0.0471 -0.4088 -0.0090
 7867TIP3    H123565   3.341   4.055   2.594 -0.0912  0.0248  0.0661
 7867TIP3    H223566   3.392   3.978   2.715 -0.9441 -2.5543 -1.1484
 7868TIP3   OH223567   4.931   6.342   2.778 -0.2085  0.0276  0.0217
 7868TIP3    H123568   4.864   6.332   2.711 -1.0779  0.2760  0.8391
 7868TIP3    H223569   4.884   6.373   2.855  0.8415  0.1848  0.6197
 7869TIP3   OH223570   5.643   0.352   5.506 -0.2510  0.6268 -0.0820
 7869TIP3    H123571   5.692   0.272   5.525  0.1567  1.2440  1.6572
 7869TIP3    H223572   5.694   0.396   5.438  1.4581  1.0838  1.4364
 7870TIP3   OH223573   2.101   5.210   2.265 -0.1274  1.2654  0.0466
 7870TIP3    H123574   2.056   5.283   2.308 -0.1203  1.4674 -0.2776
 7870TIP3    H223575   2.109   5.143   2.332 -4.4128 -0.4047 -0.7607
 7871TIP3   OH223576   1.582   3.040   0.228 -0.8043 -0.7674  0.1819
 7871TIP3    H123577   1.610   2.949   0.216 -0.4321 -0.6791  0.3541
 7871TIP3    H223578   1.506   3.049   0.171 -0.1760 -0.8691 -0.6983
 7872TIP3   OH223579   6.626   3.122   2.735 -0.4195 -0.0565 -0.0678
 7872TIP3    H123580   6.571   3.046   2.716  0.5911 -0.5879 -0.9792
 7872TIP3    H223581   6.572   3.198   2.713 -0.5605 -0.5763 -1.6197
 7873TIP3   OH223582   3.022   0.515   3.408 -0.3572 -0.2459  0.0221
 7873TIP3    H123583   3.042   0.607   3.390 -0.5446 -0.1736  0.1744
 7873TIP3    H223584   3.088   0.488   3.472 -0.1548 -0.2868 -0.2027
 7874TIP3   OH223585   6.712   2.229   4.725 -0.3935  0.3447  0.2113
 7874TIP3    H123586   6.743   2.184   4.804 -1.0998  0.4279  0.5446
 7874TIP3    H223587   6.788   2.276   4.692  0.8889 -2.4602 -1.1367
 7875TIP3   OH223588   1.683   2.248   1.755 -0.0214 -0.3466 -0.3730
 7875TIP3    H123589   1.769   2.215   1.779  0.6371  0.9295 -0.8319
 7875TIP3    H223590   1.685   2.254   1.659 -0.5633 -0.1755 -0.3809
 7876TIP3   OH223591   7.203   2.263   1.915 -0.7647  0.0244  0.1405
 7876TIP3    H123592   7.246   2.347   1.928 -1.4064  0.4292 -0.3400
 7876TIP3    H223593   7.157   2.271   1.832 -0.2539 -1.0552 -0.2779
 7877TIP3   OH223594   2.236   1.606   4.588  0.3674  0.0420  0.1235
 7877TIP3    H123595   2.256   1.562   4.671  2.8279  0.1556 -0.3249
 7877TIP3    H223596   2.250   1.538   4.521 -1.3087  0.0330 -0.2614
 7878TIP3   OH223597   1.350   1.989   2.355  0.2971 -0.1720  0.5848
 7878TIP3    H123598   1.420   1.992   2.290 -0.3061  0.2614 -0.0454
 7878TIP3    H223599   1.325   1.896   2.358  1.6279 -0.5412  1.6250
 7879TIP3   OH223600   6.111   5.829   1.324  0.6061  0.2064 -0.1002
 7879TIP3    H123601   6.080   5.919   1.337 -1.6331 -0.5359  0.3052
 7879TIP3    H223602   6.063   5.778   1.389  2.3406 -1.2117  0.1388
 7880TIP3   OH223603   0.552   6.318   2.057  0.3194 -0.5517 -0.3910
 7880TIP3    H123604   0.518   6.390   2.005 -0.7884 -0.1977  0.7873
 7880TIP3    H223605   0.480   6.293   2.115  1.1760 -1.6100  0.2714
 7881TIP3   OH223606   1.927   5.178   4.316  0.4742 -0.4126  0.6056
 7881TIP3    H123607   1.912   5.223   4.233 -1.0057 -3.2688 -0.8207
 7881TIP3    H223608   1.984   5.236   4.366 -0.3357  2.3860 -1.5304
 7882TIP3   OH223609   1.610   0.919   4.541 -0.1619 -0.3112 -0.1152
 7882TIP3    H123610   1.627   1.008   4.511 -0.0039  0.0477  0.9951
 7882TIP3    H223611   1.695   0.886   4.570 -0.0738 -1.1116 -1.2279
 7883TIP3   OH223612   4.317   3.671   4.685 -0.2751 -0.6946 -0.4100
 7883TIP3    H123613   4.350   3.761   4.683  0.3942 -0.9367 -1.5525
 7883TIP3    H223614   4.239   3.673   4.629 -1.8398 -0.2867  1.6795
 7884TIP3   OH223615   1.420   3.944   3.264 -0.2841  0.2192 -0.4788
 7884TIP3    H123616   1.394   3.931   3.173 -0.9786  0.3527 -0.3085
 7884TIP3    H223617   1.404   4.037   3.280  0.4814  0.3435 -0.4161
 7885TIP3   OH223618   6.424   3.428   2.345 -0.8094 -0.0255  0.1343
 7885TIP3    H123619   6.403   3.416   2.253 -0.0281 -0.5584  0.0201
 7885TIP3    H223620   6.476   3.351   2.369 -0.5189  0.3820  0.8671
 7886TIP3   OH223621   4.452   6.175   3.166 -0.4073  0.1242 -0.1471
 7886TIP3    H123622   4.471   6.229   3.243  1.0009  1.0972 -1.1267
 7886TIP3    H223623   4.498   6.093   3.183 -0.1894  0.2964  0.1155
 7887TIP3   OH223624   3.540   2.330   1.038 -0.2620  0.1089 -0.2091
 7887TIP3    H123625   3.452   2.302   1.015 -1.2897  2.6796  0.2068
 7887TIP3    H223626   3.571   2.376   0.960  0.9090 -1.1386 -0.5021
 7888TIP3   OH223627   6.529   1.972   1.628  0.5851  0.3209  0.1974
 7888TIP3    H123628   6.521   1.978   1.723  0.3906 -2.4111  0.4169
 7888TIP3    H223629   6.581   2.049   1.604  0.1899  1.3688  2.4156
 7889TIP3   OH223630   4.623   6.643   3.077  0.0037 -0.1434 -0.1706
 7889TIP3    H123631   4.607   6.586   3.152 -2.9616  0.5764 -0.0966
 7889TIP3    H223632   4.535   6.668   3.048  1.1308  2.1414 -1.9235
 7890TIP3   OH223633   3.607   4.058   2.037 -0.0168  0.4179 -0.4158
 7890TIP3    H123634   3.588   4.031   2.127 -2.7238  0.6584 -0.8380
 7890TIP3    H223635   3.700   4.041   2.027  0.2753 -0.1001  2.2627
 7891TIP3   OH223636   0.944   6.288   1.353 -1.0844  0.1289  0.1498
 7891TIP3    H123637   0.975   6.337   1.429  1.6619 -1.0224 -0.1236
 7891TIP3    H223638   1.023   6.273   1.300 -2.6455 -0.4642 -2.1508
 7892TIP3   OH223639   2.221   1.199   5.662 -0.0317  0.7467 -0.0103
 7892TIP3    H123640   2.190   1.212   5.572 -0.0460 -2.7002 -0.6292
 7892TIP3    H223641   2.272   1.278   5.682  1.3596  0.9454 -3.6674
 7893TIP3   OH223642   6.216   4.938   0.080  0.1138 -0.4307 -0.2078
 7893TIP3    H123643   6.252   4.917  -0.007  0.8162  0.9387 -0.2861
 7893TIP3    H223644   6.121   4.939   0.067  0.1749 -1.0958 -0.7504
 7894TIP3   OH223645   7.129   4.571   5.370  0.3615 -0.1172 -0.8203
 7894TIP3    H123646   7.101   4.631   5.440  2.1652 -0.1161 -0.0479
 7894TIP3    H223647   7.085   4.489   5.391  0.7346 -0.0677  0.2460
 7895TIP3   OH223648   1.207   1.811   4.359 -0.5065 -0.0039 -0.5890
 7895TIP3    H123649   1.188   1.791   4.450 -0.0738  0.0351 -0.4860
 7895TIP3    H223650   1.163   1.895   4.342  0.4188  0.6096 -0.0549
 7896TIP3   OH223651   5.550   5.406   2.412  0.0582 -0.4647 -0.6736
 7896TIP3    H123652   5.478   5.392   2.351 -0.3651 -0.8955 -0.0915
 7896TIP3    H223653   5.512   5.455   2.484  0.5535  0.0379 -0.7488
 7897TIP3   OH223654   5.853   3.816   4.632  0.4210 -0.1061 -0.4212
 7897TIP3    H123655   5.811   3.775   4.707  0.0778  0.4319 -0.3120
 7897TIP3    H223656   5.939   3.776   4.628  0.1195 -0.7845 -0.2799
 7898TIP3   OH223657   6.534   4.898   4.628 -0.7771  0.1546 -0.4577
 7898TIP3    H123658   6.439   4.908   4.620 -0.5958  2.8527 -0.1368
 7898TIP3    H223659   6.570   4.982   4.599  1.3146  0.4648  2.5840
 7899TIP3   OH223660   6.452   6.729   3.729 -0.3442 -0.2008  0.0122
 7899TIP3    H123661   6.434   6.817   3.760  1.1532 -0.0846  0.6654
 7899TIP3    H223662   6.394   6.716   3.654 -1.6264  0.7811  0.8032
 7900TIP3   OH223663   3.526   2.108   4.764  0.3055 -0.3692  0.2984
 7900TIP3    H123664   3.432   2.094   4.768  0.5712 -2.2526  1.3453
 7900TIP3    H223665   3.540   2.192   4.809 -0.6917 -1.2750  2.4243
 7901TIP3   OH223666   0.038   6.612   2.508 -0.3308 -0.0014  0.4941
 7901TIP3    H123667   0.124   6.615   2.551 -1.1510  0.0022  2.2281
 7901TIP3    H223668  -0.016   6.560   2.567 -1.6967  0.5598 -0.2252
 7902TIP3   OH223669   2.519   6.163   3.144  0.6915 -0.0705 -0.0955
 7902TIP3    H123670   2.491   6.135   3.231  0.2067 -1.0092 -0.5383
 7902TIP3    H223671   2.587   6.228   3.161 -0.4168  0.8694  0.9892
 7903TIP3   OH223672   7.025   3.867   1.898 -0.0136 -0.8586 -0.4359
 7903TIP3    H123673   6.947   3.899   1.943 -0.7412 -2.7015 -0.2732
 7903TIP3    H223674   7.045   3.934   1.833 -1.0881  0.1553  0.2351
 7904TIP3   OH223675   5.048   2.656   4.217 -0.3461  0.3631  0.6652
 7904TIP3    H123676   5.052   2.721   4.287 -2.9235  0.8985  0.3992
 7904TIP3    H223677   5.054   2.707   4.136  0.2466 -0.0205  0.4582
 7905TIP3   OH223678   1.921   3.307   1.844  0.0295 -0.1053  0.3159
 7905TIP3    H123679   1.888   3.396   1.859 -0.1363 -0.2727  0.9915
 7905TIP3    H223680   1.859   3.251   1.890 -0.0046 -0.5943 -0.3194
 7906TIP3   OH223681   4.164   5.740   4.369 -0.2508 -0.4044  0.1840
 7906TIP3    H123682   4.158   5.676   4.440  0.1058  0.8489  1.3951
 7906TIP3    H223683   4.078   5.740   4.328 -0.9340 -0.1443  1.5565
 7907TIP3   OH223684   5.238   4.890   2.338 -0.0497 -0.4351  0.0856
 7907TIP3    H123685   5.149   4.873   2.371 -0.3028  2.4972  1.2332
 7907TIP3    H223686   5.283   4.932   2.412  2.5156 -2.2622 -0.2996
 7908TIP3   OH223687   2.102   0.741   5.702  0.6776  0.2811 -0.3517
 7908TIP3    H123688   2.109   0.681   5.776 -1.3881  1.0400  0.5231
 7908TIP3    H223689   2.102   0.684   5.625 -0.0179 -0.7689  0.3950
 7909TIP3   OH223690   1.006   4.934   5.850  0.0746  0.3933 -0.0970
 7909TIP3    H123691   1.006   4.979   5.765  0.4823  0.9304  0.1773
 7909TIP3    H223692   1.095   4.946   5.882  0.9735 -2.7583 -1.1007
 7910TIP3   OH223693   6.298   0.567   0.785 -0.0945  0.8290  0.4962
 7910TIP3    H123694   6.391   0.560   0.763  0.4376 -1.1407  2.8235
 7910TIP3    H223695   6.268   0.646   0.741  2.4075  0.9365 -1.2101
 7911TIP3   OH223696   2.466   1.804   3.075 -0.5259 -0.0433 -0.5129
 7911TIP3    H123697   2.419   1.764   3.148  0.0229  1.9247  0.9930
 7911TIP3    H223698   2.414   1.882   3.053 -0.7836 -0.6983 -2.3822
 7912TIP3   OH223699   6.283   4.273   3.235  0.1755  0.5346 -0.3027
 7912TIP3    H123700   6.269   4.202   3.298  1.3348  1.4538  1.0611
 7912TIP3    H223701   6.349   4.238   3.175 -0.1453  0.0385 -0.3758
 7913TIP3   OH223702   0.992   6.152   5.453 -0.2237 -0.2790  0.4323
 7913TIP3    H123703   0.958   6.152   5.543 -0.6553  0.4076  0.2809
 7913TIP3    H223704   1.070   6.097   5.457 -0.4165 -0.5153  1.1600
 7914TIP3   OH223705   2.063   4.984   4.177  0.1736  0.0295  0.1722
 7914TIP3    H123706   1.988   4.971   4.118  1.6890 -3.0500 -1.3266
 7914TIP3    H223707   2.028   5.036   4.249 -3.0658 -0.2367 -1.0242
 7915TIP3   OH223708   2.480   5.599   1.092  0.0596 -0.3039  0.3822
 7915TIP3    H123709   2.392   5.604   1.127  0.2237  0.5263  0.6844
 7915TIP3    H223710   2.491   5.679   1.041  0.3857 -0.7444 -0.2523
 7916TIP3   OH223711   0.441   2.559   5.289  0.6940  0.0036  0.5039
 7916TIP3    H123712   0.383   2.487   5.315  0.4841 -0.1619 -0.3916
 7916TIP3    H223713   0.405   2.590   5.206 -1.1304  3.2184  2.2916
 7917TIP3   OH223714   4.679   4.798   5.302 -0.0246  0.5032  0.2756
 7917TIP3    H123715   4.645   4.711   5.321  0.6399  0.2416  0.2952
 7917TIP3    H223716   4.764   4.801   5.345 -0.5937  1.6439  1.3989
 7918TIP3   OH223717   7.041   0.208   4.361  0.0468  0.0010  0.1894
 7918TIP3    H123718   7.019   0.298   4.337  0.4594 -0.1138 -0.6385
 7918TIP3    H223719   7.089   0.174   4.286 -2.3895 -1.7875 -0.6740
 7919TIP3   OH223720   5.641   0.119   2.041 -0.1952  0.0483 -0.2898
 7919TIP3    H123721   5.639   0.035   1.995  0.5684 -0.3738  0.4189
 7919TIP3    H223722   5.557   0.160   2.020  0.4417  0.2452 -2.7120
 7920TIP3   OH223723   3.163   0.563   2.978  0.1849  0.2014  0.6717
 7920TIP3    H123724   3.195   0.557   2.888 -0.1575  0.7786  0.4989
 7920TIP3    H223725   3.168   0.474   3.012 -2.5268 -0.6995 -0.9352
 7921TIP3   OH223726   3.569   3.394   5.867  0.4482  0.3360  0.2212
 7921TIP3    H123727   3.530   3.481   5.862 -0.1789  0.0258 -0.6179
 7921TIP3    H223728   3.633   3.392   5.795 -0.6845 -0.4240 -0.8009
 7922TIP3   OH223729   2.979   6.668   3.626  0.1223  0.3603  0.2148
 7922TIP3    H123730   3.039   6.613   3.676  0.7309  0.0061 -0.8855
 7922TIP3    H223731   3.018   6.673   3.539 -0.4406  1.7182  0.0190
 7923TIP3   OH223732   0.412   0.492   0.769  0.1163 -0.3223  0.3528
 7923TIP3    H123733   0.362   0.540   0.703 -1.7636 -0.4145  1.6277
 7923TIP3    H223734   0.502   0.493   0.737 -0.6357  0.0918 -1.9245
 7924TIP3   OH223735   1.553   4.555   4.109  0.0533  0.1141  0.7498
 7924TIP3    H123736   1.480   4.511   4.065  1.1792 -0.2999 -0.7952
 7924TIP3    H223737   1.611   4.582   4.038  0.8906  1.4104  1.8676
 7925TIP3   OH223738   5.225   6.445   2.444  0.3651 -0.0536 -0.0919
 7925TIP3    H123739   5.172   6.516   2.481 -0.2049 -1.0100  0.9512
 7925TIP3    H223740   5.236   6.470   2.352 -0.4436  1.0246  0.0814
 7926TIP3   OH223741   3.981   4.104   3.947 -0.2783 -0.1924  0.2840
 7926TIP3    H123742   4.069   4.091   3.911  0.0538 -0.5925  1.1943
 7926TIP3    H223743   3.922   4.085   3.874  0.3510 -1.6606  0.1094
 7927TIP3   OH223744   4.774   3.582   2.771  0.0161 -0.4482 -0.4756
 7927TIP3    H123745   4.755   3.555   2.861  0.7467 -0.1294 -0.2146
 7927TIP3    H223746   4.753   3.506   2.718 -2.3597  0.0127 -0.2778
 7928TIP3   OH223747   5.664   3.157   1.649 -0.3231 -0.5889  0.0582
 7928TIP3    H123748   5.690   3.066   1.667  0.3350 -0.2592  0.8066
 7928TIP3    H223749   5.730   3.210   1.694 -1.2819  0.2622  0.4788
 7929TIP3   OH223750   1.711   4.104   2.874 -0.0525 -0.3899 -0.0911
 7929TIP3    H123751   1.658   4.088   2.952 -0.7440 -1.9106 -0.8309
 7929TIP3    H223752   1.796   4.133   2.908 -0.1954 -1.4377  1.2503
 7930TIP3   OH223753   6.924   1.641   3.294 -0.3326 -0.4425  0.3157
 7930TIP3    H123754   7.018   1.625   3.290 -0.1996  0.0847  1.2004
 7930TIP3    H223755   6.885   1.569   3.244  0.4621 -1.3597  0.9837
 7931TIP3   OH223756   3.025   4.391   2.546 -0.1617  1.1406 -0.4680
 7931TIP3    H123757   2.973   4.313   2.565  3.0184 -1.1525 -0.4360
 7931TIP3    H223758   3.080   4.403   2.623  1.8055  1.2818 -1.8247
 7932TIP3   OH223759   3.384   0.405   2.429 -0.2856 -0.1375 -0.2813
 7932TIP3    H123760   3.318   0.339   2.449 -0.4879 -0.2554 -1.2815
 7932TIP3    H223761   3.455   0.387   2.491 -0.2496 -1.4283 -0.6533
 7933TIP3   OH223762   1.893   0.503   1.023 -0.2827  0.3028 -0.4085
 7933TIP3    H123763   1.867   0.422   0.978 -0.6879 -0.0177  0.3693
 7933TIP3    H223764   1.964   0.538   0.970  2.7999 -2.7052  1.3203
 7934TIP3   OH223765   0.621   0.996   2.297 -0.6014 -0.1567 -0.3940
 7934TIP3    H123766   0.582   0.915   2.263  2.0683 -1.7166 -0.0448
 7934TIP3    H223767   0.574   1.013   2.378 -1.2654 -1.3216 -0.5158
 7935TIP3   OH223768   1.893   3.889   4.112 -0.0830  0.2475  0.2972
 7935TIP3    H123769   1.877   3.833   4.187 -1.6321 -0.3165 -0.4302
 7935TIP3    H223770   1.940   3.834   4.050  1.1986  0.7139  0.8153
 7936TIP3   OH223771   0.074   5.554   1.263  0.5763  0.4891 -0.2645
 7936TIP3    H123772   0.119   5.638   1.250  1.1351  0.2896  0.3093
 7936TIP3    H223773   0.017   5.546   1.187  1.2701  0.9162 -0.8537
 7937TIP3   OH223774   1.020   0.981   5.542 -0.4022  0.4037 -0.2077
 7937TIP3    H123775   0.971   1.064   5.541 -0.4922  0.3543 -1.3056
 7937TIP3    H223776   1.041   0.965   5.450  1.2482  0.1639  0.1795
 7938TIP3   OH223777   7.087   3.351   4.765  0.0911 -0.3181 -0.0773
 7938TIP3    H123778   7.172   3.329   4.727 -0.4813  1.0817 -2.3302
 7938TIP3    H223779   7.038   3.269   4.761  1.1735 -1.0626  0.9628
 7939TIP3   OH223780   1.572   5.545   3.343  0.3320  0.5261  0.2405
 7939TIP3    H123781   1.512   5.592   3.402 -0.7898  1.1425 -1.3213
 7939TIP3    H223782   1.656   5.590   3.352  0.3078  0.3160  1.6938
 7940TIP3   OH223783   1.520   4.807   4.283  0.1975 -0.0682  0.5314
 7940TIP3    H123784   1.563   4.893   4.284  2.4295 -1.1198  0.8213
 7940TIP3    H223785   1.558   4.763   4.207 -2.1881 -0.2615 -0.6440
 7941TIP3   OH223786   2.022   4.495   1.804  0.4711 -0.0642  0.1601
 7941TIP3    H123787   1.942   4.458   1.843  0.1476 -0.2915 -0.6842
 7941TIP3    H223788   2.027   4.583   1.839  0.5202 -0.4637  1.1749
 7942TIP3   OH223789   4.215   0.851   2.168  0.1295  0.7328  0.1103
 7942TIP3    H123790   4.216   0.770   2.220 -0.5285  1.1905  0.8641
 7942TIP3    H223791   4.187   0.822   2.081 -0.5677  0.2045  0.4954
 7943TIP3   OH223792   5.521   5.429   1.299 -0.2258  0.5906  0.0395
 7943TIP3    H123793   5.438   5.386   1.320  0.7672 -0.7704  1.3710
 7943TIP3    H223794   5.497   5.498   1.236 -2.2455 -0.2075 -0.1416
 7944TIP3   OH223795   2.979   5.807   2.767  0.4679 -0.1305 -0.0630
 7944TIP3    H123796   2.980   5.867   2.841  1.3252 -1.1514  0.7859
 7944TIP3    H223797   3.071   5.797   2.742  0.1938  0.1704 -1.2535
 7945TIP3   OH223798   1.764   3.923   0.051  0.4056 -0.1123 -0.1302
 7945TIP3    H123799   1.846   3.875   0.061  1.1772  1.0130 -0.8057
 7945TIP3    H223800   1.766   3.957  -0.038 -0.7094  0.0829 -0.0931
 7946TIP3   OH223801   4.302   5.334   2.225 -0.2183 -0.1251  0.0679
 7946TIP3    H123802   4.342   5.368   2.145  0.3394 -0.5715  0.1496
 7946TIP3    H223803   4.213   5.312   2.200  0.2296 -1.1618 -0.6925
 7947TIP3   OH223804   5.829   5.987   3.984 -0.4160  0.0145 -0.3002
 7947TIP3    H123805   5.786   5.953   3.905 -2.0878 -0.7143  0.8676
 7947TIP3    H223806   5.774   6.060   4.012 -0.6226 -0.5843  0.9252
 7948TIP3   OH223807   2.759   1.180   4.611  0.7147  0.2385  0.2982
 7948TIP3    H123808   2.814   1.109   4.644 -1.3377 -1.0872  1.0780
 7948TIP3    H223809   2.719   1.217   4.690  1.2449  1.8686 -0.1645
 7949TIP3   OH223810   0.903   2.415   0.727 -0.3387 -0.2768  0.1734
 7949TIP3    H123811   0.922   2.462   0.808 -4.4243  1.9772  0.1170
 7949TIP3    H223812   0.953   2.462   0.660 -0.3742  0.7490  0.8405
 7950TIP3   OH223813   1.157   4.034   3.840  0.6116 -0.5043  0.1059
 7950TIP3    H123814   1.221   3.967   3.813  0.3180 -0.6271 -0.2862
 7950TIP3    H223815   1.072   3.993   3.826  0.4410 -0.5229  1.1013
 7951TIP3   OH223816   4.247   3.249   4.844  0.2597 -0.1954 -0.0134
 7951TIP3    H123817   4.307   3.307   4.797 -0.6952  2.6158  1.9733
 7951TIP3    H223818   4.213   3.302   4.915 -0.0344 -3.5446  2.5897
 7952TIP3   OH223819   4.258   4.209   4.356  0.5240 -0.0983  0.0246
 7952TIP3    H123820   4.316   4.282   4.380  1.6601 -0.5148 -1.3705
 7952TIP3    H223821   4.170   4.247   4.360  1.0311  1.0945  0.2556
 7953TIP3   OH223822   0.725   5.990   3.561  0.3237 -0.5004  0.2184
 7953TIP3    H123823   0.798   5.944   3.519 -0.7868  0.5083 -3.0627
 7953TIP3    H223824   0.756   6.080   3.571  0.1816 -0.4922  0.6076
 7954TIP3   OH223825   5.298   1.267   5.770 -0.1082 -0.1024  0.4382
 7954TIP3    H123826   5.217   1.252   5.723 -0.0507 -0.1052  0.3398
 7954TIP3    H223827   5.277   1.249   5.862  0.1362 -1.5793  0.2436
 7955TIP3   OH223828   7.012   6.444   4.364 -0.4551 -0.1090 -0.2365
 7955TIP3    H123829   7.015   6.369   4.305  0.3914  1.3937 -2.2420
 7955TIP3    H223830   7.103   6.475   4.366 -0.5912  0.2227  1.4330
 7956TIP3   OH223831   5.772   5.253   5.143  0.0324  0.2326  0.9930
 7956TIP3    H123832   5.735   5.166   5.150  0.9324 -0.3686 -0.8307
 7956TIP3    H223833   5.697   5.312   5.141 -0.7837 -0.7838 -0.7149
 7957TIP3   OH223834   6.941   0.352   3.127  0.4563  0.3259  0.0114
 7957TIP3    H123835   6.936   0.342   3.032 -0.3312  0.0063  0.0702
 7957TIP3    H223836   6.877   0.420   3.147 -1.3532 -1.4058  0.5245
 7958TIP3   OH223837   1.943   0.278   0.719  0.1776 -0.9278  0.6776
 7958TIP3    H123838   2.031   0.243   0.707  1.3882  1.1821  2.7357
 7958TIP3    H223839   1.913   0.239   0.801 -0.6283 -1.2223  0.2572
 7959TIP3   OH223840   4.624   2.383   1.289  0.2405 -0.3583  0.0253
 7959TIP3    H123841   4.536   2.346   1.298  0.0828  0.1545  0.6550
 7959TIP3    H223842   4.682   2.307   1.291 -0.0275 -0.5551  1.9205
 7960TIP3   OH223843   2.707   1.342   0.983 -0.3412  0.3651 -0.8663
 7960TIP3    H123844   2.750   1.283   1.045  0.6256  1.4018 -0.5220
 7960TIP3    H223845   2.717   1.429   1.021 -0.8937  0.8722 -1.8369
 7961TIP3   OH223846   2.223   3.213   3.683  0.0570 -0.5456 -0.1221
 7961TIP3    H123847   2.200   3.214   3.776 -0.4985  0.7590 -0.2396
 7961TIP3    H223848   2.231   3.306   3.659 -0.1287 -0.8423 -1.4486
 7962TIP3   OH223849   3.455   0.681   4.379 -0.6863  0.0427  0.0506
 7962TIP3    H123850   3.497   0.698   4.464  1.6506 -0.4433 -0.9400
 7962TIP3    H223851   3.392   0.754   4.369 -1.2612 -0.0637  2.2891
 7963TIP3   OH223852   5.701   4.865   3.868 -0.1036 -0.4941 -0.3666
 7963TIP3    H123853   5.619   4.898   3.904 -1.1471 -2.5970 -0.6985
 7963TIP3    H223854   5.745   4.824   3.942  1.0825  1.2784 -0.0111
 7964TIP3   OH223855   3.387   4.639   4.234 -0.1418  0.2007  0.0450
 7964TIP3    H123856   3.399   4.572   4.301  1.6092 -0.2218 -0.6357
 7964TIP3    H223857   3.297   4.625   4.202 -1.7178  1.5676  3.4450
 7965TIP3   OH223858   2.283   3.793   0.065 -0.4544  0.4603  0.2613
 7965TIP3    H123859   2.291   3.723   0.001 -1.6336  0.9082 -0.4175
 7965TIP3    H223860   2.360   3.848   0.051 -0.1506 -0.0334 -0.0363
 7966TIP3   OH223861   6.242   0.662   0.162 -0.7285  0.2674 -0.2312
 7966TIP3    H123862   6.189   0.683   0.085  0.0022 -1.4475 -1.2705
 7966TIP3    H223863   6.286   0.744   0.184 -1.0825  0.8367 -1.5545
 7967TIP3   OH223864   0.062   5.826   3.504 -0.2663  0.3189 -0.0078
 7967TIP3    H123865   0.001   5.898   3.490  0.3042  1.0712  1.2336
 7967TIP3    H223866   0.086   5.832   3.596  0.5493 -0.8685 -0.1166
 7968TIP3   OH223867   0.653   6.172   5.109  0.1809 -0.0011  0.7222
 7968TIP3    H123868   0.649   6.259   5.069 -0.1783 -0.3815 -0.1001
 7968TIP3    H223869   0.566   6.158   5.144 -0.1744 -0.5826 -0.3679
 7969TIP3   OH223870   4.931   0.052   4.776  0.2704 -0.2617  0.1164
 7969TIP3    H123871   4.890   0.094   4.852 -0.5972  1.3114 -1.1814
 7969TIP3    H223872   5.023   0.044   4.801  0.1151  0.7690  1.1017
 7970TIP3   OH223873   1.895   4.349   4.679  0.2463  0.1382  0.0640
 7970TIP3    H123874   1.894   4.373   4.587 -1.0569  0.8833  0.2411
 7970TIP3    H223875   1.848   4.265   4.683  0.6316 -0.0794  0.0037
 7971TIP3   OH223876   1.471   5.926   3.311 -0.6137  0.5620  0.2674
 7971TIP3    H123877   1.559   5.889   3.325 -0.7188  0.0983 -0.2750
 7971TIP3    H223878   1.423   5.905   3.391 -0.3890  0.3475  0.3469
 7972TIP3   OH223879   6.732   5.331   4.710  0.2165  0.0523 -0.3768
 7972TIP3    H123880   6.801   5.373   4.762  0.2290  0.7023 -0.9031
 7972TIP3    H223881   6.665   5.398   4.701  0.3164  0.0314 -1.3855
 7973TIP3   OH223882   3.292   6.182   3.294 -0.2929  0.0418  0.4355
 7973TIP3    H123883   3.247   6.151   3.373 -0.7902  1.6775  0.8351
 7973TIP3    H223884   3.320   6.102   3.249 -1.1223 -0.9487  1.6206
 7974TIP3   OH223885   0.999   6.314   4.559 -0.3061  0.3004 -0.5485
 7974TIP3    H123886   0.958   6.362   4.487 -2.9818 -0.2268  0.5064
 7974TIP3    H223887   0.927   6.265   4.600  0.9032  1.1785  2.9786
 7975TIP3   OH223888   4.842   6.220   3.488  0.9749  0.5710 -0.4525
 7975TIP3    H123889   4.792   6.217   3.406 -1.1658  0.7535  0.7632
 7975TIP3    H223890   4.874   6.130   3.500  0.2831  0.2483 -0.9234
 7976TIP3   OH223891   1.076   6.605   2.998 -0.0977  1.0429 -0.4569
 7976TIP3    H123892   1.152   6.608   3.057  1.3645  0.8585 -2.2465
 7976TIP3    H223893   1.001   6.594   3.056  1.3157  0.4385  1.3468
 7977TIP3   OH223894   6.581   6.765   5.108 -0.4279  0.5592  0.1959
 7977TIP3    H123895   6.647   6.706   5.144  1.1109  0.9780 -1.7315
 7977TIP3    H223896   6.547   6.719   5.031 -0.7884  1.2617 -0.0770
 7978TIP3   OH223897   6.003   2.680   0.941  0.0035  0.3026  0.4463
 7978TIP3    H123898   5.916   2.714   0.959 -0.3840  0.5019 -1.6304
 7978TIP3    H223899   6.060   2.757   0.943  0.0819  0.2389  1.3085
 7979TIP3   OH223900   1.126   5.232   5.365 -0.3641  0.1246  0.0126
 7979TIP3    H123901   1.143   5.233   5.271  0.4859 -0.8207  0.1365
 7979TIP3    H223902   1.047   5.285   5.375 -1.8096 -1.5694 -1.5229
 7980TIP3   OH223903   5.938   1.000   3.752 -0.3882  0.3845 -0.0159
 7980TIP3    H123904   5.846   1.027   3.748  0.2808  2.7512 -1.0020
 7980TIP3    H223905   5.975   1.050   3.825  0.1393 -0.5673  0.3933
 7981TIP3   OH223906   5.020   5.619   2.704  0.1531  0.2294  0.9603
 7981TIP3    H123907   4.953   5.599   2.769  1.1619 -0.2160  1.8995
 7981TIP3    H223908   5.031   5.537   2.654 -1.3040  0.8439 -0.4676
 7982TIP3   OH223909   3.715   5.479   4.605  0.7682  0.0030  0.1367
 7982TIP3    H123910   3.753   5.550   4.554  0.3339  0.9215  1.0370
 7982TIP3    H223911   3.740   5.399   4.559  1.6746  0.7136 -0.6350
 7983TIP3   OH223912   5.459   1.083   1.531 -0.2454 -0.1222 -0.0938
 7983TIP3    H123913   5.444   1.150   1.597  0.5718 -0.6922  0.7094
 7983TIP3    H223914   5.449   1.000   1.579 -1.3542 -0.5843 -1.0897
 7984TIP3   OH223915   5.731   2.377   2.776  0.0893 -0.3444  0.5092
 7984TIP3    H123916   5.776   2.368   2.860 -0.4351 -1.8223  0.6601
 7984TIP3    H223917   5.638   2.380   2.799  0.0211  1.5254  0.1214
 7985TIP3   OH223918   5.097   3.493   1.582  0.0650  0.5410  0.0480
 7985TIP3    H123919   5.044   3.432   1.633 -0.3177  0.4266 -0.4792
 7985TIP3    H223920   5.117   3.564   1.643  0.0502  0.1559  0.5052
 7986TIP3   OH223921   6.486   6.085   0.523 -0.0741  0.0916 -0.5840
 7986TIP3    H123922   6.573   6.103   0.558  0.7453  0.0469 -2.4639
 7986TIP3    H223923   6.501   6.067   0.430 -2.0679 -0.1627 -0.8999
 7987TIP3   OH223924   6.627   2.456   0.640 -0.2854  0.0612  0.8570
 7987TIP3    H123925   6.538   2.457   0.674 -0.0281 -0.6827  1.6146
 7987TIP3    H223926   6.682   2.446   0.718  0.3266 -1.7208  0.2565
 7988TIP3   OH223927   3.101   2.164   2.964  0.0622 -0.7154  0.2935
 7988TIP3    H123928   3.020   2.173   3.014 -0.3809 -1.6337 -0.2371
 7988TIP3    H223929   3.126   2.072   2.975  0.7437 -0.5704  0.0118
 7989TIP3   OH223930   3.698   4.356   2.546 -0.3031 -0.0029 -0.3371
 7989TIP3    H123931   3.733   4.436   2.583 -1.5916  0.2571  0.3836
 7989TIP3    H223932   3.694   4.294   2.619 -2.0007  0.2242 -0.1916
 7990TIP3   OH223933   6.208   4.773   3.659 -0.1418 -0.4077 -0.5155
 7990TIP3    H123934   6.147   4.761   3.586  0.6227  1.0691 -1.4312
 7990TIP3    H223935   6.167   4.839   3.715  0.6092  0.6418 -1.1696
 7991TIP3   OH223936   3.738   4.574   4.514  0.8288  0.0681 -0.5963
 7991TIP3    H123937   3.668   4.571   4.449  0.7593 -0.3431 -0.5058
 7991TIP3    H223938   3.774   4.663   4.507  0.3922  0.2341 -0.7402
 7992TIP3   OH223939   3.446   0.183   3.279 -0.3015  0.0523 -0.2153
 7992TIP3    H123940   3.485   0.191   3.192  0.2276 -2.8612 -0.3231
 7992TIP3    H223941   3.364   0.136   3.265 -0.6028  0.2646  0.7728
 7993TIP3   OH223942   6.933   3.992   4.106 -0.2023 -0.1784 -0.2481
 7993TIP3    H123943   7.017   3.967   4.069  1.2540  0.8768  2.1450
 7993TIP3    H223944   6.909   4.072   4.060 -0.2314 -0.8047 -1.3588
 7994TIP3   OH223945   6.903   1.695   1.950 -0.2660  0.0255  0.9152
 7994TIP3    H123946   6.942   1.609   1.963 -0.8559 -0.5697 -0.9318
 7994TIP3    H223947   6.835   1.701   2.017 -0.8876 -1.3891  0.4373
 7995TIP3   OH223948   0.193   3.448   1.788  0.4758 -0.5352  0.0840
 7995TIP3    H123949   0.172   3.539   1.769 -0.2564 -0.6967  0.1000
 7995TIP3    H223950   0.176   3.402   1.705  0.6938 -0.6826  0.1205
 7996TIP3   OH223951   0.262   0.431   4.602 -0.0758  0.2195  0.1971
 7996TIP3    H123952   0.283   0.374   4.675  1.2054  1.1104  0.5553
 7996TIP3    H223953   0.340   0.487   4.591 -0.5008  0.5661 -1.3968
 7997TIP3   OH223954   5.300   3.054   4.979 -0.0305  0.1146 -0.2966
 7997TIP3    H123955   5.317   3.081   4.889  1.0561  2.2814  0.4792
 7997TIP3    H223956   5.387   3.042   5.017 -0.4572  0.1046  0.7082
 7998TIP3   OH223957   1.205   1.182   2.126  0.1824 -0.8379  0.3845
 7998TIP3    H123958   1.218   1.088   2.140  1.0187 -0.7833  0.0297
 7998TIP3    H223959   1.206   1.192   2.031  0.6614 -0.3991  0.4328
 7999TIP3   OH223960   2.194   2.401   3.905  0.1286  0.4431 -0.2288
 7999TIP3    H123961   2.177   2.321   3.955  1.5973  1.4167  1.9953
 7999TIP3    H223962   2.114   2.416   3.856 -0.9965 -1.2212  0.9826
 8000TIP3   OH223963   5.279   3.672   5.224  0.5540 -0.2527 -0.2744
 8000TIP3    H123964   5.308   3.585   5.196 -0.1741 -0.5209 -0.2329
 8000TIP3    H223965   5.253   3.716   5.143 -1.0974 -0.8553 -0.1062
 8001TIP3   OH223966   1.612   6.494   4.887  0.0835 -0.0518 -0.3112
 8001TIP3    H123967   1.654   6.430   4.945  1.8866  1.2871 -0.0642
 8001TIP3    H223968   1.519   6.468   4.886  0.8555 -3.3254 -1.0951
 8002TIP3   OH223969   1.342   6.427   5.606  0.8794 -0.0462  0.0348
 8002TIP3    H123970   1.273   6.376   5.648  0.0546  1.0808  0.0736
 8002TIP3    H223971   1.296   6.490   5.551  1.9258 -1.1530 -2.2435
 8003TIP3   OH223972   5.098   4.951   2.729  0.9624 -0.2236 -0.4208
 8003TIP3    H123973   5.112   5.016   2.660  0.0239  1.5092  0.9553
 8003TIP3    H223974   5.169   4.888   2.716  1.1589  0.3378 -2.5851
 8004TIP3   OH223975   4.401   3.657   3.962 -0.4603  0.0704 -1.0878
 8004TIP3    H123976   4.372   3.746   3.984 -1.2596  0.0258 -1.8916
 8004TIP3    H223977   4.424   3.661   3.869 -0.2543 -0.5036 -1.0653
 8005TIP3   OH223978   5.378   6.423   2.197  0.5143  0.3811 -0.1441
 8005TIP3    H123979   5.436   6.444   2.125  1.6291 -2.2010 -0.1004
 8005TIP3    H223980   5.410   6.340   2.231 -1.5550  0.2198  1.6810
 8006TIP3   OH223981   6.798   1.558   2.186  0.3337  0.5873  0.1951
 8006TIP3    H123982   6.716   1.533   2.143 -0.0083  3.8561 -1.3765
 8006TIP3    H223983   6.784   1.537   2.278 -1.9900  0.3063 -0.1507
 8007TIP3   OH223984   6.889   2.755   3.204 -0.5332  0.1029  0.2945
 8007TIP3    H123985   6.876   2.705   3.284 -2.6895  0.8808  0.4775
 8007TIP3    H223986   6.877   2.692   3.134  0.0726 -0.3045  0.5484
 8008TIP3   OH223987   5.869   5.170   3.457  0.6744 -0.5325  0.2627
 8008TIP3    H123988   5.899   5.220   3.532 -1.7953  0.6681  0.5819
 8008TIP3    H223989   5.780   5.203   3.441 -0.1873 -3.1922 -1.0194
 8009TIP3   OH223990   0.322   3.466   3.475  0.0020 -0.2618 -0.8180
 8009TIP3    H123991   0.289   3.447   3.562  0.0962  0.3234 -0.6506
 8009TIP3    H223992   0.414   3.439   3.478  0.8691  2.5176  0.2323
 8010TIP3   OH223993   2.571   1.340   2.796  0.4773 -0.3607 -0.2717
 8010TIP3    H123994   2.635   1.277   2.829  0.4479  0.4413  1.4251
 8010TIP3    H223995   2.526   1.372   2.875 -0.3537  0.8625 -1.2066
 8011TIP3   OH223996   6.687   6.760   0.748  0.2604 -0.6321  0.7783
 8011TIP3    H123997   6.770   6.789   0.785  0.0149 -2.0136  2.5384
 8011TIP3    H223998   6.622   6.820   0.784  0.4282  0.2425 -0.3334
 8012TIP3   OH223999   2.369  -0.011   3.872 -0.4755 -0.0336 -0.3649
 8012TIP3    H124000   2.351  -0.002   3.778  1.2731 -1.3525 -0.8894
 8012TIP3    H224001   2.424   0.065   3.893  1.0520 -0.9188 -0.9972
 8013TIP3   OH224002   3.488   4.920   5.433 -0.2258 -0.1889 -0.3073
 8013TIP3    H124003   3.489   4.838   5.383 -1.9179 -0.2092 -0.3409
 8013TIP3    H224004   3.557   4.973   5.392 -0.8131 -0.6361 -1.9489
 8014TIP3   OH224005   3.698   5.892   4.103  0.6593  0.1786 -0.0586
 8014TIP3    H124006   3.766   5.840   4.060  2.6486  2.6391 -0.1521
 8014TIP3    H224007   3.645   5.926   4.031  0.3525 -0.4125 -0.1134
 8015TIP3   OH224008   3.564   2.420   4.441 -0.3346  0.3355  0.7940
 8015TIP3    H124009   3.479   2.380   4.456 -1.0137  1.2340 -0.4139
 8015TIP3    H224010   3.564   2.498   4.497 -0.7666  0.9103  0.0182
 8016TIP3   OH224011   1.659   2.586   4.103 -0.1885 -0.8552  0.4704
 8016TIP3    H124012   1.590   2.597   4.168  0.1056  2.1731  0.4143
 8016TIP3    H224013   1.620   2.616   4.021  0.0414 -2.8426 -0.4374
 8017TIP3   OH224014   6.602   6.034   3.637  0.1446 -0.2093  0.1593
 8017TIP3    H124015   6.573   6.023   3.727  0.2968 -0.5001  0.1780
 8017TIP3    H224016   6.644   5.950   3.616 -0.4399 -0.3742 -0.3861
 8018TIP3   OH224017   0.649   1.526   4.847 -0.5584  0.2671 -0.5008
 8018TIP3    H124018   0.577   1.539   4.785 -0.2083  1.8206 -0.6310
 8018TIP3    H224019   0.728   1.546   4.797  0.1717 -2.9616 -0.8103
 8019TIP3   OH224020   0.677   4.627   5.113  0.1791  0.1918 -0.3256
 8019TIP3    H124021   0.610   4.660   5.052 -0.4274 -1.5082 -0.6156
 8019TIP3    H224022   0.752   4.607   5.057  0.6292  1.2298 -0.1193
 8020TIP3   OH224023   3.363   0.995   3.407 -0.8726 -0.2030 -0.2905
 8020TIP3    H124024   3.348   1.076   3.359  1.6347  0.3906 -0.2301
 8020TIP3    H224025   3.312   1.004   3.487  1.8645  2.9527  1.3522
 8021TIP3   OH224026   2.541   4.552   3.725  0.3165 -0.2204 -0.0283
 8021TIP3    H124027   2.457   4.532   3.685  0.0575 -0.1923  0.4958
 8021TIP3    H224028   2.580   4.467   3.744  0.5205 -0.2350 -0.5041
 8022TIP3   OH224029   4.136   2.486   1.432  0.3763  0.0160  0.5054
 8022TIP3    H124030   4.162   2.571   1.468 -1.2992  1.0249 -0.5727
 8022TIP3    H224031   4.069   2.454   1.493  1.3757 -0.8181  1.2032
 8023TIP3   OH224032   0.435   5.714   0.178  0.1516 -0.6103 -0.2573
 8023TIP3    H124033   0.450   5.742   0.088  0.4748  0.0026 -0.0191
 8023TIP3    H224034   0.401   5.625   0.170 -2.2651  0.2988 -1.1419
 8024TIP3   OH224035   0.434   3.743   0.614 -0.1690  0.9739  0.0885
 8024TIP3    H124036   0.480   3.698   0.685 -1.3624  1.1225  0.9876
 8024TIP3    H224037   0.493   3.815   0.589  0.7012  0.3281  0.2371
 8025TIP3   OH224038   6.954   3.257   2.746  0.0266 -0.2027  0.1195
 8025TIP3    H124039   6.932   3.297   2.661  1.5857  0.1388 -0.1414
 8025TIP3    H224040   6.903   3.177   2.748  0.8051 -0.7837 -1.6618
 8026TIP3   OH224041   7.144   3.366   0.220  0.0446 -0.0470 -0.1884
 8026TIP3    H124042   7.236   3.373   0.248 -0.2732  1.4165  0.5899
 8026TIP3    H224043   7.096   3.422   0.281 -1.3982 -0.8672 -0.5196
 8027TIP3   OH224044   0.909   4.727   0.248 -0.2073 -0.3963 -0.3394
 8027TIP3    H124045   0.957   4.676   0.183  0.9299  1.1504 -0.7927
 8027TIP3    H224046   0.834   4.763   0.200 -0.9207 -1.4815 -0.0590
 8028TIP3   OH224047   6.366   6.300   4.838 -0.1056  0.3705  0.7631
 8028TIP3    H124048   6.446   6.253   4.814 -1.4413 -1.8610  0.4036
 8028TIP3    H224049   6.314   6.235   4.885 -2.2229  1.3973 -0.0732
 8029TIP3   OH224050   4.234   6.137   2.625 -0.1057  0.2775 -0.1509
 8029TIP3    H124051   4.162   6.078   2.601 -0.1820  0.6636 -0.8979
 8029TIP3    H224052   4.268   6.169   2.541  0.9101  0.1383  0.1879
 8030TIP3   OH224053   3.753   3.914   1.698  0.0861 -0.4614 -0.0073
 8030TIP3    H124054   3.750   3.846   1.632 -0.4112  0.0744 -0.5499
 8030TIP3    H224055   3.751   3.996   1.648  0.7634 -0.0487  0.6263
 8031TIP3   OH224056   3.142   1.672   5.724  0.2713  0.0815  0.0737
 8031TIP3    H124057   3.104   1.753   5.759 -0.9961 -0.8639  0.9883
 8031TIP3    H224058   3.093   1.657   5.643 -1.3164 -1.0604  1.1796
 8032TIP3   OH224059   4.104   3.263   1.398 -0.1529 -0.1440  0.3971
 8032TIP3    H124060   4.165   3.225   1.334  0.2850 -1.0156  1.2912
 8032TIP3    H224061   4.150   3.254   1.482 -0.9822  0.3852  0.9170
 8033TIP3   OH224062   1.927   5.148   5.027 -0.4551 -0.4758  0.6245
 8033TIP3    H124063   1.931   5.179   4.936 -1.0759  0.8449  1.0209
 8033TIP3    H224064   1.960   5.222   5.078 -1.2588 -0.7630  1.5700
 8034TIP3   OH224065   0.639   0.545   2.012 -0.4134  0.5719 -0.3433
 8034TIP3    H124066   0.714   0.603   2.012  0.4639 -0.4682  1.7301
 8034TIP3    H224067   0.661   0.477   1.949  0.0124  0.7087 -0.3417
 8035TIP3   OH224068   5.983   2.322   5.714 -0.3988  0.1950  0.1423
 8035TIP3    H124069   5.987   2.389   5.782  0.2586 -0.9042  1.2343
 8035TIP3    H224070   5.899   2.337   5.671 -0.6276  1.2042  0.9018
 8036TIP3   OH224071   1.951   5.614   3.332  0.2578  0.1765 -0.5943
 8036TIP3    H124072   2.023   5.652   3.382  0.0514  0.9369 -0.8500
 8036TIP3    H224073   1.909   5.690   3.290  0.2978 -0.4156 -1.7453
 8037TIP3   OH224074   6.680   5.097   4.543  0.0385  0.1332  0.2628
 8037TIP3    H124075   6.651   5.172   4.596 -0.2251  0.9164 -0.9417
 8037TIP3    H224076   6.771   5.116   4.521 -0.5229  1.0383 -1.5159
 8038TIP3   OH224077   5.217   6.180   5.176  0.0472  0.0481  0.5755
 8038TIP3    H124078   5.211   6.253   5.236 -0.5663  0.7651 -0.3318
 8038TIP3    H224079   5.299   6.193   5.129  0.5081 -0.4920  1.2023
 8039TIP3   OH224080   0.115   3.623   4.228  0.0407 -0.0455  0.1483
 8039TIP3    H124081   0.105   3.602   4.321  0.0049 -0.1218  0.1268
 8039TIP3    H224082   0.189   3.683   4.225 -0.8793  1.1487  0.4024
 8040TIP3   OH224083   4.835   1.441   1.386 -0.2072  0.3987  0.3451
 8040TIP3    H124084   4.788   1.400   1.313  0.2090 -1.0295  0.8477
 8040TIP3    H224085   4.823   1.535   1.373  0.2724  0.1950 -1.8249
 8041TIP3   OH224086   4.702   4.071   5.162 -0.2073 -0.3464 -0.0057
 8041TIP3    H124087   4.666   4.151   5.199  0.2485 -0.3300  0.4119
 8041TIP3    H224088   4.790   4.095   5.133  0.3338 -0.9455  1.0818
 8042TIP3   OH224089   2.233   2.170   1.211  0.1911 -0.4255 -0.4724
 8042TIP3    H124090   2.167   2.161   1.142 -0.1068 -0.2788 -0.2095
 8042TIP3    H224091   2.287   2.244   1.183  0.5967 -0.8968 -0.9685
 8043TIP3   OH224092   4.336   1.445   1.864 -0.9625  0.2748  0.6687
 8043TIP3    H124093   4.299   1.449   1.776 -0.4016 -2.3813  0.2344
 8043TIP3    H224094   4.272   1.489   1.919 -1.9482  0.8605 -0.8760
 8044TIP3   OH224095   1.448   2.382   5.530  0.5592  0.6795  0.1301
 8044TIP3    H124096   1.386   2.448   5.558  0.3806  0.7147 -0.3381
 8044TIP3    H224097   1.534   2.420   5.547  0.4652  0.3795  1.3626
 8045TIP3   OH224098   6.377   6.570   5.445 -0.2610 -0.1792  0.6371
 8045TIP3    H124099   6.462   6.593   5.406 -0.6507 -0.2683 -0.2855
 8045TIP3    H224100   6.400   6.519   5.522  0.5219 -1.2912 -0.2853
 8046TIP3   OH224101   4.271   3.594   2.145  0.0649  0.3371  0.5559
 8046TIP3    H124102   4.325   3.672   2.133 -2.5271  2.0049 -1.2376
 8046TIP3    H224103   4.217   3.614   2.222  0.2150 -0.2329  0.8165
 8047TIP3   OH224104   0.676   1.369   2.430 -0.3687  0.2054 -0.3033
 8047TIP3    H124105   0.612   1.352   2.499  0.4431  0.3629  0.5007
 8047TIP3    H224106   0.661   1.461   2.407 -1.1240 -0.0440 -0.8635
 8048TIP3   OH224107   7.167   2.697   1.898  0.6837 -0.5982  0.3196
 8048TIP3    H124108   7.091   2.677   1.953 -0.1108 -1.0551 -0.8857
 8048TIP3    H224109   7.220   2.617   1.900  0.0724 -1.0509 -0.4476
 8049TIP3   OH224110   6.867   3.346   0.450 -0.9503 -0.1221 -0.1097
 8049TIP3    H124111   6.773   3.363   0.464 -0.5895  0.4356  1.9081
 8049TIP3    H224112   6.900   3.425   0.407 -1.1507  0.2130  0.3536
 8050TIP3   OH224113   5.348   1.452   2.536  0.4186  0.2307  0.2053
 8050TIP3    H124114   5.266   1.495   2.562  0.8902  0.4992  1.3322
 8050TIP3    H224115   5.411   1.523   2.526  0.9827 -0.0881  1.2337
 8051TIP3   OH224116   5.557   1.761   5.812  0.3776  0.5500 -0.0376
 8051TIP3    H124117   5.578   1.668   5.799  0.7007  0.4884  0.8948
 8051TIP3    H224118   5.471   1.760   5.855  0.5840  0.6640  0.3835
 8052TIP3   OH224119   0.803   5.144   1.051  0.2433 -0.2214  0.0752
 8052TIP3    H124120   0.739   5.073   1.063  0.2045 -0.4511 -1.3151
 8052TIP3    H224121   0.813   5.151   0.956  0.5736  1.3586  0.2000
 8053TIP3   OH224122   5.095   6.315   3.524 -0.2813  0.9484  0.1141
 8053TIP3    H124123   5.006   6.279   3.521 -0.3636  1.1774 -2.0855
 8053TIP3    H224124   5.138   6.276   3.448  2.6361 -1.8513  2.8964
 8054TIP3   OH224125   3.082   5.461   0.341  0.2827 -0.4029  0.2538
 8054TIP3    H124126   3.058   5.543   0.298  1.7187  0.9714  1.9362
 8054TIP3    H224127   3.148   5.422   0.284  0.2096  0.0236 -0.1281
 8055TIP3   OH224128   4.048   5.859   2.164  0.2988  0.2665 -0.0089
 8055TIP3    H124129   4.067   5.782   2.218 -0.1919  1.6226  2.2360
 8055TIP3    H224130   4.101   5.847   2.085  0.0277 -2.4708  0.1335
 8056TIP3   OH224131   0.891   4.890   1.603  0.3808 -0.6892 -0.4596
 8056TIP3    H124132   0.923   4.833   1.533  1.2273 -0.9308  0.1028
 8056TIP3    H224133   0.954   4.961   1.607  1.3659 -1.5896  1.2053
 8057TIP3   OH224134   5.600   6.486   2.062  0.5910 -0.4255 -0.5039
 8057TIP3    H124135   5.655   6.562   2.081  1.0984 -1.1195  0.9652
 8057TIP3    H224136   5.662   6.417   2.038  0.2060 -0.6313 -0.9170
 8058TIP3   OH224137   1.001   4.684   1.434 -0.0593  0.0279 -0.0386
 8058TIP3    H124138   0.988   4.598   1.472 -1.1553 -0.7655 -2.0386
 8058TIP3    H224139   1.095   4.687   1.414  0.0507 -0.5524  0.3627
 8059TIP3   OH224140   1.266   4.663   2.089  0.3256  0.2024  0.0305
 8059TIP3    H124141   1.224   4.728   2.147 -0.1586  0.2302 -0.3417
 8059TIP3    H224142   1.338   4.628   2.141  0.3102  0.7097  0.4066
 8060TIP3   OH224143   5.837   1.665   3.571  0.2784  0.0219  0.1242
 8060TIP3    H124144   5.779   1.678   3.496 -0.0090 -0.2122  0.3038
 8060TIP3    H224145   5.911   1.723   3.554  0.5758 -0.5954 -0.7121
 8061TIP3   OH224146   1.151   0.305   1.827  0.4844 -0.3103  0.5151
 8061TIP3    H124147   1.117   0.307   1.737 -0.9385  0.7640  1.0526
 8061TIP3    H224148   1.246   0.312   1.816  0.2587  1.1850 -0.8819
 8062TIP3   OH224149   5.685   6.665   0.366  0.1623  0.2800  0.2124
 8062TIP3    H124150   5.619   6.694   0.303 -0.4179 -0.7803  0.3125
 8062TIP3    H224151   5.761   6.644   0.313  0.8842  2.6394  0.1911
 8063TIP3   OH224152   0.207   2.137   5.233  0.0985  0.2757 -0.1691
 8063TIP3    H124153   0.184   2.048   5.209  0.8411  0.5470 -2.0458
 8063TIP3    H224154   0.259   2.128   5.313 -0.8653 -0.8474  0.3499
 8064TIP3   OH224155   6.914   2.139   5.370  0.4687  0.1606  0.5939
 8064TIP3    H124156   7.002   2.105   5.356  0.0312 -0.5583 -0.5608
 8064TIP3    H224157   6.918   2.230   5.342  0.2314 -0.5773 -2.1540
 8065TIP3   OH224158   4.835   6.455   0.415 -0.1348 -0.6434  0.0312
 8065TIP3    H124159   4.838   6.448   0.319  1.2909 -2.8554  0.1696
 8065TIP3    H224160   4.748   6.490   0.434  0.0390  1.2203 -2.0997
 8066TIP3   OH224161   6.994   5.515   4.502  0.2869 -0.3581  0.0443
 8066TIP3    H124162   6.977   5.423   4.522  1.0464 -0.5053  0.0624
 8066TIP3    H224163   6.952   5.563   4.573  2.5004 -0.8457  1.8039
 8067TIP3   OH224164   4.546   0.233   0.382 -0.1040 -0.2600  0.4602
 8067TIP3    H124165   4.630   0.199   0.410 -0.3056 -0.4382  0.8451
 8067TIP3    H224166   4.535   0.198   0.293 -0.4950 -1.5409  0.9929
 8068TIP3   OH224167   1.931   2.642   3.990  0.4464 -0.4958  0.4202
 8068TIP3    H124168   2.009   2.624   4.042  1.8129 -1.0929 -1.7081
 8068TIP3    H224169   1.936   2.581   3.917 -0.3870  1.4706 -1.4016
 8069TIP3   OH224170   4.825   3.563   5.657 -0.3118  0.2102 -0.3914
 8069TIP3    H124171   4.862   3.634   5.604 -2.0065  1.2630 -0.2659
 8069TIP3    H224172   4.750   3.533   5.606 -0.5192 -0.4330  0.2883
 8070TIP3   OH224173   3.202   4.584   2.802  0.2812 -0.1111 -0.0164
 8070TIP3    H124174   3.223   4.490   2.804  0.9353  0.0342  0.1144
 8070TIP3    H224175   3.265   4.624   2.861  1.7321  0.7328 -2.0280
 8071TIP3   OH224176   2.679   1.406   1.591  0.0679 -0.5985 -0.2764
 8071TIP3    H124177   2.584   1.405   1.598  0.0706 -1.2771 -0.1931
 8071TIP3    H224178   2.705   1.493   1.621 -0.3713 -1.1847  1.9919
 8072TIP3   OH224179   3.102   4.314   0.317  0.0885 -0.1602 -0.1947
 8072TIP3    H124180   3.131   4.353   0.234  0.8524  1.1288  0.6491
 8072TIP3    H224181   3.014   4.349   0.331 -0.3592 -0.9894 -0.8150
 8073TIP3   OH224182   0.357   6.778   3.707  0.2782  0.7654  0.0686
 8073TIP3    H124183   0.325   6.701   3.659 -0.9914  0.1405  1.7830
 8073TIP3    H224184   0.451   6.780   3.690  0.0780 -0.2239 -1.2980
 8074TIP3   OH224185   5.395   2.494   1.997 -0.3349 -0.1285  0.2647
 8074TIP3    H124186   5.486   2.475   2.020 -0.4797 -0.5312  0.5178
 8074TIP3    H224187   5.395   2.499   1.902  0.3573  1.9993  0.3297
 8075TIP3   OH224188   1.489   5.663   0.723 -0.3565 -0.3644 -0.1162
 8075TIP3    H124189   1.422   5.709   0.772  0.9499  0.3626  1.0666
 8075TIP3    H224190   1.447   5.582   0.695 -2.3445  0.9419 -1.2194
 8076TIP3   OH224191   4.397   0.741   5.449 -0.0005 -0.0154  0.3212
 8076TIP3    H124192   4.355   0.718   5.366 -0.8665 -0.0462  0.7450
 8076TIP3    H224193   4.484   0.772   5.425 -0.2103 -0.1005 -0.5870
 8077TIP3   OH224194   3.489   5.111   3.585 -0.5691 -0.1110 -0.3045
 8077TIP3    H124195   3.430   5.114   3.509  0.1546 -0.1226 -0.8784
 8077TIP3    H224196   3.525   5.023   3.583 -3.1200 -1.3948  2.0883
 8078TIP3   OH224197   5.435   3.994   2.595 -0.0838  0.1757 -0.0671
 8078TIP3    H124198   5.379   3.923   2.564  0.5658  0.1858 -1.3367
 8078TIP3    H224199   5.467   3.964   2.681 -0.3558 -0.7608 -0.2863
 8079TIP3   OH224200   5.592   6.221   1.018  0.5021 -0.5565 -0.2195
 8079TIP3    H124201   5.535   6.250   1.089 -0.8126 -2.4657 -0.4440
 8079TIP3    H224202   5.670   6.276   1.028 -0.7782  1.1968  0.9251
 8080TIP3   OH224203   2.644   4.260   0.646  0.2472 -0.1025  0.3081
 8080TIP3    H124204   2.577   4.200   0.679  0.7045 -1.0072 -0.3788
 8080TIP3    H224205   2.692   4.210   0.581  1.1092  0.7814  0.2323
 8081TIP3   OH224206   6.106   1.322   1.352 -0.0954 -0.0890 -0.4639
 8081TIP3    H124207   6.013   1.316   1.374  0.4363 -0.1337  1.9836
 8081TIP3    H224208   6.136   1.232   1.345  0.1969 -0.1208  0.9143
 8082TIP3   OH224209   0.990   3.039   1.627 -0.1220 -0.1295  0.0051
 8082TIP3    H124210   1.060   2.974   1.625  0.4305  0.4391  0.5482
 8082TIP3    H224211   0.961   3.041   1.718  0.3943  0.9393  0.1498
 8083TIP3   OH224212   5.907   2.623   2.986  0.0466 -0.6684  0.3285
 8083TIP3    H124213   5.964   2.547   2.995  0.3597 -0.3468  1.1972
 8083TIP3    H224214   5.960   2.697   3.014 -0.3216 -0.1557 -0.3084
 8084TIP3   OH224215   5.413   0.272   5.031  0.1116 -0.0674 -0.1412
 8084TIP3    H124216   5.452   0.233   4.952 -1.1190 -0.5242 -0.5343
 8084TIP3    H224217   5.440   0.364   5.027  0.8077 -0.2790 -0.6096
 8085TIP3   OH224218   4.529   3.359   0.781 -0.2722 -0.2882  0.3425
 8085TIP3    H124219   4.557   3.277   0.822  1.0684 -0.3293 -0.5796
 8085TIP3    H224220   4.602   3.419   0.794  0.9228 -0.7557 -3.1721
 8086TIP3   OH224221   3.341   0.835   2.160 -0.3296 -0.1761 -0.5677
 8086TIP3    H124222   3.367   0.752   2.200 -1.0807 -0.4786 -0.6821
 8086TIP3    H224223   3.286   0.877   2.227  1.6659  1.1949  0.3344
 8087TIP3   OH224224   5.574   1.357   1.023 -0.1724  0.1998  0.1380
 8087TIP3    H124225   5.550   1.449   1.011  0.3936  0.5350  1.4832
 8087TIP3    H224226   5.566   1.341   1.117 -2.5341 -1.7893 -0.3027
 8088TIP3   OH224227   0.134   2.562   3.192  0.3610  0.0444 -0.0825
 8088TIP3    H124228   0.079   2.543   3.116  0.3900 -1.5086  0.2634
 8088TIP3    H224229   0.201   2.621   3.158  1.6018 -2.2034 -1.8123
 8089TIP3   OH224230   4.581   5.173   0.321 -0.4462  0.5671 -0.4432
 8089TIP3    H124231   4.621   5.109   0.379 -0.4418  0.9404 -0.0248
 8089TIP3    H224232   4.651   5.198   0.260 -0.3776  0.3671 -0.4470
 8090TIP3   OH224233   0.558   3.120   5.163 -0.0277 -0.3865  0.2758
 8090TIP3    H124234   0.605   3.069   5.097 -0.4523 -0.8550  0.3352
 8090TIP3    H224235   0.619   3.126   5.236  0.0321 -0.7948  0.2622
 8091TIP3   OH224236   4.314   1.962   4.318 -0.5943  0.3923  0.5315
 8091TIP3    H124237   4.407   1.985   4.318 -0.3799 -0.4285 -0.3009
 8091TIP3    H224238   4.294   1.944   4.227 -1.4425  0.0469  0.7803
 8092TIP3   OH224239   6.578   4.916   1.493  0.1533 -0.2403  0.2655
 8092TIP3    H124240   6.596   4.847   1.429  1.2622  0.2542  0.0150
 8092TIP3    H224241   6.562   4.994   1.440 -0.6394 -0.1997  0.5565
 8093TIP3   OH224242   0.650   3.086   3.142 -0.4375  0.2289 -0.1301
 8093TIP3    H124243   0.722   3.128   3.191 -2.3226  1.3976  1.7941
 8093TIP3    H224244   0.659   3.121   3.053  0.9706  0.8596  0.2223
 8094TIP3   OH224245   0.896   2.444   4.357  0.3930  0.1701  0.2980
 8094TIP3    H124246   0.828   2.444   4.425 -0.1504  1.2458 -0.2187
 8094TIP3    H224247   0.978   2.439   4.405 -0.0411 -2.2328  0.9053
 8095TIP3   OH224248   0.389   5.919   1.876  0.1392  0.3233  0.1401
 8095TIP3    H124249   0.356   5.852   1.936  0.0744 -0.0350 -0.2905
 8095TIP3    H224250   0.463   5.877   1.832  1.2020  1.1206  1.1069
 8096TIP3   OH224251   7.025   6.715   1.357  0.4821  0.3428  0.0472
 8096TIP3    H124252   7.082   6.698   1.283 -0.3915 -2.6293 -0.0953
 8096TIP3    H224253   7.084   6.730   1.431  1.4468 -0.8762 -0.4451
 8097TIP3   OH224254   3.384   5.736   1.298 -0.4989  0.8204  0.0428
 8097TIP3    H124255   3.405   5.816   1.346  1.0571  0.6999 -0.3801
 8097TIP3    H224256   3.469   5.701   1.272 -1.1605 -0.8121 -0.0478
 8098TIP3   OH224257   6.766   1.646   0.158 -0.0770  0.2452 -0.2284
 8098TIP3    H124258   6.739   1.556   0.176 -0.5763 -0.9050 -5.2891
 8098TIP3    H224259   6.686   1.698   0.163 -0.0645  0.1711  1.1256
 8099TIP3   OH224260   7.164   5.164   0.545  0.2089  0.4395 -0.3063
 8099TIP3    H124261   7.114   5.182   0.625  1.6763  0.1952  0.7181
 8099TIP3    H224262   7.098   5.144   0.479 -1.0353  0.2461  0.9509
 8100TIP3   OH224263   1.047   1.223   0.732  0.9716  0.0419 -0.5924
 8100TIP3    H124264   1.111   1.157   0.707  0.2967 -0.4190 -1.1373
 8100TIP3    H224265   1.026   1.203   0.823  2.7941  1.2006  0.1456
 8101TIP3   OH224266   5.300   4.526   3.120  0.0956 -0.0676  0.5442
 8101TIP3    H124267   5.320   4.454   3.060  0.4814  1.5322 -1.3143
 8101TIP3    H224268   5.380   4.579   3.123  0.4445 -0.5717  3.2793
 8102TIP3   OH224269   1.823   4.201   4.984  0.2942 -0.1196  0.0828
 8102TIP3    H124270   1.869   4.127   5.022  0.1608 -1.1087 -1.5586
 8102TIP3    H224271   1.892   4.254   4.944  0.2603 -0.1776 -0.0551
 8103TIP3   OH224272   6.347   4.483   0.373 -0.1536  0.4420 -0.5279
 8103TIP3    H124273   6.264   4.484   0.420 -0.1968  0.6119 -0.6059
 8103TIP3    H224274   6.358   4.573   0.342  0.3180  0.5421 -0.0712
 8104TIP3   OH224275   0.279   2.172   3.766 -0.3493  0.4251  0.3385
 8104TIP3    H124276   0.184   2.176   3.750 -0.3258 -0.4606 -0.0324
 8104TIP3    H224277   0.317   2.153   3.681  0.3005  2.1957  0.1875
 8105TIP3   OH224278   0.907   3.168   1.099  0.4966  0.1428 -0.4040
 8105TIP3    H124279   0.856   3.107   1.152  1.0180 -0.4424 -0.5772
 8105TIP3    H224280   0.970   3.114   1.053 -0.7743  0.4584 -2.6537
 8106TIP3   OH224281   0.049   0.560   4.512  0.2351  0.4476 -0.2458
 8106TIP3    H124282   0.117   0.522   4.567 -1.1862  0.2048  1.4286
 8106TIP3    H224283   0.078   0.544   4.422  0.7872 -2.5876  0.3799
 8107TIP3   OH224284   0.206   3.910   4.814 -0.6035 -0.9092 -0.4791
 8107TIP3    H124285   0.276   3.888   4.752 -0.9594 -0.9334 -0.8719
 8107TIP3    H224286   0.165   3.826   4.835 -0.1018 -0.9855  0.2620
 8108TIP3   OH224287   0.968   4.113   2.123 -0.2793  0.4325 -0.7247
 8108TIP3    H124288   0.984   4.020   2.105 -0.1040  0.3674 -0.2629
 8108TIP3    H224289   1.055   4.150   2.140 -0.4261  0.4803 -0.0341
 8109TIP3   OH224290   0.242   1.735   0.717  0.2233  0.5524  0.2582
 8109TIP3    H124291   0.260   1.691   0.634  0.7098 -0.2034  0.7505
 8109TIP3    H224292   0.176   1.801   0.696 -0.2279 -0.1487 -0.5769
 8110TIP3   OH224293   3.477   4.342   5.597  0.1853 -0.3232  0.2373
 8110TIP3    H124294   3.508   4.278   5.660  0.9390 -0.6607 -0.4718
 8110TIP3    H224295   3.400   4.382   5.639  0.2878 -1.0036  1.0789
 8111TIP3   OH224296   0.824   0.103   0.755  0.1537 -0.5077  0.5694
 8111TIP3    H124297   0.828   0.143   0.668  2.3049 -0.9179  0.4220
 8111TIP3    H224298   0.818   0.009   0.738 -1.2807 -0.5072  0.9108
 8112TIP3   OH224299   0.614   4.470   3.939  0.2088  0.4209  0.2069
 8112TIP3    H124300   0.585   4.486   3.849 -0.4917 -1.4274  0.0656
 8112TIP3    H224301   0.657   4.385   3.935 -1.4281 -0.5458  1.9348
 8113TIP3   OH224302   1.828   2.897   2.820  0.5423 -0.3235 -0.1913
 8113TIP3    H124303   1.735   2.915   2.835  0.2654  0.8549 -2.7484
 8113TIP3    H224304   1.871   2.982   2.826  0.9516 -0.3653 -1.8473
 8114TIP3   OH224305   4.189   0.749   0.305  0.2882  0.2317  0.4180
 8114TIP3    H124306   4.148   0.663   0.302 -2.0265  1.2021  1.5386
 8114TIP3    H224307   4.121   0.807   0.339  1.8483  2.4725 -0.0269
 8115TIP3   OH224308   4.228   3.930   5.283 -0.0793 -0.1613 -0.1293
 8115TIP3    H124309   4.306   3.906   5.232 -1.5789 -1.3312 -2.0062
 8115TIP3    H224310   4.220   3.862   5.349 -0.7546 -1.3788 -1.4138
 8116TIP3   OH224311   2.208   1.579   5.365 -0.2364  0.2129 -0.8553
 8116TIP3    H124312   2.126   1.554   5.408  0.4742  0.6133  0.8558
 8116TIP3    H224313   2.182   1.641   5.297 -1.2652  1.7009  0.7850
 8117TIP3   OH224314   2.934   1.883   3.624  0.0059  0.2119  0.6233
 8117TIP3    H124315   2.885   1.914   3.700  0.0426  1.3953  0.1882
 8117TIP3    H224316   2.998   1.821   3.659  2.4360  3.2934  2.1546
 8118TIP3   OH224317   5.366   2.299   0.389 -0.2072  0.2965  0.0355
 8118TIP3    H124318   5.415   2.374   0.356 -0.4678 -0.3750 -2.0274
 8118TIP3    H224319   5.415   2.223   0.359 -0.7572 -0.3782  0.7837
 8119TIP3   OH224320   4.619   5.880   4.173  0.6163 -0.1720  0.0635
 8119TIP3    H124321   4.525   5.876   4.153  0.2743  2.8362  0.5521
 8119TIP3    H224322   4.655   5.937   4.105  1.4277  1.3427  1.6715
 8120TIP3   OH224323   7.068   3.849   1.089  0.4652  0.4107  0.3145
 8120TIP3    H124324   7.151   3.818   1.126  1.2537  1.4616 -0.4901
 8120TIP3    H224325   7.058   3.937   1.126 -0.3605  0.2380  0.5023
 8121TIP3   OH224326   5.473   0.200   0.361  0.2332  0.1372  0.0667
 8121TIP3    H124327   5.391   0.226   0.320 -1.7598 -1.8910  2.4189
 8121TIP3    H224328   5.486   0.264   0.432 -0.1236 -0.3476  0.5807
 8122TIP3   OH224329   3.779   3.847   2.941 -0.0409  0.0601 -0.2082
 8122TIP3    H124330   3.742   3.811   3.022  0.5955  1.6460  0.8461
 8122TIP3    H224331   3.779   3.774   2.880  0.2968 -1.4447  1.5107
 8123TIP3   OH224332   2.068   4.431   4.898  0.4273  0.1984  0.3689
 8123TIP3    H124333   2.012   4.421   4.821  0.5640 -2.3497  0.5094
 8123TIP3    H224334   2.146   4.477   4.866  1.3374 -2.4416 -1.5445
 8124TIP3   OH224335   1.579   1.490   4.965 -0.4228 -0.5387 -0.5020
 8124TIP3    H124336   1.614   1.461   4.881 -1.0005 -2.2159 -0.1905
 8124TIP3    H224337   1.507   1.430   4.984 -0.1900 -0.3196  1.2776
 8125TIP3   OH224338   7.104   4.511   1.468  0.1173  0.3487 -0.2138
 8125TIP3    H124339   7.199   4.501   1.462  0.1669  0.8355 -0.2666
 8125TIP3    H224340   7.089   4.605   1.454 -0.3807  0.2506 -0.3427
 8126TIP3   OH224341   3.249   0.930   0.534  0.4386  0.3695 -0.1779
 8126TIP3    H124342   3.185   0.981   0.583  2.5466  2.3430  0.7429
 8126TIP3    H224343   3.259   0.978   0.452 -0.4622 -0.8973 -1.0542
 8127TIP3   OH224344   6.968   1.228   0.423 -0.1220  0.1062 -0.1193
 8127TIP3    H124345   6.971   1.323   0.411  0.2993  0.5818  2.9076
 8127TIP3    H224346   6.990   1.192   0.337 -1.4179  2.6969 -1.6512
 8128TIP3   OH224347   3.242   0.625   3.848 -0.2208 -0.4285  1.1277
 8128TIP3    H124348   3.315   0.595   3.902  1.0329  0.7767  0.1816
 8128TIP3    H224349   3.191   0.681   3.906  2.1017  2.3487  0.7677
 8129TIP3   OH224350   1.515   1.529   4.486  0.5421  0.2789  0.1972
 8129TIP3    H124351   1.508   1.438   4.456  2.2589 -0.2581  1.2660
 8129TIP3    H224352   1.552   1.576   4.411 -0.5552  0.1685 -0.4326
 8130TIP3   OH224353   6.738   5.692   4.230  0.3605  0.1226 -0.6890
 8130TIP3    H124354   6.780   5.648   4.305 -1.9290 -0.1211  0.5187
 8130TIP3    H224355   6.770   5.642   4.154  1.4784 -0.6544  0.2345
 8131TIP3   OH224356   1.896   4.674   0.345 -0.4507 -0.3348 -0.3694
 8131TIP3    H124357   1.983   4.707   0.368 -1.1664  0.7881  0.9016
 8131TIP3    H224358   1.872   4.615   0.417 -0.6940 -0.7126 -0.7584
 8132TIP3   OH224359   0.494   3.211   5.764  0.3255  0.7802  0.2590
 8132TIP3    H124360   0.445   3.285   5.729 -0.7431  0.2920  0.6877
 8132TIP3    H224361   0.488   3.144   5.697  0.2317  0.6470  0.3994
 8133TIP3   OH224362   0.468   5.079   5.638  0.1284  0.0502  0.0758
 8133TIP3    H124363   0.382   5.054   5.669 -0.9887  1.9808 -1.2818
 8133TIP3    H224364   0.519   4.998   5.641 -2.0629 -1.4131 -0.2053
 8134TIP3   OH224365   4.135   6.082   0.797 -0.0294 -0.0319 -0.0596
 8134TIP3    H124366   4.202   6.053   0.859  0.9749 -0.1797 -1.1779
 8134TIP3    H224367   4.056   6.093   0.851  0.8307 -0.0307  1.2565
 8135TIP3   OH224368   5.232   1.654   3.932  0.3718  0.5408 -0.3861
 8135TIP3    H124369   5.185   1.726   3.973 -1.1666  0.6800 -2.2452
 8135TIP3    H224370   5.307   1.695   3.890 -0.2962  1.0306 -1.1266
 8136TIP3   OH224371   4.868   1.059   4.671 -0.0094 -0.2824  0.8579
 8136TIP3    H124372   4.823   1.138   4.642 -0.3166 -0.6098  0.4331
 8136TIP3    H224373   4.889   1.012   4.590  1.5251  0.0845  1.0041
 8137TIP3   OH224374   4.709   4.538   0.167  0.2412  0.0340  0.7403
 8137TIP3    H124375   4.718   4.471   0.235  3.1119 -1.7249 -1.1915
 8137TIP3    H224376   4.653   4.498   0.100 -0.2896  0.6886  0.7687
 8138TIP3   OH224377   6.642   3.560   1.869 -0.2465 -0.2468 -0.3040
 8138TIP3    H124378   6.639   3.652   1.897  1.9020 -0.3998  0.6339
 8138TIP3    H224379   6.562   3.548   1.817  0.8652  2.9865 -3.0725
 8139TIP3   OH224380   1.285   4.855   2.822  0.3437  0.5048 -0.2969
 8139TIP3    H124381   1.228   4.871   2.746  0.1405 -0.0061 -0.2568
 8139TIP3    H224382   1.249   4.911   2.890 -0.2429  0.0516 -0.2165
 8140TIP3   OH224383   1.895   3.177   3.769  0.6762 -0.2061  0.0873
 8140TIP3    H124384   1.922   3.267   3.789 -1.2476  0.2500  0.8329
 8140TIP3    H224385   1.801   3.183   3.752  1.0363 -1.5710 -3.1456
 8141TIP3   OH224386   0.149   4.437   1.419  0.0647 -0.1144 -0.2151
 8141TIP3    H124387   0.138   4.435   1.324  2.8737 -0.5166 -0.6188
 8141TIP3    H224388   0.220   4.499   1.434 -0.1925 -0.2051  1.6152
 8142TIP3   OH224389   0.601   5.399   4.803  0.2099  0.2177  0.2323
 8142TIP3    H124390   0.575   5.308   4.794  0.1590 -0.0964  2.6956
 8142TIP3    H224391   0.689   5.403   4.766  0.1834 -0.8209  0.0323
 8143TIP3   OH224392   6.118   1.168   0.826  0.3359  0.6152 -0.1662
 8143TIP3    H124393   6.094   1.158   0.734  1.8750 -1.0489 -0.4513
 8143TIP3    H224394   6.130   1.262   0.838  0.1996  0.8466 -1.6795
 8144TIP3   OH224395   1.303   6.576   3.806 -0.2972 -0.1003 -0.0802
 8144TIP3    H124396   1.255   6.505   3.764 -1.2244  1.0165 -0.9911
 8144TIP3    H224397   1.235   6.632   3.843  0.3565  0.8616 -0.2886
 8145TIP3   OH224398   5.436   1.546   4.599 -0.3770 -0.5387 -0.0170
 8145TIP3    H124399   5.524   1.576   4.623 -1.1861  1.9159  0.0733
 8145TIP3    H224400   5.378   1.618   4.621 -2.4927 -2.1590  0.0881
 8146TIP3   OH224401   1.634   1.372   5.284 -0.0414 -0.0796  0.2425
 8146TIP3    H124402   1.641   1.302   5.348  0.0290  0.3122  0.6627
 8146TIP3    H224403   1.680   1.446   5.323 -1.1998  0.6066  0.3626
 8147TIP3   OH224404   1.608   5.075   5.780  0.0775  0.4851 -0.0579
 8147TIP3    H124405   1.541   5.031   5.728  0.6877 -0.6513  0.1001
 8147TIP3    H224406   1.581   5.167   5.779 -1.2551  0.1220 -0.3377
 8148TIP3   OH224407   1.046   2.456   3.888  0.3950  0.0721  0.1864
 8148TIP3    H124408   1.077   2.496   3.806 -0.9414  1.1894  0.1973
 8148TIP3    H224409   1.045   2.362   3.870  0.3154  0.2887 -1.0195
 8149TIP3   OH224410   4.365   5.436   5.360 -0.3794  0.2459 -0.4743
 8149TIP3    H124411   4.328   5.471   5.279 -1.0956  0.3104 -0.1335
 8149TIP3    H224412   4.337   5.345   5.362 -0.1022  0.1625 -0.4528
 8150TIP3   OH224413   6.121   0.239   4.074 -0.1853 -0.5239 -0.0720
 8150TIP3    H124414   6.039   0.191   4.060 -1.2066  0.7906  0.9955
 8150TIP3    H224415   6.097   0.331   4.061  1.1609 -0.1207  0.1278
 8151TIP3   OH224416   2.519   6.186   1.599  0.4686  0.1533 -0.5044
 8151TIP3    H124417   2.497   6.229   1.516 -2.9973 -0.7189 -0.2239
 8151TIP3    H224418   2.524   6.093   1.576 -1.1468 -0.1629  0.3001
 8152TIP3   OH224419   0.533   1.170   0.345  0.1580  0.1967  0.2153
 8152TIP3    H124420   0.440   1.148   0.340  0.2667 -0.1163 -0.5426
 8152TIP3    H224421   0.570   1.102   0.401  0.4311 -1.4723 -1.8373
 8153TIP3   OH224422   5.595   2.805   2.930 -0.0745 -0.1526 -0.3042
 8153TIP3    H124423   5.664   2.857   2.889  0.0829  0.2230  0.4315
 8153TIP3    H224424   5.514   2.835   2.888  0.2696 -1.2215 -1.8258
 8154TIP3   OH224425   3.297   0.680   3.177  0.1893  0.4665 -0.1826
 8154TIP3    H124426   3.388   0.652   3.165  0.1452 -0.3047  1.0695
 8154TIP3    H224427   3.247   0.624   3.117  0.4244  0.0353  0.0185
 8155TIP3   OH224428   3.918   1.858   3.876 -0.0980 -0.0101 -0.2301
 8155TIP3    H124429   3.916   1.788   3.941  1.8893  0.6132  0.6008
 8155TIP3    H224430   3.835   1.905   3.887 -1.5564 -2.2757 -0.9366
 8156TIP3   OH224431   4.747   5.579   3.294 -0.1403 -0.2346  0.4094
 8156TIP3    H124432   4.763   5.618   3.380  0.6466 -1.1267  0.6724
 8156TIP3    H224433   4.720   5.489   3.313 -1.9209  0.1274 -0.1999
 8157TIP3   OH224434   4.732   6.644   5.334 -0.5891 -0.7245 -0.3007
 8157TIP3    H124435   4.698   6.555   5.340  0.6465 -1.1392  1.1927
 8157TIP3    H224436   4.782   6.657   5.415  1.7141  0.2533 -1.7606
 8158TIP3   OH224437   3.397   6.528   5.065 -0.3084 -0.1594  0.2856
 8158TIP3    H124438   3.397   6.594   4.995  0.0421 -2.4983 -2.0925
 8158TIP3    H224439   3.489   6.510   5.081 -0.4061 -0.4211  0.5594
 8159TIP3   OH224440   0.691   1.549   0.824 -0.2734 -0.6872 -0.1249
 8159TIP3    H124441   0.688   1.478   0.888  0.4382  0.6207  1.4302
 8159TIP3    H224442   0.785   1.559   0.805 -0.3674 -0.1297 -0.2966
 8160TIP3   OH224443   4.513   1.676   5.854  0.0965 -0.4178 -0.2254
 8160TIP3    H124444   4.478   1.647   5.769  0.7604 -2.1028  0.0363
 8160TIP3    H224445   4.437   1.710   5.901 -0.0431  2.0913 -2.0417
 8161TIP3   OH224446   4.859   2.238   1.323  0.4846 -0.3356 -0.4568
 8161TIP3    H124447   4.933   2.220   1.265  0.3705  0.8774 -1.0234
 8161TIP3    H224448   4.898   2.243   1.411  1.3466  1.6212 -0.8999
 8162TIP3   OH224449   4.467   0.224   2.890 -0.4662 -0.1103 -0.0427
 8162TIP3    H124450   4.505   0.249   2.974 -0.5717 -0.2798  0.0546
 8162TIP3    H224451   4.430   0.306   2.856 -0.2849 -0.0086  0.0022
 8163TIP3   OH224452   1.443   6.721   1.190  0.5393 -0.1497 -0.2244
 8163TIP3    H124453   1.497   6.793   1.220 -1.2591  1.3328 -0.3260
 8163TIP3    H224454   1.420   6.745   1.100  1.1155 -1.6218 -0.7925
 8164TIP3   OH224455   0.294   3.589   2.444 -0.0515 -0.1855 -0.8849
 8164TIP3    H124456   0.299   3.509   2.497 -0.4945  0.2135 -0.2367
 8164TIP3    H224457   0.227   3.569   2.378 -0.3887 -0.2377 -0.5293
 8165TIP3   OH224458   2.742   0.680   2.009 -0.0015 -0.4735  0.1497
 8165TIP3    H124459   2.675   0.666   1.942  1.0153 -2.6084 -0.4921
 8165TIP3    H224460   2.696   0.729   2.078 -1.7741 -0.4844 -0.9492
 8166TIP3   OH224461   7.011   6.022   5.635  0.1250  0.5842  0.0792
 8166TIP3    H124462   7.005   5.956   5.567 -0.2874  0.9483 -0.2492
 8166TIP3    H224463   6.959   6.095   5.602 -3.9273 -0.7966  2.5812
 8167TIP3   OH224464   0.959   0.540   4.754  0.5619 -0.7822  0.0273
 8167TIP3    H124465   0.899   0.467   4.768 -0.4138 -0.0094  0.0046
 8167TIP3    H224466   0.923   0.587   4.678  0.5456  0.3345  0.6958
 8168TIP3   OH224467   3.982   4.672   1.106  0.0946  0.0857 -0.2611
 8168TIP3    H124468   3.915   4.619   1.064  0.0086 -0.0807  0.0864
 8168TIP3    H224469   3.951   4.762   1.097  0.3310  0.1072 -1.0175
 8169TIP3   OH224470   0.451   2.327   0.204  0.0385  0.2979 -0.5910
 8169TIP3    H124471   0.369   2.340   0.252 -0.4898 -0.2808 -1.3199
 8169TIP3    H224472   0.516   2.378   0.254 -0.7742  0.8495 -0.0651
 8170TIP3   OH224473   3.120   4.356   1.393 -0.4287 -0.0422 -0.4919
 8170TIP3    H124474   3.069   4.281   1.425 -0.0751 -0.1786 -0.2429
 8170TIP3    H224475   3.089   4.370   1.304 -2.4965  1.2806  0.3762
 8171TIP3   OH224476   4.843   5.559   4.799 -0.3876  0.1682  0.2885
 8171TIP3    H124477   4.861   5.465   4.800 -0.1813  0.1485 -1.8135
 8171TIP3    H224478   4.923   5.599   4.834  0.9032 -0.3195 -1.8995
 8172TIP3   OH224479   4.283   6.292   4.955  0.1069  0.2590 -0.6441
 8172TIP3    H124480   4.377   6.284   4.975  0.1269 -0.3827 -0.9766
 8172TIP3    H224481   4.277   6.277   4.861 -0.2656  0.9414 -0.7402
 8173TIP3   OH224482   3.681   5.597   1.645 -0.4911  0.4554  0.5247
 8173TIP3    H124483   3.717   5.675   1.686  0.2538  0.2050  0.3671
 8173TIP3    H224484   3.713   5.525   1.699  1.1242  0.0655 -0.8841
 8174TIP3   OH224485   3.201   1.278   0.557 -0.6103  0.2511  0.1277
 8174TIP3    H124486   3.276   1.272   0.617 -1.5130 -1.1730  1.1687
 8174TIP3    H224487   3.130   1.311   0.612 -1.0603  0.4577 -0.5667
 8175TIP3   OH224488   2.747   1.297   0.434 -0.0880 -0.1988  0.1089
 8175TIP3    H124489   2.727   1.283   0.527  0.5409  1.5452  0.5446
 8175TIP3    H224490   2.838   1.271   0.425 -0.5428 -1.7458 -0.3814
 8176TIP3   OH224491   4.938   2.873   2.049  0.4285  0.3555 -0.5666
 8176TIP3    H124492   4.897   2.953   2.018  0.5863  0.6662  0.0092
 8176TIP3    H224493   4.864   2.818   2.078  0.4270  1.8333  2.6889
 8177TIP3   OH224494   2.436   5.306   4.314  0.1750 -0.1682 -0.1446
 8177TIP3    H124495   2.402   5.220   4.290 -0.4313  0.1653 -0.5202
 8177TIP3    H224496   2.472   5.341   4.232 -0.1646  0.1980 -0.1372
 8178TIP3   OH224497   2.951   1.381   0.644  0.1885  0.1018  0.5323
 8178TIP3    H124498   2.859   1.364   0.623 -0.1554 -0.1459  2.0647
 8178TIP3    H224499   2.976   1.453   0.587 -0.8440 -0.0847 -0.1841
 8179TIP3   OH224500   6.349   5.328   2.860  0.3710  0.4680 -0.5269
 8179TIP3    H124501   6.288   5.255   2.854  0.1571  0.6917 -1.3003
 8179TIP3    H224502   6.430   5.290   2.893 -0.4470  0.3401  1.4906
 8180TIP3   OH224503   5.684   4.691   2.168 -0.3161 -0.5001  0.3593
 8180TIP3    H124504   5.610   4.631   2.154  0.7309 -1.3010 -2.5293
 8180TIP3    H224505   5.649   4.778   2.149 -1.0792 -0.5749  1.3833
 8181TIP3   OH224506   3.708   4.080   0.461 -0.0362  0.2360  0.0426
 8181TIP3    H124507   3.632   4.077   0.403 -0.6423  0.2479  0.8401
 8181TIP3    H224508   3.679   4.039   0.542  0.7078  0.5500  0.4742
 8182TIP3   OH224509   6.694   3.066   4.922 -0.2526 -0.0243  0.1768
 8182TIP3    H124510   6.626   3.011   4.960 -1.0289  0.0058 -1.1142
 8182TIP3    H224511   6.722   3.122   4.994 -0.2822 -1.2832  1.2008
 8183TIP3   OH224512   2.356   3.247   0.399 -0.2271 -0.4817 -0.0462
 8183TIP3    H124513   2.343   3.166   0.350 -0.3444 -0.7259  0.3791
 8183TIP3    H224514   2.335   3.224   0.490 -1.1618  0.2444 -0.0473
 8184TIP3   OH224515   3.469   3.186   0.339  0.3826  0.1208  0.2309
 8184TIP3    H124516   3.429   3.130   0.406 -1.0059 -2.0708 -2.2242
 8184TIP3    H224517   3.558   3.153   0.331  0.1093 -0.5886  0.0238
 8185TIP3   OH224518   0.042   5.876   4.341 -0.1207 -0.1682  0.1271
 8185TIP3    H124519   0.011   5.843   4.257  0.0745  1.0856 -0.4590
 8185TIP3    H224520   0.108   5.813   4.368 -0.3580 -0.7173 -0.5471
 8186TIP3   OH224521   1.175   6.486   0.033 -0.3991 -0.4971  0.7242
 8186TIP3    H124522   1.178   6.390   0.028  0.0545 -0.4556  0.0200
 8186TIP3    H224523   1.246   6.515  -0.024  0.3329  0.2425  1.9495
 8187TIP3   OH224524   1.650   3.321   3.646 -0.0780  0.4441 -0.4943
 8187TIP3    H124525   1.635   3.265   3.722  1.0763  1.1037  0.2523
 8187TIP3    H224526   1.566   3.323   3.601 -0.7012 -0.2239  0.5820
 8188TIP3   OH224527   5.208   1.471   2.058 -0.4545  0.3460 -0.2014
 8188TIP3    H124528   5.251   1.556   2.049  2.0827 -0.9809 -2.1395
 8188TIP3    H224529   5.191   1.444   1.968 -2.0972 -0.7961  0.4206
 8189TIP3   OH224530   3.974   6.157   2.902  0.2342  0.0514  0.7265
 8189TIP3    H124531   4.030   6.088   2.936 -0.3620 -0.4963  0.6302
 8189TIP3    H224532   3.953   6.129   2.813  0.1784  0.4721  0.6046
 8190TIP3   OH224533   2.366   3.047   2.741  0.3850  0.2700  0.4723
 8190TIP3    H124534   2.335   3.121   2.689 -0.2091 -0.1018  0.2832
 8190TIP3    H224535   2.404   2.986   2.677 -1.6314 -0.8406  0.2472
 8191TIP3   OH224536   3.045   5.740   3.158 -0.2993 -0.4341 -0.1133
 8191TIP3    H124537   2.973   5.681   3.178 -0.4339 -0.4966 -0.7471
 8191TIP3    H224538   3.089   5.754   3.242 -1.0458 -0.3935  0.2735
 8192TIP3   OH224539   0.387   6.707   4.679  0.2471  0.3505 -0.4216
 8192TIP3    H124540   0.424   6.727   4.593  2.3425  2.5681  0.8760
 8192TIP3    H224541   0.446   6.641   4.716  0.0345  0.2593 -0.2456
 8193TIP3   OH224542   6.444   2.951   0.731 -0.9081  0.6026 -0.1406
 8193TIP3    H124543   6.433   3.043   0.753  1.5237  1.1755 -1.0239
 8193TIP3    H224544   6.533   2.930   0.759  0.1171 -0.2972 -3.5748
 8194TIP3   OH224545   2.706   2.973   0.532  0.3228  0.8583  0.2201
 8194TIP3    H124546   2.728   3.020   0.613  0.9990 -0.6846  0.9812
 8194TIP3    H224547   2.735   2.883   0.548 -0.5986  0.2459 -1.3096
 8195TIP3   OH224548   6.265   0.714   1.672  0.3086  0.0514 -0.1085
 8195TIP3    H124549   6.178   0.724   1.634  0.3641  2.1089  0.1949
 8195TIP3    H224550   6.315   0.664   1.608 -0.0724  2.0109 -2.0484
 8196TIP3   OH224551   6.898   6.735   0.456  0.0440 -0.6808 -0.3220
 8196TIP3    H124552   6.985   6.738   0.417 -0.5493 -1.4225 -1.7571
 8196TIP3    H224553   6.913   6.756   0.549  1.4164  1.8382 -1.0191
 8197TIP3   OH224554   5.783   5.590   2.453  0.4162  1.0177 -0.0714
 8197TIP3    H124555   5.790   5.641   2.534 -1.2030  1.1047  0.0550
 8197TIP3    H224556   5.690   5.568   2.447  0.7387 -0.1947 -1.1881
 8198TIP3   OH224557   2.372   5.363   2.400  0.1390 -0.1206  0.0065
 8198TIP3    H124558   2.355   5.338   2.490 -1.2793 -0.3604 -0.3050
 8198TIP3    H224559   2.303   5.427   2.379 -0.8261 -1.5677 -1.5129
 8199TIP3   OH224560   1.538   6.693   3.775 -0.1113 -0.4828  0.1034
 8199TIP3    H124561   1.468   6.630   3.761  1.0066 -1.9592  0.8062
 8199TIP3    H224562   1.602   6.673   3.706  0.7102 -0.8375  0.9413
 8200TIP3   OH224563   3.934   0.627   4.213 -0.9488  0.0899 -0.2464
 8200TIP3    H124564   3.940   0.664   4.125  1.3907 -0.2960 -0.2952
 8200TIP3    H224565   3.906   0.536   4.199 -1.4951  0.2930 -0.5032
 8201TIP3   OH224566   3.139   1.840   0.533  0.7059  0.1192  0.0519
 8201TIP3    H124567   3.216   1.896   0.521 -0.2209  1.4555  0.1214
 8201TIP3    H224568   3.069   1.887   0.489 -0.4315 -0.2511  1.3969
 8202TIP3   OH224569   1.443   4.609   2.276 -0.0606 -0.3180  0.0102
 8202TIP3    H124570   1.424   4.622   2.369 -0.5347  0.7222 -0.2207
 8202TIP3    H224571   1.497   4.529   2.274  0.0559 -0.2934  1.1794
 8203TIP3   OH224572   0.730   2.493   2.728  0.0651  0.5577  0.3531
 8203TIP3    H124573   0.696   2.421   2.676  0.0630  1.0213 -0.2951
 8203TIP3    H224574   0.707   2.572   2.679  1.6798  0.9045  0.0977
 8204TIP3   OH224575   4.202   1.681   5.560 -0.2433 -0.4953  0.2594
 8204TIP3    H124576   4.112   1.711   5.551  0.5932  2.1992 -0.1400
 8204TIP3    H224577   4.240   1.693   5.472  0.7717 -0.5111  0.6813
 8205TIP3   OH224578   5.107   6.307   0.555 -0.2664  0.1112 -0.0586
 8205TIP3    H124579   5.080   6.395   0.582  0.1014 -0.2624  1.6744
 8205TIP3    H224580   5.176   6.322   0.491 -0.5461  1.0791 -0.1539
 8206TIP3   OH224581   7.203   6.206   4.740 -0.4258  0.0596 -0.1036
 8206TIP3    H124582   7.262   6.233   4.670  1.5704  1.0070  1.8267
 8206TIP3    H224583   7.148   6.282   4.755  0.8482  0.8060  0.9888
 8207TIP3   OH224584   5.937   3.987   5.811 -0.6128 -0.0803  0.1358
 8207TIP3    H124585   6.027   3.954   5.817 -0.5935  0.1235  1.1003
 8207TIP3    H224586   5.930   4.051   5.881 -0.9723  1.2261 -1.0395
 8208TIP3   OH224587   1.156   5.203   0.788  0.2963 -0.4174  0.5997
 8208TIP3    H124588   1.080   5.238   0.743  0.4380 -0.0745  0.6229
 8208TIP3    H224589   1.120   5.144   0.855  0.1132 -1.7363 -0.6153
 8209TIP3   OH224590   1.434   3.784   4.317 -0.8933 -0.6242 -0.5041
 8209TIP3    H124591   1.407   3.692   4.318  0.5727 -1.0724 -0.2627
 8209TIP3    H224592   1.429   3.812   4.408 -1.7819 -0.3162 -0.6395
 8210TIP3   OH224593   3.437   1.250   0.694  0.9625  0.3174 -0.2421
 8210TIP3    H124594   3.457   1.274   0.785 -0.4328 -0.8889  0.4230
 8210TIP3    H224595   3.508   1.289   0.643  2.3329  0.1751  1.4656
 8211TIP3   OH224596   4.732   5.027   0.523 -0.1556 -0.4204 -0.8174
 8211TIP3    H124597   4.675   4.985   0.587  1.0780 -2.1225 -0.7729
 8211TIP3    H224598   4.733   5.119   0.549  1.1761 -1.2199  2.3663
 8212TIP3   OH224599   4.158   3.619   2.380  0.3340  0.6980  0.0660
 8212TIP3    H124600   4.126   3.665   2.458  0.1706 -0.3224  0.6324
 8212TIP3    H224601   4.100   3.543   2.373  3.4100 -2.1344  2.0812
 8213TIP3   OH224602   6.685   3.715   3.824  0.2943  0.0129 -0.3862
 8213TIP3    H124603   6.647   3.628   3.836 -2.9205  1.3043 -0.1733
 8213TIP3    H224604   6.730   3.733   3.906  3.3819 -2.3681 -1.3684
 8214TIP3   OH224605   5.332   4.140   1.934  0.6799  0.3065  0.2944
 8214TIP3    H124606   5.397   4.141   2.005  0.6827 -1.7592  0.3950
 8214TIP3    H224607   5.333   4.229   1.899  2.1239  0.8488  1.5910
 8215TIP3   OH224608   0.279   1.998   4.310 -0.4712 -0.0528  0.8121
 8215TIP3    H124609   0.253   1.995   4.218 -1.3715 -0.9783  1.0810
 8215TIP3    H224610   0.234   2.075   4.345  0.7194  0.9266  0.2500
 8216TIP3   OH224611   2.841   5.578   2.674  0.1488 -0.1953  0.0512
 8216TIP3    H124612   2.885   5.660   2.693 -1.6275  1.0382 -0.8118
 8216TIP3    H224613   2.759   5.583   2.725 -0.4822 -0.9039 -0.8611
 8217TIP3   OH224614   1.423   5.144   2.271 -0.0598  0.1618  0.2579
 8217TIP3    H124615   1.425   5.230   2.229  1.1275 -0.6112 -1.4135
 8217TIP3    H224616   1.514   5.129   2.297 -0.5005 -0.0581  1.7557
 8218TIP3   OH224617   6.939   5.345   2.444 -0.1246 -0.2229  0.1159
 8218TIP3    H124618   6.895   5.301   2.517  0.3176 -2.0874 -0.6657
 8218TIP3    H224619   6.924   5.438   2.459  0.1894 -0.5158  2.7215
 8219TIP3   OH224620   0.394   5.877   5.496 -0.4963 -0.7153  0.1549
 8219TIP3    H124621   0.328   5.893   5.428  0.7492 -1.6219 -1.3238
 8219TIP3    H224622   0.409   5.963   5.535 -2.6739 -0.5096  0.7031
 8220TIP3   OH224623   6.993   2.159   0.357 -0.0376  0.4435 -0.1388
 8220TIP3    H124624   6.992   2.163   0.261 -1.3003  0.8464 -0.1376
 8220TIP3    H224625   6.915   2.209   0.383  0.2272  0.2421  1.0959
 8221TIP3   OH224626   7.181   1.185   1.966  0.2755 -0.4743 -0.0639
 8221TIP3    H124627   7.178   1.188   1.870  1.5670 -0.8432 -0.1461
 8221TIP3    H224628   7.107   1.130   1.990 -0.4249  0.1083 -0.8033
 8222TIP3   OH224629   4.117   5.976   3.904  0.6981  0.2369 -0.2434
 8222TIP3    H124630   4.119   5.912   3.834 -0.1058  0.5816 -0.5890
 8222TIP3    H224631   4.049   6.038   3.879  2.0436  1.7359 -0.3643
 8223TIP3   OH224632   3.501   0.746   4.623  0.0404 -0.2642 -0.0933
 8223TIP3    H124633   3.420   0.736   4.672  0.2152  0.0808  0.2754
 8223TIP3    H224634   3.569   0.711   4.682  0.1391 -0.6975 -0.4619
 8224TIP3   OH224635   7.173   0.906   5.110 -0.4882  0.1076  0.8097
 8224TIP3    H124636   7.114   0.934   5.039  0.6252  0.9732  0.1914
 8224TIP3    H224637   7.238   0.851   5.067  0.0124  0.3715  1.2219
 8225TIP3   OH224638   5.104   1.021   4.473  0.4160 -0.0673 -0.8821
 8225TIP3    H124639   5.074   0.940   4.432  0.4173 -0.9146  0.7220
 8225TIP3    H224640   5.196   1.028   4.448  0.5433 -0.8277 -0.6488
 8226TIP3   OH224641   1.365   4.550   2.551 -0.1290 -0.1380 -0.8237
 8226TIP3    H124642   1.297   4.566   2.617  0.8605 -0.2650  0.2626
 8226TIP3    H224643   1.421   4.627   2.556 -0.5129  0.2535 -2.1543
 8227TIP3   OH224644   0.323   5.796   3.343 -0.3154 -0.5785  1.3073
 8227TIP3    H124645   0.229   5.816   3.339  0.0990  1.3592 -1.7079
 8227TIP3    H224646   0.340   5.744   3.264  1.2385 -0.5034  1.5715
 8228TIP3   OH224647   5.166   3.795   5.661  0.6686  0.1136 -0.2578
 8228TIP3    H124648   5.175   3.769   5.752 -0.2850 -1.5971 -0.6102
 8228TIP3    H224649   5.170   3.891   5.663 -0.3655  0.1640  1.6913
 8229TIP3   OH224650   6.933   5.790   5.220  0.2934 -0.2705 -0.0965
 8229TIP3    H124651   6.971   5.835   5.295  1.1042 -1.2208  0.0807
 8229TIP3    H224652   7.007   5.744   5.179 -0.3445 -0.7059 -0.7928
 8230TIP3   OH224653   7.053   3.500   3.069  0.2309  0.4686 -0.0252
 8230TIP3    H124654   7.026   3.500   3.160  0.2179 -0.2106 -0.0225
 8230TIP3    H224655   7.145   3.472   3.071 -0.3094 -1.4729 -0.3482
 8231TIP3   OH224656   1.789   6.379   1.873 -0.1925  0.2504  0.0125
 8231TIP3    H124657   1.794   6.283   1.875  1.8453  0.3117  1.8862
 8231TIP3    H224658   1.815   6.402   1.784  1.6301 -0.9165  0.1852
 8232TIP3   OH224659   1.809   3.208   3.407 -0.2225 -0.1185 -0.5371
 8232TIP3    H124660   1.768   3.241   3.487 -0.9024 -1.3099 -0.3744
 8232TIP3    H224661   1.736   3.184   3.350  0.2269 -1.2006 -0.6922
 8233TIP3   OH224662   5.572   0.072   3.195 -0.1224  0.1436 -0.1315
 8233TIP3    H124663   5.520   0.098   3.120  1.1800  2.8238 -0.2036
 8233TIP3    H224664   5.650   0.030   3.157  0.5741  1.5719 -0.3264
 8234TIP3   OH224665   6.029   0.705   1.547 -0.3019  0.7391 -0.2776
 8234TIP3    H124666   5.974   0.765   1.598 -1.7937 -0.7763 -0.0278
 8234TIP3    H224667   6.011   0.728   1.456 -0.7651  0.7671 -0.1835
 8235TIP3   OH224668   4.064   0.759   0.608 -0.2604 -0.5412 -0.6150
 8235TIP3    H124669   4.001   0.789   0.542 -0.7861 -2.4677 -1.0456
 8235TIP3    H224670   4.045   0.812   0.685  0.0904  1.4722 -1.8304
 8236TIP3   OH224671   6.531   1.724   0.262 -0.8791 -0.7342 -0.0340
 8236TIP3    H124672   6.521   1.635   0.296 -0.9190 -1.3237 -1.4941
 8236TIP3    H224673   6.445   1.764   0.275 -0.8265 -0.8611  0.7444
 8237TIP3   OH224674   1.238   6.006   4.322 -0.6817 -0.5233 -0.4452
 8237TIP3    H124675   1.252   6.082   4.379 -0.5433 -1.5298  0.9333
 8237TIP3    H224676   1.168   5.957   4.365  0.1738 -1.8714 -0.5330
 8238TIP3   OH224677   2.633   6.697   0.976  0.1086  0.2226  0.6116
 8238TIP3    H124678   2.615   6.729   0.888 -2.0195 -0.2874  0.7992
 8238TIP3    H224679   2.571   6.625   0.988  0.6667 -0.0098  2.3615
 8239TIP3   OH224680   2.860   0.392   3.818  0.6009  0.0099 -0.0245
 8239TIP3    H124681   2.920   0.431   3.882 -0.5008 -0.9277  1.6810
 8239TIP3    H224682   2.774   0.396   3.861 -0.4222  0.5157 -2.0286
 8240TIP3   OH224683   3.389   1.008   1.938 -0.1614  0.0535  0.1837
 8240TIP3    H124684   3.434   0.943   1.993 -0.5773  0.0067  0.4742
 8240TIP3    H224685   3.296   0.994   1.957 -0.3988 -0.8297 -1.5006
 8241TIP3   OH224686   5.890   4.272   0.144 -0.8526  0.2772  0.4310
 8241TIP3    H124687   5.797   4.292   0.157 -0.8093  1.6306 -1.0618
 8241TIP3    H224688   5.936   4.343   0.188 -0.5301 -0.0842  0.6825
 8242TIP3   OH224689   4.930   2.873   3.131  0.7718  0.5935  0.4952
 8242TIP3    H124690   4.895   2.961   3.120  2.9919  1.5478  0.4832
 8242TIP3    H224691   5.022   2.880   3.104  0.5919 -2.1541 -1.2578
 8243TIP3   OH224692   0.238   6.605   3.343 -0.0252  0.0878 -0.4114
 8243TIP3    H124693   0.231   6.524   3.293 -0.7409  0.3577 -0.7717
 8243TIP3    H224694   0.305   6.587   3.409 -0.4876 -0.9507 -0.1998
 8244TIP3   OH224695   2.022   5.569   4.815  0.6674  0.0155  0.3309
 8244TIP3    H124696   2.040   5.558   4.722  1.0231  0.2339  0.3714
 8244TIP3    H224697   2.092   5.521   4.859  0.5949  0.0509  0.4868
 8245TIP3   OH224698   5.547   1.596   0.225  0.1493 -0.0481  0.4478
 8245TIP3    H124699   5.568   1.523   0.167 -0.5276  0.3152 -0.2770
 8245TIP3    H224700   5.453   1.591   0.238 -0.3658  2.1178 -1.6728
 8246TIP3   OH224701   1.466   6.151   4.164  0.5315  0.4586  0.0790
 8246TIP3    H124702   1.392   6.091   4.173  1.2479 -0.6849 -1.2962
 8246TIP3    H224703   1.433   6.221   4.107  0.7714 -0.5949 -1.4137
 8247TIP3   OH224704   4.009   1.977   4.876  0.0546  0.3041 -0.1599
 8247TIP3    H124705   4.033   2.061   4.836  1.8934 -0.5604 -0.9437
 8247TIP3    H224706   3.934   1.947   4.825 -0.9409  1.6397  0.4259
 8248TIP3   OH224707   1.078   0.854   0.776 -0.7531  0.1334  0.2201
 8248TIP3    H124708   1.147   0.810   0.825 -0.7323  0.1247  0.1829
 8248TIP3    H224709   1.058   0.933   0.827  0.6384  1.1600 -0.7691
 8249TIP3   OH224710   2.263   2.923   0.480  0.1111  0.4316  0.6532
 8249TIP3    H124711   2.270   2.963   0.394  0.3451 -2.0383 -0.5427
 8249TIP3    H224712   2.187   2.965   0.520 -1.5471 -0.0899 -1.7633
 8250TIP3   OH224713   5.587   2.100   3.645  0.6845 -0.2677  0.3545
 8250TIP3    H124714   5.593   2.115   3.551 -2.2954  0.1705  0.1382
 8250TIP3    H224715   5.568   2.007   3.654  0.5714 -0.2344  0.4768
 8251TIP3   OH224716   3.880   4.365   4.619  0.5839  0.2255  0.4201
 8251TIP3    H124717   3.851   4.447   4.579 -0.4167 -0.7506 -0.9603
 8251TIP3    H224718   3.885   4.384   4.712  0.3575  1.8396  0.1404
 8252TIP3   OH224719   6.652   4.689   0.902  0.1036 -0.4721  0.2417
 8252TIP3    H124720   6.595   4.626   0.945 -0.5385 -0.2643 -0.2851
 8252TIP3    H224721   6.670   4.756   0.968 -1.7616  0.4275 -0.0851
 8253TIP3   OH224722   7.143   0.093   3.160  0.0905 -0.2843 -0.1743
 8253TIP3    H124723   7.195   0.053   3.230 -0.0843 -1.0284 -0.4580
 8253TIP3    H224724   7.092   0.020   3.124 -1.3874  0.4800  0.3045
 8254TIP3   OH224725   2.391   2.776   5.701  0.2359  0.4263 -0.1692
 8254TIP3    H124726   2.333   2.792   5.626  1.9055 -2.4173 -2.2741
 8254TIP3    H224727   2.478   2.799   5.669  0.7225  1.7560  1.9083
 8255TIP3   OH224728   6.985   6.152   2.243 -0.0634 -0.1677 -0.6562
 8255TIP3    H124729   7.005   6.246   2.244 -1.2156  0.0967 -0.2300
 8255TIP3    H224730   7.056   6.113   2.193  1.3084  0.7213  0.4872
 8256TIP3   OH224731   2.256   3.980   3.941  0.6749 -0.1482  0.3200
 8256TIP3    H124732   2.304   3.905   3.904 -0.0720 -0.1809 -0.6206
 8256TIP3    H224733   2.187   3.997   3.878  0.1723  0.6580  1.0748
 8257TIP3   OH224734   1.050   5.712   4.162  0.2315 -0.5068 -0.1212
 8257TIP3    H124735   1.115   5.643   4.150  0.5239 -0.2055 -0.2958
 8257TIP3    H224736   1.014   5.727   4.075 -0.2085 -0.8011  0.0072
 8258TIP3   OH224737   5.490   3.608   3.780 -0.0089 -0.1804 -0.4710
 8258TIP3    H124738   5.403   3.638   3.755  0.2110 -0.6716 -1.9584
 8258TIP3    H224739   5.550   3.672   3.742  0.3945 -1.6065 -2.4461
 8259TIP3   OH224740   0.845   3.325   2.684  0.1746 -0.0680 -0.0845
 8259TIP3    H124741   0.864   3.233   2.704  0.8178  0.0284 -0.2304
 8259TIP3    H224742   0.775   3.348   2.745  1.0035 -0.2379  0.9649
 8260TIP3   OH224743   5.078   3.783   3.860 -0.2114 -0.1173  0.2517
 8260TIP3    H124744   4.998   3.818   3.822  0.2713  0.1321 -0.5617
 8260TIP3    H224745   5.049   3.734   3.937 -1.2332 -0.7317 -0.4997
 8261TIP3   OH224746   6.425   0.483   2.914 -0.2067 -0.0789 -0.0670
 8261TIP3    H124747   6.370   0.411   2.944  0.0839  0.1197  0.9886
 8261TIP3    H224748   6.407   0.489   2.820 -1.0867 -0.7821  0.0372
 8262TIP3   OH224749   2.437   5.637   5.801 -0.0043  0.3050  0.1468
 8262TIP3    H124750   2.522   5.670   5.769  1.1484 -0.9551  1.7261
 8262TIP3    H224751   2.455   5.547   5.827 -1.4136  0.5383  2.1103
 8263TIP3   OH224752   4.158   4.937   4.028  0.0019  0.0573 -0.2167
 8263TIP3    H124753   4.219   4.978   3.967 -0.7488 -0.3678 -1.2745
 8263TIP3    H224754   4.201   4.943   4.113  0.6356  1.5354 -0.6220
 8264TIP3   OH224755   5.704   3.380   2.379 -0.9741  0.7287 -0.4263
 8264TIP3    H124756   5.670   3.304   2.426 -1.3087  1.6737  0.9115
 8264TIP3    H224757   5.629   3.439   2.371 -0.3894  1.5412 -0.1258
 8265TIP3   OH224758   3.232   2.317   1.010 -0.3301 -0.2486 -0.3454
 8265TIP3    H124759   3.262   2.387   0.951  1.1476 -0.4276  0.1716
 8265TIP3    H224760   3.147   2.291   0.974 -1.9585  3.1888  0.5820
 8266TIP3   OH224761   1.200   1.729   1.801 -0.9122 -0.1479  0.8608
 8266TIP3    H124762   1.191   1.640   1.767  0.8542 -0.4999  1.2117
 8266TIP3    H224763   1.174   1.723   1.892  0.3929 -0.6111  1.2254
 8267TIP3   OH224764   1.859   0.671   4.638  0.6061  0.1994 -0.1814
 8267TIP3    H124765   1.769   0.645   4.618 -0.0368  1.7828  0.4442
 8267TIP3    H224766   1.882   0.619   4.716  1.2749 -2.2010 -1.8588
 8268TIP3   OH224767   1.082   0.682   2.016  0.5631  0.0386 -0.1409
 8268TIP3    H124768   1.038   0.599   2.030  0.0215  0.5209  1.2550
 8268TIP3    H224769   1.012   0.748   2.020  1.1888  0.6914  0.6068
 8269TIP3   OH224770   1.034   5.016   0.968  0.4340  0.7840 -0.2900
 8269TIP3    H124771   0.987   5.003   1.050  1.1328  0.6191  0.0909
 8269TIP3    H224772   1.065   4.928   0.945 -0.2830  0.7225 -1.0561
 8270TIP3   OH224773   3.252   6.340   4.224  0.1375  0.3149  0.2246
 8270TIP3    H124774   3.341   6.311   4.243  0.5371  1.7461  0.7343
 8270TIP3    H224775   3.198   6.296   4.289  1.1242  2.9398  3.1234
 8271TIP3   OH224776   4.929   5.143   2.094  0.0419  0.1558 -0.6270
 8271TIP3    H124777   4.942   5.080   2.024  0.7181 -0.2060 -0.1880
 8271TIP3    H224778   5.017   5.176   2.113  0.6688 -2.8519  2.9171
 8272TIP3   OH224779   3.877   3.831   1.227  0.3445 -1.0523 -0.2435
 8272TIP3    H124780   3.958   3.782   1.209  0.5017 -0.4719 -1.1467
 8272TIP3    H224781   3.818   3.765   1.264  2.0754 -0.9693  3.0499
 8273TIP3   OH224782   6.345   6.745   1.295 -0.2076  0.0445  0.1784
 8273TIP3    H124783   6.373   6.718   1.208 -0.6429 -1.4852  0.4738
 8273TIP3    H224784   6.416   6.717   1.353 -0.9147 -1.0083  0.5606
 8274TIP3   OH224785   6.811   3.965   3.650 -0.1071  0.0268  0.7020
 8274TIP3    H124786   6.741   3.968   3.584 -0.3369  1.2486  0.9803
 8274TIP3    H224787   6.803   3.878   3.689  0.7816 -1.2138 -1.6494
 8275TIP3   OH224788   6.048   1.921   0.948 -0.4005  0.0168  0.3608
 8275TIP3    H124789   6.138   1.926   0.979  0.0982 -0.6770 -0.8834
 8275TIP3    H224790   5.998   1.890   1.024  0.5878 -0.6460  0.7642
 8276TIP3   OH224791   6.122   3.670   4.332  0.1338  0.1776 -0.3994
 8276TIP3    H124792   6.066   3.729   4.281  0.0589  0.6564  0.2238
 8276TIP3    H224793   6.137   3.595   4.274  0.2625  0.8234 -1.2173
 8277TIP3   OH224794   2.499   2.222   3.167  0.2149 -0.2291  0.8219
 8277TIP3    H124795   2.490   2.235   3.262 -0.8588 -0.1854  0.7271
 8277TIP3    H224796   2.537   2.135   3.158  0.5209 -0.1493  1.2898
 8278TIP3   OH224797   5.765   1.794   1.821 -0.2826 -0.1160 -0.2309
 8278TIP3    H124798   5.826   1.853   1.864  0.4741 -2.2078  1.7831
 8278TIP3    H224799   5.705   1.851   1.774  1.2424  2.1533  0.4278
 8279TIP3   OH224800   4.846   0.281   0.916  0.2148 -0.0235  0.6596
 8279TIP3    H124801   4.840   0.211   0.852  0.0310 -0.2494  0.9240
 8279TIP3    H224802   4.809   0.244   0.996 -1.8742  1.0228  0.2717
 8280TIP3   OH224803   5.349   6.455   3.325 -0.1392  0.0062  0.4675
 8280TIP3    H124804   5.316   6.449   3.235  2.4893  0.7798 -0.6349
 8280TIP3    H224805   5.318   6.540   3.356  0.4478  0.5470 -0.3906
 8281TIP3   OH224806   0.492   5.567   1.911 -0.1936 -0.1871  0.0952
 8281TIP3    H124807   0.422   5.529   1.857 -0.6069  1.1372 -0.3335
 8281TIP3    H224808   0.513   5.650   1.867 -0.0285  0.5697  1.5604
 8282TIP3   OH224809   1.261   4.550   1.831  0.2874 -0.2195  0.3329
 8282TIP3    H124810   1.292   4.627   1.783 -0.0483 -0.2301  0.0985
 8282TIP3    H224811   1.275   4.572   1.923  2.8902 -1.0053  0.2176
 8283TIP3   OH224812   7.198   2.857   4.849 -0.1525  0.0345  0.1501
 8283TIP3    H124813   7.203   2.931   4.909  2.3176 -0.0035  0.0758
 8283TIP3    H224814   7.207   2.780   4.905 -0.2414 -0.1117 -0.0344
 8284TIP3   OH224815   4.456   0.632   3.699  0.4925  0.2149 -0.4562
 8284TIP3    H124816   4.441   0.708   3.755 -0.1956  0.2164 -0.6354
 8284TIP3    H224817   4.370   0.592   3.689  0.9757 -1.0540  0.2859
 8285TIP3   OH224818   4.739   5.301   0.590  0.2350 -0.8151  0.4444
 8285TIP3    H124819   4.693   5.373   0.633  2.2133  1.0669 -0.4108
 8285TIP3    H224820   4.810   5.279   0.650  1.6874  0.3312 -0.7787
 8286TIP3   OH224821   7.085   0.832   2.250 -0.4821  0.1227 -0.2813
 8286TIP3    H124822   7.033   0.754   2.268  1.9109 -1.2118  1.3832
 8286TIP3    H224823   7.108   0.824   2.157 -1.3204 -0.4531 -0.4531
 8287TIP3   OH224824   1.246   5.361   5.797  0.5628 -0.2552  0.3514
 8287TIP3    H124825   1.169   5.317   5.833 -0.6995  0.8728 -0.8384
 8287TIP3    H224826   1.255   5.324   5.709  0.5012  0.6274 -0.0398
 8288TIP3   OH224827   1.437   3.102   2.678 -0.0287  0.2668  0.0024
 8288TIP3    H124828   1.352   3.123   2.717  0.3574  0.4463  0.7774
 8288TIP3    H224829   1.454   3.174   2.617 -0.1435  0.5701  0.3245
 8289TIP3   OH224830   5.035   5.047   4.410 -0.3511  0.6440  0.1141
 8289TIP3    H124831   5.065   5.131   4.443  0.1655  0.1312  1.0021
 8289TIP3    H224832   4.965   5.021   4.469 -0.0649  0.1498  0.2449
 8290TIP3   OH224833   6.643   1.603   1.689 -1.0085 -0.7310 -0.1617
 8290TIP3    H124834   6.642   1.645   1.775 -1.5225  1.5009 -1.1979
 8290TIP3    H224835   6.735   1.601   1.664 -0.5624 -3.3833  1.2674
 8291TIP3   OH224836   6.591   0.619   0.294  0.0773 -0.3114  0.0841
 8291TIP3    H124837   6.678   0.642   0.327  0.4512 -1.5008 -0.0271
 8291TIP3    H224838   6.553   0.703   0.268  0.8636  0.3239  0.9024
 8292TIP3   OH224839   1.009   0.596   1.321 -0.2046 -0.2532  0.2416
 8292TIP3    H124840   1.077   0.529   1.330 -1.4069 -1.2523  2.5309
 8292TIP3    H224841   0.962   0.572   1.241  0.0856 -1.4899  0.4292
 8293TIP3   OH224842   6.863   5.675   1.801  0.3771 -0.0537  0.0433
 8293TIP3    H124843   6.913   5.613   1.853 -0.9439  1.6189  3.6190
 8293TIP3    H224844   6.780   5.630   1.784 -0.3775  0.3965  2.1781
 8294TIP3   OH224845   5.447   2.270   0.668 -0.2622  0.1166 -0.0302
 8294TIP3    H124846   5.413   2.331   0.733 -1.6475 -0.6550  0.0092
 8294TIP3    H224847   5.408   2.298   0.585 -0.4027 -0.3431 -0.1213
 8295TIP3   OH224848   5.714   2.670   0.673 -0.0803  0.0489  0.2540
 8295TIP3    H124849   5.760   2.602   0.721 -0.3390 -1.6696 -1.7626
 8295TIP3    H224850   5.783   2.721   0.631  0.0711 -0.2852  0.0975
 8296TIP3   OH224851   3.840   1.484   3.220 -1.1163  0.0576 -0.1322
 8296TIP3    H124852   3.915   1.540   3.241 -0.7971 -0.4802  0.1997
 8296TIP3    H224853   3.875   1.395   3.226 -1.8023 -0.2005  0.0886
 8297TIP3   OH224854   5.501   3.208   2.097  0.0970  0.6308 -0.2945
 8297TIP3    H124855   5.572   3.150   2.125  0.5119  1.3055  0.0613
 8297TIP3    H224856   5.507   3.207   2.001  1.3987  1.6671 -0.2476
 8298TIP3   OH224857   1.115   1.310   2.673 -0.1086  0.3846 -0.0844
 8298TIP3    H124858   1.189   1.272   2.626 -0.6952 -0.7696 -0.0859
 8298TIP3    H224859   1.058   1.343   2.605 -1.4843 -2.2437 -0.3190
 8299TIP3   OH224860   6.753   4.309   3.186 -0.4410  0.2599  0.4736
 8299TIP3    H124861   6.792   4.307   3.274  2.2600 -1.0488 -0.6567
 8299TIP3    H224862   6.825   4.288   3.127 -2.8373 -2.2132 -1.8459
 8300TIP3   OH224863   0.840   6.711   0.928  0.1739 -0.3724  0.7656
 8300TIP3    H124864   0.833   6.673   0.840  0.4093 -3.5621  2.0000
 8300TIP3    H224865   0.926   6.683   0.960 -0.1627  0.1793  2.2287
 8301TIP3   OH224866   1.201  -0.011   3.624  0.9921  0.2844  0.0969
 8301TIP3    H124867   1.297  -0.014   3.631  0.9663 -1.3016  0.0659
 8301TIP3    H224868   1.177   0.067   3.674  2.3103  0.8791 -0.1321
 8302TIP3   OH224869   3.603   0.772   5.445 -0.2701 -0.4579 -0.1608
 8302TIP3    H124870   3.509   0.758   5.456 -0.4537 -2.7571 -3.4057
 8302TIP3    H224871   3.637   0.687   5.420  2.7516  0.3347  0.8575
 8303TIP3   OH224872   1.219   2.291   0.682  0.1992 -0.2461 -0.5155
 8303TIP3    H124873   1.166   2.224   0.724 -0.6996  0.4294 -0.5565
 8303TIP3    H224874   1.196   2.286   0.589 -0.1322  0.3415 -0.4701
 8304TIP3   OH224875   4.274   5.663   0.031  0.1264  0.6040  0.0762
 8304TIP3    H124876   4.223   5.641  -0.047  0.3761  2.0829 -0.5345
 8304TIP3    H224877   4.288   5.579   0.075  0.1883 -0.2917 -1.5921
 8305TIP3   OH224878   3.602   1.117   2.228  0.0665  0.0514 -0.1463
 8305TIP3    H124879   3.635   1.189   2.174  0.4656 -0.2181 -0.2700
 8305TIP3    H224880   3.675   1.096   2.286 -0.1672 -0.0325  0.1171
 8306TIP3   OH224881   4.771   1.572   3.621  0.4291  0.3394 -0.3186
 8306TIP3    H124882   4.862   1.590   3.645  0.9326 -1.5399 -0.7005
 8306TIP3    H224883   4.773   1.485   3.582 -1.7516 -0.3047  0.8798
 8307TIP3   OH224884   1.190   6.321   1.251  0.3572  0.1706 -0.7129
 8307TIP3    H124885   1.235   6.260   1.310 -0.4110 -0.7635 -1.0656
 8307TIP3    H224886   1.229   6.305   1.165  0.7533  0.7925 -0.6503
 8308TIP3   OH224887   0.358   0.248   0.685 -0.0975  0.3897  0.5556
 8308TIP3    H124888   0.375   0.334   0.724 -1.4309  1.1240 -0.3766
 8308TIP3    H224889   0.393   0.256   0.596  0.9653 -0.5051  0.8825
 8309TIP3   OH224890   3.891   3.180   0.096 -0.1592 -0.0992 -0.3125
 8309TIP3    H124891   3.940   3.113   0.144 -0.2148  1.4225  2.0769
 8309TIP3    H224892   3.955   3.218   0.036 -0.1826 -2.3160 -1.8680
 8310TIP3   OH224893   3.976   0.823   2.422 -0.1320  0.2636 -0.7862
 8310TIP3    H124894   3.911   0.752   2.418 -0.4666  0.5308 -0.2349
 8310TIP3    H224895   4.050   0.786   2.469 -0.4289  0.3721 -0.2323
 8311TIP3   OH224896   5.020   4.638   1.871  0.1122  0.4549 -0.6954
 8311TIP3    H124897   5.065   4.699   1.930 -1.5966  1.2274 -0.1466
 8311TIP3    H224898   4.928   4.663   1.876 -0.4050 -1.1111 -1.7637
 8312TIP3   OH224899   0.079   1.766   5.818 -0.1647 -0.3033  0.4080
 8312TIP3    H124900   0.011   1.826   5.848 -2.1180 -0.6374 -2.8697
 8312TIP3    H224901   0.154   1.822   5.800 -1.3715  0.9648 -0.9393
 8313TIP3   OH224902   3.381   1.283   1.965 -0.4530 -0.2748  0.0270
 8313TIP3    H124903   3.409   1.193   1.949 -1.9062 -0.3390 -2.8657
 8313TIP3    H224904   3.287   1.283   1.945 -0.6037  1.7679  0.5206
 8314TIP3   OH224905   2.457   3.670   1.194 -0.0749  0.1629  0.1123
 8314TIP3    H124906   2.506   3.713   1.264 -1.7497  1.1127  0.7647
 8314TIP3    H224907   2.366   3.695   1.210 -0.9503 -2.4163 -0.3890
 8315TIP3   OH224908   6.378   6.369   5.637  0.4973 -0.0799 -0.0538
 8315TIP3    H124909   6.355   6.418   5.716  1.2769 -0.2590  0.2959
 8315TIP3    H224910   6.371   6.277   5.663  2.1362 -0.1460  0.2453
 8316TIP3   OH224911   6.567   1.755   2.347 -0.0305 -0.0857  0.0084
 8316TIP3    H124912   6.527   1.672   2.322 -1.7576  0.6687  0.1224
 8316TIP3    H224913   6.608   1.737   2.432  0.9796 -1.1906 -0.6754
 8317TIP3   OH224914   6.159   3.080   4.923 -0.1869  0.1014  0.0292
 8317TIP3    H124915   6.104   3.056   4.848 -1.3444 -2.6928  1.6187
 8317TIP3    H224916   6.117   3.158   4.960 -2.2472 -1.0743  0.3021
 8318TIP3   OH224917   6.330   6.139   2.546  0.3674  0.2127  0.2331
 8318TIP3    H124918   6.375   6.224   2.544  1.6055 -0.4441 -1.4177
 8318TIP3    H224919   6.289   6.131   2.460 -3.5382  1.0114  1.7954
 8319TIP3   OH224920   2.375   3.290   4.757 -0.1916  0.0109 -0.0018
 8319TIP3    H124921   2.283   3.270   4.771 -0.1190  1.3855  3.2248
 8319TIP3    H224922   2.419   3.265   4.838  1.5986  2.8345  0.0624
 8320TIP3   OH224923   4.676   6.683   4.804  0.0048  0.3751  0.1164
 8320TIP3    H124924   4.735   6.619   4.845 -1.2334 -0.5298  0.5274
 8320TIP3    H224925   4.725   6.765   4.809  1.1009 -0.2770  0.7586
 8321TIP3   OH224926   3.852   3.381   0.993  0.6763 -0.0117  1.0073
 8321TIP3    H124927   3.915   3.454   0.991  0.8693 -0.1819  0.8104
 8321TIP3    H224928   3.905   3.305   1.017  0.2018  0.1821  2.7788
 8322TIP3   OH224929   3.559   6.525   2.474  0.0010  0.0357  0.5732
 8322TIP3    H124930   3.469   6.492   2.479  0.2513 -0.5840  1.2059
 8322TIP3    H224931   3.612   6.445   2.471  0.4630  0.3714 -1.4794
 8323TIP3   OH224932   3.515   6.263   5.753  0.3840 -0.0353 -0.3758
 8323TIP3    H124933   3.479   6.183   5.792 -0.9081  0.9051  0.4561
 8323TIP3    H224934   3.452   6.331   5.776  2.0834  1.4849  0.0190
 8324TIP3   OH224935   1.239   2.573   0.022  0.5574  0.2095 -0.2413
 8324TIP3    H124936   1.232   2.525   0.104  0.0838  1.8922  0.7595
 8324TIP3    H224937   1.329   2.606   0.021  0.1413  1.4490  0.3917
 8325TIP3   OH224938   2.381   0.532   5.657  0.8891  0.0195  0.0055
 8325TIP3    H124939   2.310   0.541   5.721  0.6738  1.8915 -0.4471
 8325TIP3    H224940   2.455   0.579   5.696  1.7788 -1.5255  0.2654
 8326TIP3   OH224941   1.802   0.747   3.564 -0.0092 -0.0738 -0.1789
 8326TIP3    H124942   1.771   0.772   3.477 -0.7644  3.6371  0.9751
 8326TIP3    H224943   1.892   0.776   3.567  0.0545 -0.3003  0.2541
 8327TIP3   OH224944   0.522   6.404   1.521  0.0714  0.2050 -0.3318
 8327TIP3    H124945   0.447   6.455   1.552  0.5354  0.3014  0.6636
 8327TIP3    H224946   0.591   6.469   1.508  0.1402  0.0505 -0.7682
 8328TIP3   OH224947   6.591   4.756   1.723  0.0663  0.2962 -0.7898
 8328TIP3    H124948   6.667   4.698   1.719  1.7826  2.1280  2.2556
 8328TIP3    H224949   6.599   4.812   1.646  1.0800 -0.3177 -1.1485
 8329TIP3   OH224950   3.850   1.474   5.085 -0.5889  0.6814  0.3775
 8329TIP3    H124951   3.874   1.541   5.021 -1.6636  0.3028 -0.4522
 8329TIP3    H224952   3.926   1.417   5.090 -1.0769 -0.2788 -1.8972
 8330TIP3   OH224953   7.023   1.693   0.244  0.0040  0.3858  0.1241
 8330TIP3    H124954   6.935   1.701   0.207 -0.8843  0.8933  2.2299
 8330TIP3    H224955   7.033   1.771   0.299  1.5911  0.0970  0.2744
 8331TIP3   OH224956   1.262   4.785   3.397  0.5547 -0.0734 -0.2127
 8331TIP3    H124957   1.215   4.702   3.405 -1.0888  0.5628 -2.3811
 8331TIP3    H224958   1.250   4.828   3.481 -0.9165 -0.8704  0.0072
 8332TIP3   OH224959   3.616   5.080   1.320  0.2983 -0.4178 -0.0723
 8332TIP3    H124960   3.691   5.048   1.370  1.8902 -0.2858 -2.2679
 8332TIP3    H224961   3.644   5.165   1.285 -1.6182  0.5718  0.6217
 8333TIP3   OH224962   1.175   5.029   1.763 -0.8613  0.3549  0.1252
 8333TIP3    H124963   1.175   5.083   1.684 -0.4241 -1.1496 -0.9702
 8333TIP3    H224964   1.256   5.053   1.808  1.3044 -1.8711 -2.2526
 8334TIP3   OH224965   1.396   0.628   2.766 -0.3524  0.3915 -0.0288
 8334TIP3    H124966   1.386   0.616   2.672 -0.2222 -1.4206  0.1542
 8334TIP3    H224967   1.353   0.711   2.784 -0.6017  0.6481 -1.6434
 8335TIP3   OH224968   5.592   0.459   2.014  0.8924  0.7507 -0.2783
 8335TIP3    H124969   5.607   0.461   2.109  0.5587 -1.1893 -0.1404
 8335TIP3    H224970   5.633   0.378   1.985 -0.5695  0.4047 -1.5001
 8336TIP3   OH224971   2.002   2.039   2.555  0.3122  0.1545 -0.1932
 8336TIP3    H124972   1.908   2.049   2.569  0.5881 -0.2798  2.4247
 8336TIP3    H224973   2.009   1.972   2.487 -1.2535  0.0354 -0.2711
 8337TIP3   OH224974   3.686   4.941   2.494  0.1840 -0.6098  0.1493
 8337TIP3    H124975   3.687   4.888   2.574  1.7633 -0.9032 -0.0404
 8337TIP3    H224976   3.627   4.894   2.435 -0.6989 -0.5885  0.9997
 8338TIP3   OH224977   6.491   3.133   3.745  0.2100 -0.4869 -0.2506
 8338TIP3    H124978   6.551   3.208   3.743  0.2181 -0.4244  1.2921
 8338TIP3    H224979   6.454   3.134   3.833 -0.9042 -1.4453 -0.6788
 8339TIP3   OH224980   3.881   5.720   4.631  0.2082  0.8185 -0.2131
 8339TIP3    H124981   3.906   5.789   4.570  0.4794  2.1369  1.3110
 8339TIP3    H224982   3.832   5.766   4.699 -0.5755 -0.6951  0.2698
 8340TIP3   OH224983   1.615   0.529   4.130 -0.2939  0.1687  0.9646
 8340TIP3    H124984   1.531   0.484   4.129  0.0185 -0.4203 -0.1501
 8340TIP3    H224985   1.617   0.575   4.214 -0.8026 -1.5702  1.9781
 8341TIP3   OH224986   6.212   3.491   3.218  0.3144 -0.4031 -0.1758
 8341TIP3    H124987   6.169   3.512   3.301  1.2221 -0.3466  0.2950
 8341TIP3    H224988   6.285   3.435   3.243  0.4302 -0.6188 -0.9746
 8342TIP3   OH224989   0.870   5.524   1.920 -0.0838 -0.3850  0.4837
 8342TIP3    H124990   0.903   5.434   1.925  1.0466 -0.0080  0.0374
 8342TIP3    H224991   0.830   5.538   2.006 -0.4361 -1.3695  0.5005
 8343TIP3   OH224992   1.391   3.856   5.564  0.6404 -0.1124 -0.0783
 8343TIP3    H124993   1.451   3.792   5.603  0.3191 -0.4637 -0.1533
 8343TIP3    H224994   1.443   3.899   5.496  0.5826 -0.9628 -0.6788
 8344TIP3   OH224995   6.862   6.143   4.145 -0.0977  0.1943 -0.4587
 8344TIP3    H124996   6.804   6.067   4.135 -0.4208 -0.3231  3.6331
 8344TIP3    H224997   6.804   6.215   4.168  0.4309  1.1438 -2.0039
 8345TIP3   OH224998   0.911   4.601   3.933  0.2017  0.1152 -0.0700
 8345TIP3    H124999   0.994   4.570   3.969  0.4692 -0.1856 -0.9101
 8345TIP3    H225000   0.853   4.607   4.008  0.8960  0.0368  0.4888
 8346TIP3   OH225001   3.985   4.343   3.690 -0.5877 -0.0492  0.1439
 8346TIP3    H125002   3.999   4.342   3.595 -1.3533  2.4321 -0.0882
 8346TIP3    H225003   3.925   4.271   3.706  0.8215 -1.5457 -0.9836
 8347TIP3   OH225004   6.107   4.274   0.649 -0.0973  0.0893 -0.2366
 8347TIP3    H125005   6.039   4.289   0.714 -0.4574 -0.1635 -0.5511
 8347TIP3    H225006   6.134   4.362   0.622 -1.7163  0.2318 -1.5674
 8348TIP3   OH225007   7.099   1.374   1.398 -0.5248  0.2508 -0.0418
 8348TIP3    H125008   7.071   1.403   1.312  0.1367 -1.4129 -0.8604
 8348TIP3    H225009   7.173   1.315   1.381 -0.6735 -0.4739  1.6164
 8349TIP3   OH225010   3.590   4.298   4.625  0.1509  0.1039  0.2326
 8349TIP3    H125011   3.680   4.270   4.641 -0.0753  0.1311  1.7448
 8349TIP3    H225012   3.590   4.330   4.535  1.0481 -2.2873 -0.7059
 8350TIP3   OH225013   3.963   1.138   0.875  0.0379 -0.3408  0.2200
 8350TIP3    H125014   4.056   1.136   0.854 -0.2095 -2.3483 -0.9428
 8350TIP3    H225015   3.920   1.156   0.791 -0.6602  0.3394  0.7003
 8351TIP3   OH225016   3.811   3.763   4.765  0.1888  0.1307 -0.6429
 8351TIP3    H125017   3.855   3.841   4.732  0.6040 -0.4873 -1.6140
 8351TIP3    H225018   3.725   3.764   4.722 -0.5620  1.0298  0.8045
 8352TIP3   OH225019   2.294   0.858   5.123 -0.3731  0.1115 -0.1116
 8352TIP3    H125020   2.208   0.847   5.163 -0.4422 -1.5127 -0.6667
 8352TIP3    H225021   2.276   0.899   5.038 -0.6856 -0.9101 -0.5515
 8353TIP3   OH225022   4.017   4.914   3.228 -0.1081 -0.2889 -0.4843
 8353TIP3    H125023   3.990   4.991   3.179 -0.6193  0.0852  0.3727
 8353TIP3    H225024   4.093   4.881   3.180  1.9703  2.3885  0.6837
 8354TIP3   OH225025   6.799   0.504   5.200 -0.0733  0.3745  0.4736
 8354TIP3    H125026   6.734   0.567   5.168  0.1741  2.0497  3.0046
 8354TIP3    H225027   6.762   0.470   5.281  1.1749 -0.4608  0.7309
 8355TIP3   OH225028   2.839   3.769   1.320  0.3692  0.7124 -0.1374
 8355TIP3    H125029   2.836   3.679   1.352 -0.0683 -0.0022 -2.0335
 8355TIP3    H225030   2.766   3.813   1.363  0.6162  0.2045  0.8423
 8356TIP3   OH225031   5.152   2.376   2.070 -0.5949 -0.3991  0.2220
 8356TIP3    H125032   5.239   2.415   2.064 -0.7843 -0.1223 -1.0405
 8356TIP3    H225033   5.153   2.304   2.006 -1.1762 -0.6122  0.4431
 8357TIP3   OH225034   5.727   4.840   4.787 -0.4615 -0.0436 -0.7094
 8357TIP3    H125035   5.763   4.927   4.806 -0.2023 -0.3236  0.1504
 8357TIP3    H225036   5.723   4.836   4.692 -2.2331  1.6128 -0.7483
 8358TIP3   OH225037   0.119   1.170   3.023  0.5281 -0.1308  0.0584
 8358TIP3    H125038   0.142   1.210   3.107  0.8921  0.7265 -0.4360
 8358TIP3    H225039   0.200   1.130   2.992 -0.4850 -4.2930  2.0759
 8359TIP3   OH225040   6.522   3.928   4.092  0.1192  0.2298 -0.5850
 8359TIP3    H125041   6.458   3.997   4.074 -1.1396 -1.0312 -1.1279
 8359TIP3    H225042   6.470   3.854   4.122  1.4443 -0.4838  0.0631
 8360TIP3   OH225043   2.010   3.622   4.210 -0.0037  0.3526  0.7957
 8360TIP3    H125044   1.988   3.662   4.295 -0.8652  1.2264  0.1825
 8360TIP3    H225045   2.102   3.598   4.218  1.2083  4.2081  0.5688
 8361TIP3   OH225046   1.258   0.528   4.745 -0.4907 -0.6689 -0.2827
 8361TIP3    H125047   1.296   0.611   4.716  0.1261 -0.2475  1.6187
 8361TIP3    H225048   1.164   0.543   4.742 -0.4154  1.0835  2.4647
 8362TIP3   OH225049   4.361   2.331   1.219  0.4405  0.4112  0.5664
 8362TIP3    H125050   4.271   2.300   1.233  0.1794  1.9868  2.8890
 8362TIP3    H225051   4.353   2.395   1.148 -0.2996  0.6160  0.8270
 8363TIP3   OH225052   3.904   1.706   2.329  0.0806  0.3292  0.4815
 8363TIP3    H125053   3.906   1.789   2.376 -2.9341 -0.2103  1.8366
 8363TIP3    H225054   3.961   1.648   2.380  2.4682  1.5223 -0.6553
 8364TIP3   OH225055   6.549   0.342   5.706 -0.1621  0.0218  0.1524
 8364TIP3    H125056   6.498   0.291   5.769  0.3624 -0.4234  0.2269
 8364TIP3    H225057   6.551   0.287   5.627 -1.2672  0.8019 -0.4617
 8365TIP3   OH225058   6.997   2.231   5.650  0.1553  0.9038 -0.1233
 8365TIP3    H125059   6.924   2.226   5.589 -0.1595  0.4307  0.2768
 8365TIP3    H225060   7.075   2.219   5.596 -0.1558 -0.1643 -0.3524
 8366TIP3   OH225061   3.011   5.823   0.767 -0.6099 -0.4361  0.0422
 8366TIP3    H125062   2.939   5.848   0.709  0.6650 -0.5473 -1.6574
 8366TIP3    H225063   2.987   5.736   0.799 -1.4295 -0.2909 -0.1421
 8367TIP3   OH225064   0.446   4.432   3.419  0.4910  0.1457 -0.1077
 8367TIP3    H125065   0.488   4.474   3.344  0.7882  0.3737  0.1843
 8367TIP3    H225066   0.374   4.490   3.441 -0.3551 -0.5371 -0.9716
 8368TIP3   OH225067   3.456   1.019   5.535 -0.7872  0.6001 -0.0344
 8368TIP3    H125068   3.545   1.000   5.565 -1.0966 -0.1805  0.4304
 8368TIP3    H225069   3.468   1.071   5.456  0.1580 -1.7421 -1.5378
 8369TIP3   OH225070   4.554   3.192   2.362  0.1670 -0.4977  0.1175
 8369TIP3    H125071   4.533   3.251   2.290  1.3938 -0.6753 -0.4245
 8369TIP3    H225072   4.645   3.165   2.345 -0.1489 -2.0447  0.6802
 8370TIP3   OH225073   5.804   6.212   1.684 -0.1883 -0.2788 -0.2083
 8370TIP3    H125074   5.723   6.262   1.672 -1.1384 -1.7939 -0.2654
 8370TIP3    H225075   5.873   6.274   1.659 -1.1849  1.5503  1.2920
 8371TIP3   OH225076   6.863   4.196   3.963  0.1718 -0.1135 -0.6756
 8371TIP3    H125077   6.844   4.151   3.881  0.9713 -1.3303 -0.2330
 8371TIP3    H225078   6.783   4.245   3.983 -0.4605 -0.7477 -1.5705
 8372TIP3   OH225079   1.605   4.728   5.079  0.1029 -0.2542 -0.0725
 8372TIP3    H125080   1.606   4.634   5.059  0.3316 -0.1112 -0.7298
 8372TIP3    H225081   1.677   4.765   5.029 -0.5169  0.4162 -0.4937
 8373TIP3   OH225082   6.991   1.550   4.619 -0.6661 -0.1401  0.0955
 8373TIP3    H125083   6.972   1.559   4.712 -1.6043  0.7961 -0.1605
 8373TIP3    H225084   7.043   1.470   4.612 -0.0278  0.1304  1.4886
 8374TIP3   OH225085   6.344   5.959   3.151 -0.0966 -0.0584 -0.3827
 8374TIP3    H125086   6.270   6.005   3.190  1.8043  1.4911  1.5860
 8374TIP3    H225087   6.372   6.014   3.078 -1.1274 -0.9177 -1.4799
 8375TIP3   OH225088   6.425   0.085   5.225  0.4201  0.0012  0.1330
 8375TIP3    H125089   6.350   0.039   5.188  0.9052 -0.1112 -0.7336
 8375TIP3    H225090   6.486   0.094   5.152  0.4579  1.7754  0.3397
 8376TIP3   OH225091   1.325   3.852   1.834 -0.5988  0.5469 -0.0457
 8376TIP3    H125092   1.248   3.821   1.786  0.4511 -1.3203 -0.6597
 8376TIP3    H225093   1.345   3.781   1.895  1.3482  0.3537 -0.7999
 8377TIP3   OH225094   3.509   2.452   5.585 -0.3684 -0.2740 -0.2721
 8377TIP3    H125095   3.472   2.364   5.582 -0.2452 -0.3047 -1.1078
 8377TIP3    H225096   3.433   2.510   5.589 -0.4535 -0.4026  0.0314
 8378TIP3   OH225097   1.441   1.571   3.120 -0.0403  0.3395 -0.4222
 8378TIP3    H125098   1.532   1.567   3.149  0.5664  0.6395 -2.1527
 8378TIP3    H225099   1.409   1.481   3.126 -0.1045  0.4413  1.4786
 8379TIP3   OH225100   2.689   5.327   4.007 -0.2593 -0.2141 -0.0547
 8379TIP3    H125101   2.649   5.334   3.920  0.9057  0.6999 -0.5540
 8379TIP3    H225102   2.659   5.405   4.053  0.5533  0.2617 -0.2920
 8380TIP3   OH225103   0.544   6.476   1.826 -0.0198  0.2257  0.5413
 8380TIP3    H125104   0.535   6.563   1.789  0.4216 -0.3728 -1.0375
 8380TIP3    H225105   0.479   6.423   1.780 -0.6136 -0.2081  1.8105
 8381TIP3   OH225106   1.465   5.330   1.238  0.3576  0.0020 -0.3506
 8381TIP3    H125107   1.407   5.305   1.166 -1.4561  1.4049  0.5432
 8381TIP3    H225108   1.515   5.404   1.204  1.6695 -1.1865 -1.1102
 8382TIP3   OH225109   1.992   0.573   4.879  1.1953 -0.6088  0.0080
 8382TIP3    H125110   1.927   0.638   4.903  0.2950 -0.3663 -2.7167
 8382TIP3    H225111   2.045   0.561   4.958  0.9660  2.8944  0.8725
 8383TIP3   OH225112   2.049   4.089   1.106  0.0178 -0.3543 -0.2538
 8383TIP3    H125113   2.056   4.166   1.162 -0.2280  0.0857 -0.8197
 8383TIP3    H225114   1.978   4.110   1.045 -1.8807 -2.0552  1.2299
 8384TIP3   OH225115   0.760   0.414   1.066  0.0050 -0.2216 -0.0792
 8384TIP3    H125116   0.824   0.364   1.116  1.2613 -0.4336 -1.7878
 8384TIP3    H225117   0.681   0.360   1.066  0.6941 -1.2564 -0.1726
 8385TIP3   OH225118   6.581   0.258   1.154 -0.0911 -0.3114 -0.2530
 8385TIP3    H125119   6.560   0.301   1.071  1.6102  0.2642 -0.4095
 8385TIP3    H225120   6.676   0.257   1.158 -0.0514  1.7285  2.7195
 8386TIP3   OH225121   4.020   5.745   4.943  0.5899  0.1026  0.5371
 8386TIP3    H125122   4.052   5.745   4.853 -2.7978  0.7195 -0.8112
 8386TIP3    H225123   4.090   5.786   4.993  1.6649  1.9653 -2.2269
 8387TIP3   OH225124   2.798   6.702   0.638 -0.3956  0.0900  0.1626
 8387TIP3    H125125   2.743   6.774   0.667 -0.4244 -0.6037  1.9462
 8387TIP3    H225126   2.737   6.634   0.610 -0.3932  0.1199  0.0826
 8388TIP3   OH225127   6.696   0.703   3.776  0.1920  0.8017 -0.1811
 8388TIP3    H125128   6.728   0.723   3.864  0.0893  0.6091 -0.0989
 8388TIP3    H225129   6.653   0.618   3.785 -0.6051  1.1994 -0.2358
 8389TIP3   OH225130   2.398   2.583   5.456 -0.2522 -0.0897  0.3894
 8389TIP3    H125131   2.315   2.549   5.490 -0.8239  1.7822  1.0179
 8389TIP3    H225132   2.457   2.583   5.532  1.1582 -3.5096 -0.5138
 8390TIP3   OH225133   5.537   2.072   0.410  0.3641 -0.2021 -0.2878
 8390TIP3    H125134   5.544   2.098   0.502 -0.1431 -2.1268  0.3544
 8390TIP3    H225135   5.519   1.978   0.413  0.9205 -0.4355 -2.3858
 8391TIP3   OH225136   0.074   4.850   4.319  0.1364 -0.3316 -0.0929
 8391TIP3    H125137   0.040   4.810   4.399  1.4349 -0.3101  0.4942
 8391TIP3    H225138   0.016   4.925   4.303  0.1876  0.0082  1.1656
 8392TIP3   OH225139   1.717   6.065   3.526 -0.1041  0.4493 -0.3647
 8392TIP3    H125140   1.775   5.999   3.563  1.2045  0.7770 -1.7309
 8392TIP3    H225141   1.632   6.021   3.519  0.4031 -0.6307  0.0118
 8393TIP3   OH225142   0.774   5.181   4.485 -0.1825  0.3058  0.5727
 8393TIP3    H125143   0.788   5.091   4.513 -0.7239  0.9141  3.0613
 8393TIP3    H225144   0.727   5.174   4.402  0.0514 -1.6825  0.5790
 8394TIP3   OH225145   6.724   1.385   0.217  0.2130 -0.3186  0.1945
 8394TIP3    H125146   6.659   1.335   0.166 -0.4972 -0.3260  1.0901
 8394TIP3    H225147   6.694   1.378   0.307  0.3880  1.3037  0.4071
 8395TIP3   OH225148   0.258   6.159   1.294 -0.0174  0.6117  0.3324
 8395TIP3    H125149   0.297   6.227   1.239  0.6980  1.8026  2.2274
 8395TIP3    H225150   0.297   6.172   1.380 -0.0991 -2.0257  0.8526
 8396TIP3   OH225151   2.228   2.417   1.899 -0.3351  0.1258 -0.2673
 8396TIP3    H125152   2.233   2.513   1.894  1.8585  0.0148 -2.4257
 8396TIP3    H225153   2.145   2.396   1.858 -0.5863  1.1002 -0.2944
 8397TIP3   OH225154   5.117   2.625   0.297 -0.5825  0.2502 -0.0895
 8397TIP3    H125155   5.149   2.636   0.386 -3.2059  2.2002  0.7366
 8397TIP3    H225156   5.022   2.628   0.305 -0.9751 -1.3037 -2.8013
 8398TIP3   OH225157   1.072   1.899   0.050 -0.2408  0.5448  0.3114
 8398TIP3    H125158   0.991   1.881   0.098  0.1143 -1.1608  0.3543
 8398TIP3    H225159   1.056   1.981   0.005 -1.7351  0.5979  0.8834
 8399TIP3   OH225160   5.517   1.072   2.735 -0.4234  0.2716  0.1437
 8399TIP3    H125161   5.475   1.157   2.743 -0.6583  0.2855 -1.0201
 8399TIP3    H225162   5.466   1.015   2.793 -1.3206  0.5578 -0.3394
 8400TIP3   OH225163   5.126   2.428   3.127 -0.4959 -0.2527  0.3959
 8400TIP3    H125164   5.189   2.459   3.062 -0.1415  1.2522  1.4078
 8400TIP3    H225165   5.116   2.501   3.189 -2.2494 -0.9268  0.9945
 8401TIP3   OH225166   3.958   3.156   0.602  0.0861 -0.2658 -0.4640
 8401TIP3    H125167   3.878   3.208   0.589 -1.3659 -2.0044  0.9853
 8401TIP3    H225168   3.963   3.100   0.524 -1.1382 -1.3635  0.2061
 8402TIP3   OH225169   2.461   2.872   5.143 -0.3527  0.4176 -0.1268
 8402TIP3    H125170   2.389   2.925   5.110  1.2731  2.7474 -0.1500
 8402TIP3    H225171   2.493   2.920   5.220  0.6045 -1.0448  0.4333
 8403TIP3   OH225172   2.830   4.662   4.060 -0.3571 -0.3404  0.0107
 8403TIP3    H125173   2.772   4.592   4.029  0.4683 -0.4473 -1.4022
 8403TIP3    H225174   2.793   4.742   4.022 -0.7733 -0.1196  0.8628
 8404TIP3   OH225175   5.688   5.495   2.815 -0.4941  0.3222 -0.3877
 8404TIP3    H125176   5.671   5.550   2.891 -0.9888 -0.0530 -0.2225
 8404TIP3    H225177   5.734   5.553   2.754 -0.1074  0.6289  0.1825
 8405TIP3   OH225178   4.171   4.615   4.604 -0.6012 -0.3267  0.0276
 8405TIP3    H125179   4.192   4.705   4.628 -1.0644 -0.4223  0.8088
 8405TIP3    H225180   4.141   4.574   4.685 -0.8372 -1.0597 -0.4157
 8406TIP3   OH225181   3.887   6.188   5.466  0.6821 -0.1634  0.2250
 8406TIP3    H125182   3.915   6.096   5.466  1.6460  0.1224  0.7393
 8406TIP3    H225183   3.878   6.210   5.374  0.8889 -0.6513  0.0843
 8407TIP3   OH225184   0.339   4.859   3.602 -0.3396  0.5183  0.1933
 8407TIP3    H125185   0.392   4.929   3.639 -0.4768 -0.0443  1.4917
 8407TIP3    H225186   0.250   4.894   3.599 -0.1663  0.9102 -0.5344
 8408TIP3   OH225187   6.224   4.274   2.386  0.3569  0.4269  0.2396
 8408TIP3    H125188   6.284   4.290   2.459  0.8026  1.0520 -0.2513
 8408TIP3    H225189   6.276   4.224   2.323  0.1855  0.4905  0.0502
 8409TIP3   OH225190   0.047   1.015   0.196  0.0581  0.1689  0.5604
 8409TIP3    H125191   0.013   1.052   0.114  0.2023  0.3265  0.5710
 8409TIP3    H225192   0.024   0.922   0.192  0.9019 -0.0258 -0.0948
 8410TIP3   OH225193   6.099   2.898   1.816  0.1154 -0.1545 -0.0484
 8410TIP3    H125194   6.131   2.965   1.877  2.7870 -1.1546 -0.2039
 8410TIP3    H225195   6.048   2.946   1.751 -0.7789  1.2527  1.6370
 8411TIP3   OH225196   1.508   3.428   1.051 -0.3090  0.0309  0.6200
 8411TIP3    H125197   1.431   3.441   1.106 -1.3257 -1.8327 -0.2767
 8411TIP3    H225198   1.576   3.400   1.112 -0.3607  1.5105  1.3955
 8412TIP3   OH225199   0.483   4.088   2.207  0.1620 -0.3015 -0.2517
 8412TIP3    H125200   0.527   4.171   2.188 -0.1990  0.0307  0.3602
 8412TIP3    H225201   0.552   4.034   2.247  0.1873 -0.0141  0.0965
 8413TIP3   OH225202   0.969   2.839   3.914 -0.2051  0.3391  0.0313
 8413TIP3    H125203   1.034   2.904   3.888 -0.8428  0.6356 -0.9008
 8413TIP3    H225204   0.892   2.890   3.940 -0.3582 -0.0206  0.3004
 8414TIP3   OH225205   2.346   5.894   0.200 -0.2926  0.3185 -0.2879
 8414TIP3    H125206   2.350   5.955   0.272 -0.4087  0.1247 -0.1163
 8414TIP3    H225207   2.422   5.915   0.146  0.5113 -0.3427  0.5426
 8415TIP3   OH225208   1.136   5.785   3.155 -0.0179 -0.0329 -0.2701
 8415TIP3    H125209   1.204   5.723   3.130  0.4350  1.2626 -2.5195
 8415TIP3    H225210   1.056   5.750   3.115 -0.8656 -1.6530  2.5186
 8416TIP3   OH225211   5.724   4.296   3.010  0.4943 -0.3571 -0.6139
 8416TIP3    H125212   5.820   4.295   3.010  0.5092  0.0203  0.5451
 8416TIP3    H225213   5.701   4.348   2.933  1.2586  0.8728 -0.0455
 8417TIP3   OH225214   0.629   5.272   0.854 -0.3599  0.6942  0.5850
 8417TIP3    H125215   0.606   5.180   0.849  1.1594  0.2010  1.8314
 8417TIP3    H225216   0.585   5.305   0.932  0.4157  0.5771  1.0883
 8418TIP3   OH225217   1.041   0.169   4.608 -0.1510 -0.2514 -0.0697
 8418TIP3    H125218   1.121   0.214   4.581 -0.0746  0.3226  1.0800
 8418TIP3    H225219   0.971   0.225   4.574 -0.1329 -1.3444 -2.0963
 8419TIP3   OH225220   4.349   0.833   1.319  0.4305  0.4239  0.3039
 8419TIP3    H125221   4.259   0.856   1.342  0.3237 -1.6695  2.4472
 8419TIP3    H225222   4.402   0.866   1.392  1.1879  0.3495 -0.2024
 8420TIP3   OH225223   5.637   6.052   4.662 -0.0421  0.2914 -0.8356
 8420TIP3    H125224   5.611   6.012   4.580  0.9396  0.4794 -1.2503
 8420TIP3    H225225   5.721   6.011   4.684 -1.1289 -1.0826  1.0280
 8421TIP3   OH225226   5.829   5.511   3.461  0.0107 -0.0332 -0.0351
 8421TIP3    H125227   5.897   5.445   3.475  1.1099  0.4739 -2.5041
 8421TIP3    H225228   5.746   5.463   3.470  0.7207 -1.1733  0.6698
 8422TIP3   OH225229   0.831   2.852   0.610  0.2372 -0.3245  0.3716
 8422TIP3    H125230   0.899   2.888   0.552 -0.0273 -0.8124 -0.2505
 8422TIP3    H225231   0.765   2.816   0.550  0.0661 -1.0439  0.9776
 8423TIP3   OH225232   1.844   4.061   2.022 -0.2399 -0.2087 -0.2498
 8423TIP3    H125233   1.755   4.038   2.048 -0.6080  1.0468 -0.3184
 8423TIP3    H225234   1.896   4.050   2.102 -0.9918  1.6831  0.5705
 8424TIP3   OH225235   0.718   4.214   2.157  0.5922 -0.3406 -0.0935
 8424TIP3    H125236   0.802   4.172   2.176  0.3704 -0.9776 -0.4770
 8424TIP3    H225237   0.712   4.286   2.220  0.6541 -1.3360  1.0828
 8425TIP3   OH225238   3.230   1.304   0.286  0.1456  0.3026  0.0086
 8425TIP3    H125239   3.224   1.305   0.381 -0.5027 -0.2888 -0.0216
 8425TIP3    H225240   3.227   1.212   0.263  1.0158  0.3991 -0.5503
 8426TIP3   OH225241   6.462   4.291   5.713 -0.4541  1.2496  0.6775
 8426TIP3    H125242   6.555   4.307   5.727 -0.0766 -0.2388  0.0297
 8426TIP3    H225243   6.427   4.376   5.687  1.0309  1.5161 -0.5955
 8427TIP3   OH225244   5.336   0.290   1.550 -0.6494  0.0801  0.1005
 8427TIP3    H125245   5.313   0.327   1.465 -1.4806 -0.3328  0.1292
 8427TIP3    H225246   5.416   0.335   1.575  0.1977 -0.5357 -1.3763
 8428TIP3   OH225247   6.625  -0.013   3.324 -0.7180 -0.4192 -0.4064
 8428TIP3    H125248   6.557   0.053   3.313  1.7457  2.5908  0.8684
 8428TIP3    H225249   6.684   0.000   3.250  1.6374  1.3812  1.6413
 8429TIP3   OH225250   1.705   3.898   4.899 -0.6833 -0.1910 -0.0936
 8429TIP3    H125251   1.784   3.907   4.953 -0.2184 -1.6998 -0.4735
 8429TIP3    H225252   1.634   3.893   4.962 -0.3090 -0.4018  0.3207
 8430TIP3   OH225253   4.240   5.780   5.093  0.3684 -0.0296  0.9206
 8430TIP3    H125254   4.229   5.875   5.083 -0.2266  0.0338  1.9515
 8430TIP3    H225255   4.335   5.767   5.095  0.4556  0.5203  0.5474
 8431TIP3   OH225256   6.086   3.158   4.114  0.0690  0.3906 -0.4248
 8431TIP3    H125257   6.136   3.131   4.037 -0.1418 -0.4816 -0.2674
 8431TIP3    H225258   5.998   3.124   4.100  0.1697 -0.2571  0.4416
 8432TIP3   OH225259   1.975   1.930   3.411  0.1812 -0.2613  0.2049
 8432TIP3    H125260   2.034   1.854   3.415  1.4710  0.6860  0.0315
 8432TIP3    H225261   1.975   1.965   3.500  1.0949  0.5989 -0.1102
 8433TIP3   OH225262   2.310   6.567   5.086  0.7949 -0.1289 -0.6624
 8433TIP3    H125263   2.287   6.650   5.127 -0.9354 -0.1385 -1.5194
 8433TIP3    H225264   2.272   6.501   5.144  1.4161 -0.2832 -0.4325
 8434TIP3   OH225265   5.673   0.756   5.080 -0.2364  0.2552 -0.3642
 8434TIP3    H125266   5.613   0.687   5.110  0.9964  0.1205  2.0493
 8434TIP3    H225267   5.681   0.815   5.155  1.8455  0.8020 -0.9617
 8435TIP3   OH225268   2.551   5.318   1.014 -0.2188 -0.0933 -0.1612
 8435TIP3    H125269   2.635   5.315   0.968 -0.0313  0.9716  0.0977
 8435TIP3    H225270   2.560   5.390   1.076 -1.9585  1.2035 -1.3489
 8436TIP3   OH225271   1.426   0.183   1.273  0.4275  0.2394  0.1971
 8436TIP3    H125272   1.361   0.178   1.203 -0.0587 -1.4483  0.7201
 8436TIP3    H225273   1.456   0.093   1.285  2.6943  0.9255  0.1746
 8437TIP3   OH225274   6.425   0.976   2.008  0.0508 -0.6233  0.5143
 8437TIP3    H125275   6.363   1.023   1.952  0.7101  0.0759  0.3679
 8437TIP3    H225276   6.382   0.973   2.093 -0.6908 -1.1546  0.1370
 8438TIP3   OH225277   4.534   4.666   3.520 -0.2234  0.0004 -0.1697
 8438TIP3    H125278   4.466   4.705   3.465 -0.4422 -0.7708 -0.4522
 8438TIP3    H225279   4.588   4.615   3.460 -0.1616 -0.4340  0.2456
 8439TIP3   OH225280   6.646   5.602   3.816  0.2914 -0.2492  0.0474
 8439TIP3    H125281   6.585   5.643   3.755  0.7683 -0.8044 -0.8256
 8439TIP3    H225282   6.613   5.626   3.903 -0.3303  0.6537 -0.4209
 8440TIP3   OH225283   3.501   5.227   2.839 -0.2985  0.2839 -0.3019
 8440TIP3    H125284   3.570   5.291   2.824 -0.1611  1.0848  2.9683
 8440TIP3    H225285   3.541   5.143   2.816  1.6253  0.7893  0.9296
 8441TIP3   OH225286   5.064   2.281   4.863  0.4664  0.2971 -0.1006
 8441TIP3    H125287   5.049   2.241   4.948 -1.0472 -1.1164 -0.9787
 8441TIP3    H225288   5.042   2.374   4.876  0.5119  0.1561  1.0826
 8442TIP3   OH225289   3.206   3.330   2.136 -0.0061  0.1033  0.3791
 8442TIP3    H125290   3.283   3.372   2.175 -0.2998  0.4641  0.5691
 8442TIP3    H225291   3.241   3.252   2.093  0.3736 -0.1193  1.0793
 8443TIP3   OH225292   2.291   6.513   1.535  0.4741  0.0110  0.7222
 8443TIP3    H125293   2.216   6.569   1.555 -0.1200 -0.9453  1.2356
 8443TIP3    H225294   2.293   6.509   1.440  0.1422  0.3966  0.6953
 8444TIP3   OH225295   1.388   0.150   3.822  0.3254  0.5245 -0.5824
 8444TIP3    H125296   1.341   0.211   3.766 -0.3386  1.2102  0.6853
 8444TIP3    H225297   1.320   0.095   3.860  0.9536 -1.5115 -2.2089
 8445TIP3   OH225298   4.152   2.242   1.794 -0.5862 -0.1629 -0.0298
 8445TIP3    H125299   4.111   2.199   1.719 -2.2218  1.9562 -0.4482
 8445TIP3    H225300   4.148   2.335   1.773  1.7109  0.3143  1.3660
 8446TIP3   OH225301   0.343   6.167   4.078 -0.1755  0.6332 -0.3375
 8446TIP3    H125302   0.345   6.089   4.133  0.6242  0.9986  0.1581
 8446TIP3    H225303   0.251   6.192   4.076 -0.2366  0.5193  0.6978
 8447TIP3   OH225304   0.573   0.722   2.551 -0.0573 -0.4798 -0.2944
 8447TIP3    H125305   0.540   0.704   2.639  1.1862  0.4276  0.3999
 8447TIP3    H225306   0.562   0.817   2.541  1.0976 -0.3545 -0.5292
 8448TIP3   OH225307   6.775   2.901   0.841 -0.2532 -0.5608 -0.1116
 8448TIP3    H125308   6.794   2.969   0.776 -0.7197 -1.2858 -1.0374
 8448TIP3    H225309   6.861   2.871   0.870 -0.0407 -0.0627 -0.2149
 8449TIP3   OH225310   6.250   1.432   3.927  0.2305  0.5195  0.3392
 8449TIP3    H125311   6.249   1.365   3.858  0.6118  0.4376  0.4093
 8449TIP3    H225312   6.159   1.461   3.934  0.2226  0.6523 -0.3170
 8450TIP3   OH225313   5.851   6.145   3.323 -0.4435 -0.1296  0.1859
 8450TIP3    H125314   5.760   6.142   3.293 -0.8766  2.1665  1.0500
 8450TIP3    H225315   5.846   6.123   3.416 -0.1679  0.2343  0.2908
 8451TIP3   OH225316   0.377   0.687   5.324  0.1237  0.1237 -0.0801
 8451TIP3    H125317   0.464   0.714   5.353  1.5105 -2.6505 -1.3334
 8451TIP3    H225318   0.322   0.698   5.402  1.8330  0.8623  1.0970
 8452TIP3   OH225319   6.350   3.063   1.509 -0.0798  0.1647 -0.5740
 8452TIP3    H125320   6.430   3.049   1.558 -0.9769  0.7457  1.1403
 8452TIP3    H225321   6.294   3.115   1.568 -2.6012 -2.1265 -0.7544
 8453TIP3   OH225322   4.126   1.696   4.220  0.0703  0.2872  0.7579
 8453TIP3    H125323   4.143   1.726   4.309 -0.5234  0.2490  0.8934
 8453TIP3    H225324   4.165   1.763   4.163  2.0856 -0.6140  1.0101
 8454TIP3   OH225325   2.327   2.248   5.399  0.0654  0.0650  0.1429
 8454TIP3    H125326   2.235   2.270   5.415 -0.5811 -1.9955 -0.3271
 8454TIP3    H225327   2.347   2.180   5.464  0.8105 -0.4688 -0.6209
 8455TIP3   OH225328   5.749   3.597   4.290  0.0343  0.4822  0.3698
 8455TIP3    H125329   5.831   3.551   4.307 -0.5395 -0.4657  0.6456
 8455TIP3    H225330   5.685   3.555   4.347 -0.7465  0.9092 -0.1596
 8456TIP3   OH225331   0.486   2.091   2.781  0.4355  0.1184 -0.4330
 8456TIP3    H125332   0.525   2.119   2.864 -0.2474  0.0911 -0.0963
 8456TIP3    H225333   0.482   1.995   2.788 -1.8126  0.2288  0.5350
 8457TIP3   OH225334   0.279   1.384   3.399 -0.3676 -0.2373 -0.3719
 8457TIP3    H125335   0.336   1.315   3.435 -0.6420 -0.1286  0.2888
 8457TIP3    H225336   0.290   1.458   3.458  0.1945  0.4219 -1.2815
 8458TIP3   OH225337   1.624   1.635   1.006  0.6359  0.1699 -0.1715
 8458TIP3    H125338   1.716   1.613   1.022  0.8164  1.6956  1.1541
 8458TIP3    H225339   1.575   1.584   1.070  0.6873  0.4344  0.0797
 8459TIP3   OH225340   6.352   5.727   1.324  0.1558 -0.7237  0.3108
 8459TIP3    H125341   6.418   5.796   1.327 -0.0469 -0.4892 -0.3783
 8459TIP3    H225342   6.269   5.774   1.315 -0.0109 -1.0467  0.1424
 8460TIP3   OH225343   0.323   3.545   0.490  0.0320  0.4824 -0.1865
 8460TIP3    H125344   0.367   3.623   0.523 -0.7313  0.7438  0.2348
 8460TIP3    H225345   0.303   3.494   0.568  2.2420 -1.1199 -0.5440
 8461TIP3   OH225346   0.605   4.066   5.536  0.1774 -0.0541 -0.4628
 8461TIP3    H125347   0.513   4.083   5.518  0.6963  0.7873 -2.5978
 8461TIP3    H225348   0.637   4.145   5.578 -0.4979 -1.1530  2.3356
 8462TIP3   OH225349   5.285   1.962   2.600 -0.1129  0.3818  0.4307
 8462TIP3    H125350   5.381   1.969   2.604 -0.0081 -1.0189  1.0027
 8462TIP3    H225351   5.254   2.023   2.667  0.3588  1.1845 -0.0786
 8463TIP3   OH225352   5.199   2.653   0.562 -0.4248 -0.1262  0.7346
 8463TIP3    H125353   5.275   2.607   0.596 -0.1850 -0.1525  0.1595
 8463TIP3    H225354   5.138   2.656   0.637 -0.7736 -2.0380  0.5867
 8464TIP3   OH225355   6.469   3.151   5.181  0.1012  0.1856 -0.3313
 8464TIP3    H125356   6.475   3.153   5.276 -1.0225  1.3681 -0.2515
 8464TIP3    H225357   6.536   3.213   5.151  0.0995  0.2127 -0.2788
 8465TIP3   OH225358   3.494   0.587   0.599  0.6676  0.1556 -0.1099
 8465TIP3    H125359   3.419   0.618   0.548  1.4849  0.7913 -0.9616
 8465TIP3    H225360   3.525   0.510   0.552  1.7058  1.0113 -0.8735
 8466TIP3   OH225361   1.986   0.519   0.234  0.3646  0.4309 -0.3497
 8466TIP3    H125362   2.067   0.570   0.241  0.4691  0.2810 -0.4544
 8466TIP3    H225363   1.928   0.557   0.299  0.2464  1.0441 -0.8038
 8467TIP3   OH225364   3.662   0.252   3.619 -0.5407  0.5807  0.5462
 8467TIP3    H125365   3.727   0.204   3.670 -0.1226 -0.4957 -0.9273
 8467TIP3    H225366   3.713   0.294   3.549 -1.3191  0.4224 -0.1317
 8468TIP3   OH225367   6.549   5.054   4.001 -0.3064  0.0315 -0.3537
 8468TIP3    H125368   6.512   5.100   3.926 -0.1438  3.0324  1.2569
 8468TIP3    H225369   6.633   5.096   4.016 -0.3395 -0.4772  1.5239
 8469TIP3   OH225370   1.255   0.845   3.156 -0.2367 -0.2779  0.0184
 8469TIP3    H125371   1.266   0.873   3.247 -2.4896 -1.0531  0.5941
 8469TIP3    H225372   1.334   0.795   3.136  1.9314  2.7084  0.3460
 8470TIP3   OH225373   3.487   3.904   2.901 -0.6481 -0.3912  0.1890
 8470TIP3    H125374   3.477   3.991   2.939 -0.4230 -0.6057  0.7530
 8470TIP3    H225375   3.520   3.850   2.973 -0.0981 -0.7837 -0.3486
 8471TIP3   OH225376   7.048   2.101   2.384 -0.3643  0.6038 -0.3833
 8471TIP3    H125377   6.986   2.174   2.388 -1.1453  0.1187 -2.3643
 8471TIP3    H225378   7.072   2.095   2.291  0.6826 -0.8600 -0.0586
 8472TIP3   OH225379   6.436   3.879   4.671  0.4786 -0.0858 -0.7955
 8472TIP3    H125380   6.526   3.860   4.645  0.5762  0.2986 -0.7503
 8472TIP3    H225381   6.386   3.877   4.589  0.7407  0.8689 -0.9974
 8473TIP3   OH225382   6.401   4.477   5.410 -0.5996 -0.1410 -0.1612
 8473TIP3    H125383   6.394   4.489   5.504 -0.3805  0.1541 -0.1814
 8473TIP3    H225384   6.486   4.515   5.387 -0.7798  0.0519 -0.5204
 8474TIP3   OH225385   0.544   1.317   0.595  0.3497  0.1882  0.5145
 8474TIP3    H125386   0.528   1.288   0.505 -0.8658  2.2680  0.0050
 8474TIP3    H225387   0.638   1.331   0.599  0.5009 -0.5078 -0.2229
 8475TIP3   OH225388   2.791   5.479   0.138  0.2613  0.4238  0.1317
 8475TIP3    H125389   2.843   5.437   0.207  0.3963 -0.7486 -0.6405
 8475TIP3    H225390   2.786   5.412   0.069  0.0478  1.5228 -0.9475
 8476TIP3   OH225391   4.580   0.787   2.248 -0.2115 -0.4105 -0.4182
 8476TIP3    H125392   4.661   0.834   2.227 -0.4157 -0.2468 -0.8443
 8476TIP3    H225393   4.597   0.749   2.334 -0.0758  0.5162 -0.0230
 8477TIP3   OH225394   0.911   5.923   2.208 -0.2928  0.7123 -0.2548
 8477TIP3    H125395   0.921   5.934   2.303 -0.6428  0.6500 -0.2114
 8477TIP3    H225396   0.847   5.853   2.199 -1.7045  1.9920 -0.5365
 8478TIP3   OH225397   4.808   3.682   0.609  0.7842 -0.4411 -0.9041
 8478TIP3    H125398   4.834   3.774   0.603 -0.4208 -0.0559 -0.3580
 8478TIP3    H225399   4.721   3.678   0.569  0.3101 -1.1088  0.1471
 8479TIP3   OH225400   0.849   5.258   1.685  0.1046  0.0766  0.6606
 8479TIP3    H125401   0.916   5.326   1.691  0.0513  0.2945 -0.8356
 8479TIP3    H225402   0.852   5.228   1.594 -1.4427 -0.3123  0.6953
 8480TIP3   OH225403   2.568   4.842   2.691 -0.6585 -0.2863  0.0658
 8480TIP3    H125404   2.646   4.821   2.639 -1.3183 -1.2258 -0.5790
 8480TIP3    H225405   2.599   4.905   2.756 -0.1261  2.1815 -2.3948
 8481TIP3   OH225406   2.889   4.098   0.228  0.5529  1.1018  0.3860
 8481TIP3    H125407   2.904   4.180   0.274  1.4273  1.0253  0.2556
 8481TIP3    H225408   2.906   4.030   0.294 -0.0153  1.0150  0.4514
 8482TIP3   OH225409   5.329   1.067   0.725  0.3781  0.1598  0.1016
 8482TIP3    H125410   5.329   1.015   0.805 -0.5995  0.3536  0.2369
 8482TIP3    H225411   5.261   1.029   0.671  1.0059  0.0569 -0.6343
 8483TIP3   OH225412   5.947   5.683   5.460  0.6245 -0.1813  0.6949
 8483TIP3    H125413   5.955   5.687   5.364 -1.4054  0.3563  0.4936
 8483TIP3    H225414   5.959   5.774   5.488 -1.9030  0.2701  0.5719
 8484TIP3   OH225415   3.815   4.993   2.061 -0.0570 -0.0588  0.5353
 8484TIP3    H125416   3.907   5.019   2.057 -0.0923  0.0515  0.4305
 8484TIP3    H225417   3.792   4.972   1.971 -0.5633  1.4127  0.2903
 8485TIP3   OH225418   0.981   3.698   0.904 -0.1116 -0.1413  0.6521
 8485TIP3    H125419   1.072   3.723   0.921  0.4699 -2.0140  0.5404
 8485TIP3    H225420   0.952   3.656   0.986 -0.3944 -0.8354  0.2058
 8486TIP3   OH225421   1.299   0.515   5.005 -0.1054 -0.2825  0.4389
 8486TIP3    H125422   1.237   0.459   5.051 -0.8912  0.3600  0.1979
 8486TIP3    H225423   1.267   0.516   4.914  0.3187 -0.0217  0.2877
 8487TIP3   OH225424   1.478   5.893   3.591  0.6095  0.1478  0.5182
 8487TIP3    H125425   1.407   5.884   3.655  0.5971 -1.0207  0.3600
 8487TIP3    H225426   1.522   5.809   3.591  0.3614 -0.0334 -1.2965
 8488TIP3   OH225427   6.550   0.804   5.503  0.1780  0.7623  0.0252
 8488TIP3    H125428   6.585   0.893   5.508  1.6894  0.2454 -0.6921
 8488TIP3    H225429   6.610   0.752   5.555 -1.0594  0.2308  0.9761
 8489TIP3   OH225430   4.922   1.663   4.819  0.3979 -0.1277  0.3719
 8489TIP3    H125431   4.978   1.725   4.867  2.0280 -0.1207 -1.4003
 8489TIP3    H225432   4.978   1.586   4.805 -0.0709 -0.2202 -1.2470
 8490TIP3   OH225433   0.988   1.732   1.132  0.2020  0.0708  0.1347
 8490TIP3    H125434   0.970   1.722   1.038  1.0431  0.9257 -0.1332
 8490TIP3    H225435   0.903   1.721   1.174 -0.4374  1.0278 -0.8439
 8491TIP3   OH225436   2.409   6.739   0.410  0.5813  0.2354 -0.3441
 8491TIP3    H125437   2.338   6.726   0.472 -0.4149  0.4582 -1.4119
 8491TIP3    H225438   2.434   6.651   0.382  0.0656  0.1965 -0.6894
 8492TIP3   OH225439   5.397   0.435   3.164 -0.0133 -0.2117  0.0010
 8492TIP3    H125440   5.466   0.502   3.163  1.3945 -1.6117 -0.7479
 8492TIP3    H225441   5.315   0.485   3.154  0.8459  1.5103  1.0587
 8493TIP3   OH225442   0.075   3.744   1.925  0.0295 -0.1222  0.3126
 8493TIP3    H125443   0.128   3.749   1.846 -0.8511  0.7004 -0.2515
 8493TIP3    H225444   0.001   3.803   1.908 -0.2159  0.0077  1.7126
 8494TIP3   OH225445   3.008   6.182   4.311 -0.0236 -0.7062  0.5397
 8494TIP3    H125446   2.992   6.177   4.217  1.6734 -0.2065  0.1824
 8494TIP3    H225447   2.939   6.239   4.344  1.2645  1.9420 -1.0002
 8495TIP3   OH225448   5.965   1.416   3.590 -0.4697 -0.3644  0.2443
 8495TIP3    H125449   5.914   1.393   3.668 -0.9333  2.1558  0.7529
 8495TIP3    H225450   5.934   1.502   3.565  0.7721 -0.4529 -1.8461
 8496TIP3   OH225451   0.683   2.461   2.068  0.0637 -0.4942  0.1566
 8496TIP3    H125452   0.755   2.405   2.096 -0.2609 -1.2934 -0.5806
 8496TIP3    H225453   0.622   2.403   2.023 -0.8244  0.2500  0.3530
 8497TIP3   OH225454   5.380   4.945   2.587 -0.5109  0.0013  0.2039
 8497TIP3    H125455   5.402   5.036   2.568  0.8818  0.0578  1.8811
 8497TIP3    H225456   5.452   4.895   2.549  0.4528 -0.1278  2.1178
 8498TIP3   OH225457   1.867   4.065   5.365 -0.4422  0.4892 -0.5302
 8498TIP3    H125458   1.908   4.115   5.435 -0.6164  1.3992 -1.0692
 8498TIP3    H225459   1.938   4.048   5.303 -0.4583  0.3556 -0.5127
 8499TIP3   OH225460   0.670   1.780   3.021  0.0190 -0.0259 -0.2081
 8499TIP3    H125461   0.615   1.720   3.071 -0.9051 -0.2003 -1.3990
 8499TIP3    H225462   0.620   1.798   2.942  0.1471  2.4885  0.1818
 8500TIP3   OH225463   1.322   6.334   2.907  0.0917 -0.0401 -0.4189
 8500TIP3    H125464   1.397   6.301   2.857  0.6545  0.4285  0.1045
 8500TIP3    H225465   1.258   6.358   2.840  0.6441  0.1228 -0.9024
 8501TIP3   OH225466   0.495   2.465   0.494  0.7365 -0.2828  0.7129
 8501TIP3    H125467   0.579   2.421   0.509  0.4412 -0.6736  1.2846
 8501TIP3    H225468   0.451   2.461   0.579 -0.3794 -1.1946  0.1205
 8502TIP3   OH225469   4.633   1.618   4.721 -0.1062 -0.0696  0.7324
 8502TIP3    H125470   4.574   1.686   4.753 -1.0870  0.3426 -1.6769
 8502TIP3    H225471   4.717   1.638   4.761 -0.3776  2.5449  0.1792
 8503TIP3   OH225472   7.153   5.865   1.189  0.0995 -0.1737  0.4648
 8503TIP3    H125473   7.144   5.933   1.255  0.1551 -0.0034  0.2993
 8503TIP3    H225474   7.244   5.873   1.160  0.2832 -0.7249  0.8852
 8504TIP3   OH225475   3.595   2.462   0.390  0.1195  0.0885 -0.1596
 8504TIP3    H125476   3.639   2.403   0.451  1.6333  0.2264 -1.0678
 8504TIP3    H225477   3.535   2.513   0.445  1.4028  0.1835  1.2125
 8505TIP3   OH225478   6.096   0.555   4.916 -0.8945 -0.2636 -0.5174
 8505TIP3    H125479   6.025   0.583   4.973  0.7100  0.6479  1.1221
 8505TIP3    H225480   6.111   0.463   4.939 -0.6124 -0.0507  0.1767
 8506TIP3   OH225481   3.150   6.401   2.300 -0.3750 -0.1078  0.1153
 8506TIP3    H125482   3.220   6.343   2.331  0.3680  1.9186  2.6285
 8506TIP3    H225483   3.185   6.489   2.311 -2.7451  0.9400 -0.0716
 8507TIP3   OH225484   0.347   5.910   2.828 -0.4175 -0.5511  0.0938
 8507TIP3    H125485   0.321   5.822   2.855  0.2860 -1.0255 -0.7194
 8507TIP3    H225486   0.441   5.902   2.808 -0.3842  0.3425 -0.1441
 8508TIP3   OH225487   1.244   6.163   4.742  0.8654  0.0475  0.4249
 8508TIP3    H125488   1.218   6.073   4.721 -0.0791  0.3025  0.4701
 8508TIP3    H225489   1.340   6.161   4.741  0.8525 -0.8050 -0.2404
 8509TIP3   OH225490   1.124   5.015   5.572  1.0225 -0.1687  0.2037
 8509TIP3    H125491   1.220   5.010   5.565  0.9628 -1.8988  0.2331
 8509TIP3    H225492   1.098   5.078   5.505  2.2128  0.7862  0.5959
 8510TIP3   OH225493   4.195   2.263   5.303  0.0594  0.3552 -0.0286
 8510TIP3    H125494   4.275   2.274   5.252  0.2772  0.6679  0.3663
 8510TIP3    H225495   4.127   2.247   5.238 -0.1906  3.4919 -0.7071
 8511TIP3   OH225496   1.943   2.404   1.789 -0.1235 -0.0662 -0.1176
 8511TIP3    H125497   1.882   2.412   1.863 -0.5855  1.5307 -0.6258
 8511TIP3    H225498   1.960   2.310   1.782 -1.1270 -0.3759  1.1620
 8512TIP3   OH225499   2.995   4.352   3.975  0.4595 -0.5666  0.6785
 8512TIP3    H125500   2.947   4.273   3.949 -0.2979  0.2109 -0.3465
 8512TIP3    H225501   2.952   4.380   4.056  1.0469 -1.4550  1.3216
 8513TIP3   OH225502   6.414   4.525   1.734 -0.6335 -0.1709  0.2378
 8513TIP3    H125503   6.321   4.547   1.733 -0.9523 -1.1010  2.7349
 8513TIP3    H225504   6.458   4.606   1.757 -1.0221 -0.1072  0.7930
 8514TIP3   OH225505   3.439   6.660   0.868  0.3095 -0.2900  0.0241
 8514TIP3    H125506   3.442   6.692   0.777  3.1657  1.5571  0.6276
 8514TIP3    H225507   3.349   6.632   0.880 -0.4531  0.4038 -3.0588
 8515TIP3   OH225508   4.202   5.718   0.810 -0.1394  0.6227  0.0765
 8515TIP3    H125509   4.252   5.795   0.782 -1.1258  1.5046  0.6549
 8515TIP3    H225510   4.114   5.752   0.826 -0.8836 -0.8588 -0.7383
 8516TIP3   OH225511   4.964   5.908   1.782 -0.2479  0.0715  0.4558
 8516TIP3    H125512   5.002   5.820   1.779  0.0005  0.1768 -2.4257
 8516TIP3    H225513   4.872   5.894   1.803 -0.2498 -0.9260 -0.1511
 8517TIP3   OH225514   2.971   3.232   0.450 -0.4499  0.0077 -0.6950
 8517TIP3    H125515   2.924   3.315   0.444 -0.9832 -0.2038  0.3008
 8517TIP3    H225516   3.057   3.256   0.483 -1.0961  0.0468  1.0816
 8518TIP3   OH225517   1.933   6.554   5.467 -0.2845  1.0902 -0.0746
 8518TIP3    H125518   1.879   6.518   5.537 -1.3162  1.9118 -0.4211
 8518TIP3    H225519   1.885   6.535   5.386  0.6553  0.5748 -0.5292
 8519TIP3   OH225520   0.751   2.762   3.252 -0.4477  0.3053  0.1317
 8519TIP3    H125521   0.826   2.770   3.311 -1.9350  2.5414  1.9049
 8519TIP3    H225522   0.763   2.833   3.188  0.7870 -1.6663 -1.9897
 8520TIP3   OH225523   6.461   4.612   5.032  0.4818  0.1018  0.1372
 8520TIP3    H125524   6.522   4.601   5.105 -0.3500 -0.0980  0.8367
 8520TIP3    H225525   6.393   4.670   5.068 -0.2636 -0.5076 -0.2719
 8521TIP3   OH225526   0.990   0.693   1.590  0.2563  0.4161 -0.7010
 8521TIP3    H125527   0.906   0.682   1.634  0.6052  1.1523  0.1771
 8521TIP3    H225528   0.971   0.673   1.498 -0.9896  1.0609 -0.6073
 8522TIP3   OH225529   5.952   6.664   3.350 -0.1460  0.6440  0.3925
 8522TIP3    H125530   6.040   6.699   3.337 -0.0977  0.0397 -0.9670
 8522TIP3    H225531   5.940   6.666   3.445  1.6996 -0.1594  0.6887
 8523TIP3   OH225532   3.376   5.754   3.725 -0.1088  0.7258  0.0984
 8523TIP3    H125533   3.337   5.826   3.775 -0.4090  1.7082 -1.4876
 8523TIP3    H225534   3.439   5.797   3.667  1.9432 -0.6223  1.1937
 8524TIP3   OH225535   6.171   5.771   3.425  0.8407  0.1431 -0.1057
 8524TIP3    H125536   6.252   5.803   3.464  0.1350  1.7160  0.1419
 8524TIP3    H225537   6.124   5.850   3.399 -1.0325 -0.6698  0.6263
 8525TIP3   OH225538   5.253   6.175   2.529  0.0073  0.1912  0.3627
 8525TIP3    H125539   5.254   6.266   2.501 -1.1314  0.0593 -0.1778
 8525TIP3    H225540   5.209   6.128   2.458  2.8957 -1.2569 -0.6318
 8526TIP3   OH225541  -0.010   6.080   0.901 -0.3443 -0.3666 -0.4377
 8526TIP3    H125542   0.060   6.025   0.865 -1.1987 -1.2577 -0.7812
 8526TIP3    H225543  -0.049   6.027   0.971 -0.0421  0.5266  0.4270
 8527TIP3   OH225544   1.741   1.749   3.477 -0.1325  0.1169  0.2214
 8527TIP3    H125545   1.815   1.709   3.432 -1.1413  0.3000 -1.6997
 8527TIP3    H225546   1.722   1.828   3.427 -2.4228 -0.6039 -0.1546
 8528TIP3   OH225547   1.186   5.507   3.237 -0.7489  0.1624 -0.4950
 8528TIP3    H125548   1.097   5.491   3.208 -1.1365 -0.2667  0.8457
 8528TIP3    H225549   1.228   5.422   3.234 -0.1982  0.4542 -1.6443
 8529TIP3   OH225550   4.720   6.368   2.979  0.0734 -0.2237  0.5209
 8529TIP3    H125551   4.695   6.305   2.912 -0.5805 -0.4499  0.9664
 8529TIP3    H225552   4.701   6.453   2.940 -0.0863 -0.3439  0.3346
 8530TIP3   OH225553   0.112   4.453   5.191 -0.3400  0.2276 -0.5895
 8530TIP3    H125554   0.066   4.493   5.265  0.8599  1.2286 -0.3434
 8530TIP3    H225555   0.192   4.505   5.182  0.3599 -0.9508 -1.5005
 8531TIP3   OH225556   5.280   0.134   5.225 -0.5307  0.2109  0.1837
 8531TIP3    H125557   5.340   0.168   5.159  0.5430 -2.0970 -0.1304
 8531TIP3    H225558   5.197   0.178   5.207  0.8412  3.0393  0.2628
 8532TIP3   OH225559   6.266   4.064   3.394 -0.4784 -0.2286 -0.3557
 8532TIP3    H125560   6.262   4.007   3.471  0.7198  1.9631  1.4435
 8532TIP3    H225561   6.304   4.008   3.326 -0.5681 -1.9368  0.9251
 8533TIP3   OH225562   0.781   5.761   1.236  0.0218 -0.0018 -0.0993
 8533TIP3    H125563   0.871   5.775   1.265 -0.1142  1.1754 -0.1993
 8533TIP3    H225564   0.755   5.844   1.198 -1.5825  0.1330  1.1817
 8534TIP3   OH225565   3.999   3.504   0.288 -0.2762 -0.3219  0.2258
 8534TIP3    H125566   4.058   3.474   0.219  0.5156  0.2180  0.6539
 8534TIP3    H225567   3.935   3.433   0.297  1.2996 -1.7571  0.9263
 8535TIP3   OH225568  -0.001   4.292   2.808  0.6622  1.1460 -0.1111
 8535TIP3    H125569   0.050   4.306   2.888 -0.7972 -0.3346  1.1574
 8535TIP3    H225570   0.059   4.246   2.749  0.6014 -1.4809  1.7268
 8536TIP3   OH225571   5.864   0.034   1.250 -0.0340  0.7359 -0.4347
 8536TIP3    H125572   5.931   0.072   1.307  0.7285  0.4113 -1.1051
 8536TIP3    H225573   5.852   0.099   1.181  0.1850  0.4277 -0.7642
 8537TIP3   OH225574   3.738   6.371   3.776  0.3419  0.3946  0.3166
 8537TIP3    H125575   3.692   6.316   3.713 -0.7680  2.4213 -0.7277
 8537TIP3    H225576   3.809   6.411   3.726  1.6021 -0.5964  1.2486
 8538TIP3   OH225577   5.509   6.612   2.845 -0.0735  0.2947  0.2621
 8538TIP3    H125578   5.500   6.611   2.941  1.7936 -0.6437  0.4646
 8538TIP3    H225579   5.458   6.537   2.815  1.0483 -0.6763  0.7277
 8539TIP3   OH225580   0.114   5.064   1.723  0.2308  0.0331  0.1373
 8539TIP3    H125581   0.156   4.991   1.678  1.9382  0.0145  1.6536
 8539TIP3    H225582   0.057   5.023   1.788 -0.5401  0.0630 -0.5115
 8540TIP3   OH225583   2.272   2.221   0.093  0.0063  0.2437 -0.6267
 8540TIP3    H125584   2.193   2.203   0.042  0.8806 -0.3220 -1.8374
 8540TIP3    H225585   2.276   2.316   0.099 -0.5154  0.2874 -0.9704
 8541TIP3   OH225586   5.327   3.426   5.826 -0.5737 -0.2160 -0.4979
 8541TIP3    H125587   5.278   3.494   5.873  0.3133  0.3524 -0.3774
 8541TIP3    H225588   5.363   3.470   5.749  1.5648 -0.0333  0.5318
 8542TIP3   OH225589   4.934   1.043   1.438  0.4427  0.3632  0.0288
 8542TIP3    H125590   5.024   1.062   1.463  0.8814 -1.0403 -0.3929
 8542TIP3    H225591   4.941   0.969   1.378 -0.9677  0.4509 -0.2717
 8543TIP3   OH225592   6.675   4.530   2.187 -0.1509  0.3740  0.2069
 8543TIP3    H125593   6.611   4.593   2.217 -1.6285 -0.5745 -0.7964
 8543TIP3    H225594   6.702   4.562   2.100  0.5295  0.6021  0.4907
 8544TIP3   OH225595   2.193   3.689   0.953  0.3663 -0.1180 -0.0881
 8544TIP3    H125596   2.102   3.659   0.943  0.1342  0.6848 -0.5580
 8544TIP3    H225597   2.194   3.773   0.907  1.2991 -0.0210  0.1082
 8545TIP3   OH225598   2.779   3.697   0.735  0.1917 -0.0765 -0.2056
 8545TIP3    H125599   2.822   3.620   0.771  0.7410  0.7571  1.0082
 8545TIP3    H225600   2.851   3.757   0.712 -0.2174  0.0392 -1.2528
 8546TIP3   OH225601   0.429   6.723   5.617  0.6521  0.0620  0.0289
 8546TIP3    H125602   0.438   6.808   5.659  0.8600  0.5703 -1.0138
 8546TIP3    H225603   0.511   6.677   5.638 -0.1278 -0.5412  1.9633
 8547TIP3   OH225604   5.659   0.197   1.395  0.6992  0.5134  0.2135
 8547TIP3    H125605   5.704   0.141   1.332 -1.6917  0.5844 -1.6583
 8547TIP3    H225606   5.726   0.260   1.422  1.7245  0.7788 -2.6155
 8548TIP3   OH225607   3.994   0.373   0.865  0.2097  0.1132 -0.4486
 8548TIP3    H125608   3.927   0.341   0.804  1.1562  0.7033 -1.8339
 8548TIP3    H225609   3.970   0.333   0.949 -0.5365 -1.5697 -1.4056
 8549TIP3   OH225610   3.807   3.208   4.011  0.0876  0.1844 -0.0130
 8549TIP3    H125611   3.736   3.233   4.070  0.5826  0.7046  0.3740
 8549TIP3    H225612   3.763   3.178   3.931 -0.6232 -1.2211  0.8626
 8550TIP3   OH225613   5.721   4.492   1.327 -0.4102 -0.3042  0.1365
 8550TIP3    H125614   5.680   4.563   1.375  0.8148  1.0399 -0.7384
 8550TIP3    H225615   5.738   4.425   1.393 -2.7523 -0.3782  0.7475
 8551TIP3   OH225616   2.002   1.659   3.388 -0.0546  0.3966  0.4572
 8551TIP3    H125617   2.058   1.654   3.311 -0.5259  2.0494 -0.0350
 8551TIP3    H225618   2.034   1.590   3.445 -0.2199 -1.4282 -1.5397
 8552TIP3   OH225619   5.182   5.459   2.553  0.3239  0.5087 -0.2244
 8552TIP3    H125620   5.271   5.459   2.587  1.1795  1.1018 -2.2933
 8552TIP3    H225621   5.187   5.511   2.472 -1.2826 -1.6712 -1.8765
 8553TIP3   OH225622   1.243   1.567   5.756  0.2905  0.0066  0.2922
 8553TIP3    H125623   1.322   1.561   5.810 -0.5182  0.3870  1.5322
 8553TIP3    H225624   1.249   1.654   5.716  1.2864 -0.5724 -0.9125
 8554TIP3   OH225625   6.168   3.171   5.312  0.3574 -0.6389 -0.3235
 8554TIP3    H125626   6.075   3.149   5.299  0.3135 -0.5580 -0.1503
 8554TIP3    H225627   6.213   3.130   5.238  0.0604  0.1409 -0.9579
 8555TIP3   OH225628   4.374   6.505   1.911 -0.1833  0.3981  0.5666
 8555TIP3    H125629   4.341   6.416   1.916 -1.2754  0.6464 -1.2240
 8555TIP3    H225630   4.340   6.547   1.991 -0.7134 -0.4479  0.8002
 8556TIP3   OH225631   6.009   1.059   5.012  0.0158  0.7760 -0.3271
 8556TIP3    H125632   5.963   1.112   5.077  1.3713  1.2926  0.2436
 8556TIP3    H225633   6.095   1.044   5.050  0.2529 -0.3629 -1.2669
 8557TIP3   OH225634   5.226   0.772   3.315 -0.1575  0.0715  0.0931
 8557TIP3    H125635   5.193   0.827   3.387 -1.9645  0.9970 -1.3528
 8557TIP3    H225636   5.297   0.721   3.354  0.5446  2.2843  1.9248
 8558TIP3   OH225637   0.157   0.518   4.924  0.0959  0.6331 -0.0235
 8558TIP3    H125638   0.147   0.497   5.017  0.9784  0.4763  0.0510
 8558TIP3    H225639   0.068   0.517   4.889 -0.0878 -1.3185  0.3943
 8559TIP3   OH225640   1.332   4.301   4.613 -0.1769 -0.6004  0.1660
 8559TIP3    H125641   1.323   4.375   4.553  1.3192 -0.5896 -0.0884
 8559TIP3    H225642   1.242   4.279   4.638 -0.7193  0.4926 -0.7332
 8560TIP3   OH225643   1.602   0.686   0.910 -0.2133 -0.5172 -0.0710
 8560TIP3    H125644   1.534   0.712   0.847  0.6080 -0.5898 -1.0164
 8560TIP3    H225645   1.677   0.663   0.856  0.4923 -0.6833  0.9464
 8561TIP3   OH225646   1.554   3.677   0.382  0.1936 -0.3135  0.1560
 8561TIP3    H125647   1.566   3.661   0.475 -0.4092  1.0370  0.4974
 8561TIP3    H225648   1.525   3.768   0.377 -0.0156 -0.4321 -1.3338
 8562TIP3   OH225649   6.211   4.200   4.340 -0.4667 -0.3217 -0.7576
 8562TIP3    H125650   6.294   4.155   4.354 -0.3648  0.3294  1.0388
 8562TIP3    H225651   6.220   4.241   4.254  0.1361 -2.1488 -1.6176
 8563TIP3   OH225652   4.767   5.494   4.514  0.1130  0.7458  0.6946
 8563TIP3    H125653   4.788   5.538   4.597  1.7833  0.3351  0.5175
 8563TIP3    H225654   4.839   5.518   4.455 -1.2696  1.4069 -0.8149
 8564TIP3   OH225655   5.536   3.710   5.015 -0.0250  0.2654  0.2361
 8564TIP3    H125656   5.589   3.656   5.073 -0.1099 -1.1687 -0.9619
 8564TIP3    H225657   5.599   3.751   4.955 -0.1004  0.2722  0.1611
 8565TIP3   OH225658   4.789   0.210   3.659  0.2380 -0.2499  0.9374
 8565TIP3    H125659   4.866   0.230   3.713 -0.9669  1.7814  2.0304
 8565TIP3    H225660   4.746   0.137   3.704  2.0625 -2.2308 -0.3354
 8566TIP3   OH225661   1.456   4.954   1.431 -0.0679  0.3032 -0.5038
 8566TIP3    H125662   1.477   5.045   1.452 -0.3695 -0.2310  2.4198
 8566TIP3    H225663   1.540   4.912   1.416  0.2982  0.4306  1.0854
 8567TIP3   OH225664   6.976   2.134   5.040 -0.2456  0.3979  0.1228
 8567TIP3    H125665   7.029   2.199   5.085  0.7534  0.6179 -1.2759
 8567TIP3    H225666   6.886   2.162   5.052  0.1749  2.1910 -0.6155
 8568TIP3   OH225667   5.569   5.923   1.668  1.0668  0.2543 -0.4579
 8568TIP3    H125668   5.500   5.892   1.728  1.5239  2.6015  1.4314
 8568TIP3    H225669   5.651   5.907   1.715  1.6722 -0.4306 -1.7058
 8569TIP3   OH225670   3.385   6.783   2.498  0.5397 -0.1925  0.4992
 8569TIP3    H125671   3.361   6.844   2.567  1.2496 -1.5841  2.0598
 8569TIP3    H225672   3.448   6.724   2.540  0.2504 -1.6748 -1.0615
 8570TIP3   OH225673   4.817   4.973   1.116 -0.0341 -0.5426 -0.3391
 8570TIP3    H125674   4.777   5.032   1.052 -1.6382 -0.7717  0.4215
 8570TIP3    H225675   4.750   4.908   1.135  0.6574 -0.8956  1.0525
 8571TIP3   OH225676   2.602   4.171   0.296 -0.4320 -0.4779 -0.0593
 8571TIP3    H125677   2.563   4.097   0.341 -0.3654 -1.3824 -1.4489
 8571TIP3    H225678   2.645   4.134   0.220  2.1924  0.6140  0.7719
 8572TIP3   OH225679   4.738   3.190   0.330  0.3832 -0.3637  0.0722
 8572TIP3    H125680   4.808   3.129   0.309  0.3553 -0.5503  0.5129
 8572TIP3    H225681   4.675   3.139   0.380  0.9943  0.3270  1.6131
 8573TIP3   OH225682   4.924   6.701   5.116 -0.0283 -0.2786  0.3902
 8573TIP3    H125683   4.880   6.626   5.075 -0.8015 -0.3310  1.2727
 8573TIP3    H225684   4.870   6.720   5.193  2.2469 -1.1960  2.3099
 8574TIP3   OH225685   6.557   5.041   2.159 -0.9153 -0.7348 -0.5535
 8574TIP3    H125686   6.505   5.040   2.079 -0.4693  0.1999 -0.8716
 8574TIP3    H225687   6.637   4.994   2.137 -0.9842 -0.8741 -0.5116
 8575TIP3   OH225688   6.517   5.680   0.940  0.6019 -0.3002  0.1331
 8575TIP3    H125689   6.514   5.765   0.896 -0.5675  0.7440  2.0836
 8575TIP3    H225690   6.599   5.681   0.988  0.6097 -0.2819  0.1192
 8576TIP3   OH225691   4.939   1.234   2.186 -0.4067 -0.0549 -0.0744
 8576TIP3    H125692   4.877   1.227   2.114  0.2024 -0.4435 -0.5766
 8576TIP3    H225693   4.936   1.326   2.211 -1.1417 -0.0615 -0.1263
 8577TIP3   OH225694   2.911   4.621   0.170  0.0605 -0.2287  0.2802
 8577TIP3    H125695   2.840   4.631   0.233  0.5120 -0.2001  0.7893
 8577TIP3    H225696   2.912   4.703   0.121  1.1604  0.6653  1.7475
 8578TIP3   OH225697   5.412   4.462   2.575 -0.3826  0.0267 -0.6093
 8578TIP3    H125698   5.412   4.531   2.508  0.0405 -1.1653 -1.8879
 8578TIP3    H225699   5.420   4.381   2.525 -1.6436 -1.0137  0.8223
 8579TIP3   OH225700   2.439   2.821   4.320 -0.0508 -0.4734 -1.0916
 8579TIP3    H125701   2.403   2.746   4.366  0.0730 -0.4222 -0.9113
 8579TIP3    H225702   2.508   2.785   4.264  3.9439 -0.0233  2.8729
 8580TIP3   OH225703   1.658   2.400   5.288  0.2006  0.1403 -0.5700
 8580TIP3    H125704   1.748   2.382   5.259 -0.2763 -0.5284 -1.7003
 8580TIP3    H225705   1.669   2.455   5.365  1.5744  0.4866 -0.9756
 8581TIP3   OH225706   5.388   3.859   0.149  0.0620 -0.0848 -0.3593
 8581TIP3    H125707   5.392   3.787   0.212  0.4122  1.2313  1.1713
 8581TIP3    H225708   5.306   3.904   0.170  1.6415  2.1788  1.2631
 8582TIP3   OH225709   5.480   6.141   1.436  0.2988  0.1539 -0.6125
 8582TIP3    H125710   5.544   6.073   1.459  1.2491  0.9605 -0.8003
 8582TIP3    H225711   5.441   6.110   1.354 -0.7717 -1.1469  0.3360
 8583TIP3   OH225712   5.389   6.079   3.010  0.3132  0.4639 -0.1861
 8583TIP3    H125713   5.304   6.077   2.965  0.0251 -2.2020  0.3241
 8583TIP3    H225714   5.451   6.044   2.947  0.3090 -1.1111  0.6144
 8584TIP3   OH225715   2.769   2.220   5.174 -0.3846  0.0277  0.4750
 8584TIP3    H125716   2.689   2.173   5.197 -0.2469  0.0406  0.9820
 8584TIP3    H225717   2.751   2.311   5.196 -1.2662  0.5379 -2.0514
 8585TIP3   OH225718   4.994   0.630   2.205 -0.0958  0.5090  0.1437
 8585TIP3    H125719   5.062   0.672   2.258 -0.4791  0.5576  0.5962
 8585TIP3    H225720   4.970   0.697   2.141 -1.1193  1.2136  1.2294
 8586TIP3   OH225721   1.887   0.893   2.259  0.3319  0.6030  0.3102
 8586TIP3    H125722   1.952   0.830   2.287  0.7763  1.3697  1.0489
 8586TIP3    H225723   1.938   0.966   2.223 -0.1905 -0.0631 -1.9743
 8587TIP3   OH225724   5.361   5.588   5.712  0.1815  0.1500  0.0874
 8587TIP3    H125725   5.338   5.662   5.768 -0.1586  0.1991 -0.1115
 8587TIP3    H225726   5.279   5.540   5.701  0.0175  0.6707 -1.1515
 8588TIP3   OH225727   0.357   4.071   0.678  0.7459 -0.4252 -0.3704
 8588TIP3    H125728   0.318   4.158   0.675  1.1011 -0.2942 -1.7179
 8588TIP3    H225729   0.415   4.073   0.754 -0.5220 -0.0632  0.6264
 8589TIP3   OH225730   5.705   1.216   4.043  0.4405 -0.2595  0.2311
 8589TIP3    H125731   5.697   1.240   4.136 -0.0712  1.3300 -0.1882
 8589TIP3    H225732   5.796   1.186   4.034  0.4652 -0.5441  1.2632
 8590TIP3   OH225733   6.553   0.051   3.671 -0.2911  0.3002  0.5780
 8590TIP3    H125734   6.524   0.089   3.588  0.9980  1.1044  0.4653
 8590TIP3    H225735   6.508   0.103   3.737 -2.3788 -1.1942  0.4395
 8591TIP3   OH225736   5.429   3.274   3.119  0.3822 -0.1308 -0.2276
 8591TIP3    H125737   5.434   3.310   3.208  1.1979 -1.2899  0.2163
 8591TIP3    H225738   5.470   3.188   3.125 -1.4186 -1.1339 -1.2784
 8592TIP3   OH225739   5.027   6.500   0.900 -0.2426 -0.1165 -0.2995
 8592TIP3    H125740   5.103   6.462   0.943 -0.1074  1.1683  0.6876
 8592TIP3    H225741   5.043   6.489   0.807 -0.6816 -3.2626 -0.0899
 8593TIP3   OH225742   5.205   5.511   4.666  0.1654  0.2886  0.0494
 8593TIP3    H125743   5.213   5.525   4.760  0.3421  0.1747  0.0507
 8593TIP3    H225744   5.288   5.471   4.640  0.6634  1.5558 -0.3912
 8594TIP3   OH225745   2.688   3.222   1.706  0.6622 -0.0251  0.6507
 8594TIP3    H125746   2.763   3.252   1.654  0.4828 -2.1894 -1.0114
 8594TIP3    H225747   2.673   3.132   1.676 -1.3959 -0.3196  2.3413
 8595TIP3   OH225748   4.805   5.881   2.369  0.6445  0.4359  0.1587
 8595TIP3    H125749   4.809   5.786   2.372 -2.5511  0.1137 -1.4864
 8595TIP3    H225750   4.739   5.904   2.435  1.9816  1.6343  1.1424
 8596TIP3   OH225751   3.478   2.597   3.670 -0.5433  0.3478  0.3938
 8596TIP3    H125752   3.521   2.512   3.658 -0.2086  0.5980 -0.2578
 8596TIP3    H225753   3.532   2.658   3.620  0.2688  1.2812  2.3031
 8597TIP3   OH225754   5.001   0.397   0.518  0.0274  0.0888  0.2672
 8597TIP3    H125755   4.921   0.346   0.504 -1.0997  1.9515 -0.5152
 8597TIP3    H225756   4.973   0.470   0.574  0.8149  1.5220 -1.1159
 8598TIP3   OH225757   3.490   5.826   2.079  0.5482 -0.0767 -0.2100
 8598TIP3    H125758   3.453   5.911   2.056  1.8444  0.6655  0.2976
 8598TIP3    H225759   3.449   5.803   2.161  1.0081  0.6245  0.2296
 8599TIP3   OH225760   6.200   0.218   4.360  0.3720  0.7980  0.2545
 8599TIP3    H125761   6.211   0.178   4.274  0.2759  0.6384  0.3175
 8599TIP3    H225762   6.110   0.251   4.360 -0.1642 -0.6011  0.8840
 8600TIP3   OH225763   0.301   6.562   1.577 -0.4235 -0.3494  0.2175
 8600TIP3    H125764   0.215   6.536   1.609 -0.8461 -0.1436 -0.7216
 8600TIP3    H225765   0.318   6.646   1.621 -0.5725 -0.5164  0.6039
 8601TIP3   OH225766   6.713   2.097   3.670 -1.3273 -0.2770 -0.1583
 8601TIP3    H125767   6.654   2.166   3.641 -2.1449 -0.9628 -0.1887
 8601TIP3    H225768   6.713   2.104   3.766 -0.6902  0.3330 -0.1986
 8602TIP3   OH225769   6.299   2.006   1.085  0.2590  0.0998  0.1698
 8602TIP3    H125770   6.304   2.067   1.158  1.8020 -0.3911  0.5265
 8602TIP3    H225771   6.377   1.951   1.095 -0.2092 -0.8434 -1.0859
 8603TIP3   OH225772   5.986   0.441   1.620 -0.0742  0.2066 -0.2014
 8603TIP3    H125773   6.028   0.524   1.597 -0.8889  0.5334 -0.5573
 8603TIP3    H225774   6.051   0.375   1.598  1.5885  0.8373  2.4170
 8604TIP3   OH225775   1.738   2.642   1.643 -0.2566  0.6416  0.3205
 8604TIP3    H125776   1.825   2.602   1.633 -0.5200  0.1217  0.0801
 8604TIP3    H225777   1.735   2.669   1.735 -0.4768 -0.8773  0.7927
 8605TIP3   OH225778   2.199   1.585   0.395 -0.0348 -0.4121  0.5280
 8605TIP3    H125779   2.170   1.677   0.400 -0.2255 -0.5078  1.5821
 8605TIP3    H225780   2.220   1.563   0.486  2.2041 -0.7312 -0.0137
 8606TIP3   OH225781   0.246   0.338   1.959  0.2852 -0.7238  0.1076
 8606TIP3    H125782   0.302   0.390   2.016 -1.8744  2.7071 -0.6231
 8606TIP3    H225783   0.187   0.292   2.019  1.0420 -0.9378  0.7094
 8607TIP3   OH225784   3.203   3.105   0.599 -0.1582  0.0568 -0.2225
 8607TIP3    H125785   3.153   3.050   0.539  0.0824  1.1030 -1.4227
 8607TIP3    H225786   3.294   3.077   0.588  0.1589  1.5341 -1.8680
 8608TIP3   OH225787   2.990   0.203   5.711 -0.3825  0.7802  0.2398
 8608TIP3    H125788   3.063   0.249   5.753 -1.1859  1.5027  0.8677
 8608TIP3    H225789   2.915   0.220   5.767 -0.9518 -0.3685 -0.1283
 8609TIP3   OH225790   3.096   5.901   1.596 -0.2449  0.2763 -0.2669
 8609TIP3    H125791   3.108   5.874   1.505 -0.1974  4.4188 -1.6909
 8609TIP3    H225792   3.021   5.849   1.626 -1.4748  0.0694 -3.3253
 8610TIP3   OH225793   1.809   5.550   5.014  0.4665  0.2519  0.5300
 8610TIP3    H125794   1.724   5.510   4.996 -0.2335  1.2201  1.5607
 8610TIP3    H225795   1.850   5.558   4.928 -0.2577 -0.6867  0.0703
 8611TIP3   OH225796   0.172   6.100   1.852  0.0449 -0.6625  0.1278
 8611TIP3    H125797   0.235   6.028   1.843  0.7578 -0.0719  0.3660
 8611TIP3    H225798   0.223   6.179   1.839 -0.2484 -0.0660  2.1483
 8612TIP3   OH225799   2.585   1.552   3.013  0.4618 -0.7562  0.0600
 8612TIP3    H125800   2.680   1.543   3.009  0.6787  1.4409 -1.4893
 8612TIP3    H225801   2.570   1.646   3.023 -1.5527 -1.0253  0.0358
 8613TIP3   OH225802   1.169   3.972   5.113  0.0896  0.1712 -0.1868
 8613TIP3    H125803   1.172   3.909   5.041  1.1660 -0.5258  0.4315
 8613TIP3    H225804   1.172   3.918   5.192  0.6690  0.9885  0.3659
 8614TIP3   OH225805   5.474   5.956   3.259  0.5827  0.1665  0.6733
 8614TIP3    H125806   5.469   6.033   3.316  0.5951  1.0222 -0.4483
 8614TIP3    H225807   5.440   5.986   3.175  1.0925 -0.9127  0.0589
 8615TIP3   OH225808   5.829   5.043   0.559  0.1671  0.0721  0.0422
 8615TIP3    H125809   5.892   5.023   0.627 -0.7670  0.2190  0.9732
 8615TIP3    H225810   5.809   4.958   0.520 -1.2059 -0.4240  1.6934
 8616TIP3   OH225811   2.165   5.995   0.791  0.0010  0.0673 -0.7466
 8616TIP3    H125812   2.153   5.925   0.856 -2.4479 -0.9854 -2.1989
 8616TIP3    H225813   2.096   6.058   0.811 -0.5770 -0.1148 -2.0968
 8617TIP3   OH225814   1.776   4.307   1.914 -0.3452  0.4740  0.2956
 8617TIP3    H125815   1.791   4.217   1.940  0.8070  0.1383 -1.3600
 8617TIP3    H225816   1.793   4.359   1.993  0.3007 -0.6528  0.9128
 8618TIP3   OH225817   5.432   1.028   5.738 -0.3346  0.0897  0.2035
 8618TIP3    H125818   5.486   1.023   5.816  1.9841  0.2009 -1.3016
 8618TIP3    H225819   5.393   1.116   5.741  1.0908  0.7397  0.4017
 8619TIP3   OH225820   0.191   3.340   4.415  0.1598 -0.5138  0.2861
 8619TIP3    H125821   0.184   3.278   4.341 -2.4014  1.2389 -1.0890
 8619TIP3    H225822   0.115   3.397   4.405  1.0733  1.3227  2.9446
 8620TIP3   OH225823   1.010   3.762   5.641  0.3996  0.1541  0.0940
 8620TIP3    H125824   0.931   3.797   5.682  0.3721  0.0795  0.1051
 8620TIP3    H225825   0.982   3.735   5.553  0.6147  0.9584 -0.2286
 8621TIP3   OH225826   6.454   3.602   3.443 -0.6268  0.2135 -0.2976
 8621TIP3    H125827   6.360   3.613   3.456 -0.3264  1.5641  1.1515
 8621TIP3    H225828   6.485   3.562   3.524 -0.2136 -2.4475 -1.6581
 8622TIP3   OH225829   0.883   0.696   5.532  0.0681  0.6323 -0.2737
 8622TIP3    H125830   0.941   0.630   5.493 -0.6095 -0.1578  0.0156
 8622TIP3    H225831   0.940   0.771   5.548  0.9815 -0.0530 -0.1695
 8623TIP3   OH225832   0.156   3.201   1.060  0.0230 -0.1217 -0.2633
 8623TIP3    H125833   0.125   3.243   0.980 -1.0883  0.5261  0.4789
 8623TIP3    H225834   0.174   3.273   1.120 -0.0744 -0.6227  0.3852
 8624TIP3   OH225835   0.964   4.362   0.375  0.0171 -0.3557  0.4197
 8624TIP3    H125836   0.968   4.354   0.470 -0.0482  0.1095  0.4650
 8624TIP3    H225837   1.054   4.377   0.347  0.3029 -2.1921  0.2323
 8625TIP3   OH225838   5.174   3.072   2.533  0.2220 -0.7063  0.4815
 8625TIP3    H125839   5.152   3.019   2.456 -1.4868 -0.6137  0.8554
 8625TIP3    H225840   5.269   3.067   2.540  0.4674 -0.3739 -1.8743
 8626TIP3   OH225841   0.193   3.150   5.695 -0.4620  0.3643 -0.3845
 8626TIP3    H125842   0.131   3.077   5.706 -0.1769 -0.2237 -2.2503
 8626TIP3    H225843   0.251   3.121   5.625  0.7828  1.6777  0.0644
 8627TIP3   OH225844   3.398   3.757   1.380  0.0170 -0.3574 -0.3194
 8627TIP3    H125845   3.445   3.779   1.300  0.0403 -1.7260 -0.6978
 8627TIP3    H225846   3.334   3.692   1.353 -1.6502  0.9300  0.3263
 8628TIP3   OH225847   1.092   0.918   2.832 -0.2829  0.1755  0.4223
 8628TIP3    H125848   1.172   0.896   2.784 -0.5652 -0.8304  0.3973
 8628TIP3    H225849   1.120   0.984   2.896  0.4740  0.1437  0.1340
 8629TIP3   OH225850   1.578   4.404   3.585  0.0879  0.1975 -0.0588
 8629TIP3    H125851   1.575   4.459   3.506  0.4497  0.7843  0.3282
 8629TIP3    H225852   1.636   4.451   3.644 -2.2225  1.1285  1.6039
 8630TIP3   OH225853   2.279   0.493   2.603  0.3603 -0.2033  0.5562
 8630TIP3    H125854   2.267   0.398   2.604  0.5618 -0.2318  0.2907
 8630TIP3    H225855   2.351   0.509   2.663  1.1750 -0.3401 -0.3646
 8631TIP3   OH225856   6.080   2.736   2.601  0.3235  0.4882  0.0777
 8631TIP3    H125857   6.044   2.649   2.620  1.0055  0.0809 -0.4664
 8631TIP3    H225858   6.142   2.751   2.673 -1.5823  1.6289  1.6030
 8632TIP3   OH225859   2.775   5.814   0.139  0.3623  0.4651 -0.0274
 8632TIP3    H125860   2.841   5.806   0.208  1.1971 -2.8006 -1.0404
 8632TIP3    H225861   2.694   5.785   0.181  0.3418  0.8110  0.1834
 8633TIP3   OH225862   6.491   2.123   0.623  0.1587  0.1377 -0.2275
 8633TIP3    H125863   6.459   2.204   0.662  1.8857  1.6371 -1.7358
 8633TIP3    H225864   6.438   2.054   0.664 -1.2118  1.9723  1.2751
 8634TIP3   OH225865   7.070   2.413   3.083  0.0791  0.3806  0.5615
 8634TIP3    H125866   7.054   2.393   3.175  0.7569  0.9994  0.8226
 8634TIP3    H225867   7.058   2.330   3.038  1.1730 -0.2540  1.4019
 8635TIP3   OH225868   4.419   1.259   3.665 -0.0841 -0.3527  0.3078
 8635TIP3    H125869   4.488   1.229   3.725  0.6360  0.1196 -0.2659
 8635TIP3    H225870   4.447   1.228   3.579 -0.3973  0.1577  0.0177
 8636TIP3   OH225871   4.451   1.534   4.211  0.0858 -0.3136 -0.1455
 8636TIP3    H125872   4.485   1.609   4.163 -2.9142  1.4021  0.1335
 8636TIP3    H225873   4.440   1.565   4.301  0.9395 -1.8690  0.5351
 8637TIP3   OH225874   5.214   0.391   1.334  0.1744  0.4382  0.1597
 8637TIP3    H125875   5.142   0.334   1.361 -0.4457  1.8259  1.6313
 8637TIP3    H225876   5.189   0.422   1.247  0.5095 -1.4238 -0.6629
 8638TIP3   OH225877   2.537   3.832   0.696 -0.4113  0.1845  0.2531
 8638TIP3    H125878   2.623   3.791   0.704 -0.2712  0.4808  0.2759
 8638TIP3    H225879   2.475   3.762   0.716 -0.1789 -0.0469  0.1761
 8639TIP3   OH225880   1.778   2.340   4.469 -0.4780 -0.5424 -0.9278
 8639TIP3    H125881   1.746   2.259   4.428  1.6768 -2.4189  0.8106
 8639TIP3    H225882   1.867   2.350   4.435 -0.2668  0.3823 -0.1500
 8640TIP3   OH225883   4.971   3.048   4.593 -0.0990 -0.6628  0.0962
 8640TIP3    H125884   4.908   3.120   4.593 -0.5312 -1.0292  0.8382
 8640TIP3    H225885   5.035   3.073   4.660 -0.2204 -0.9351  0.3175
 8641TIP3   OH225886   0.598   4.854   5.693  0.2608  0.4664  0.2073
 8641TIP3    H125887   0.649   4.849   5.613  0.1180  0.4730  0.1149
 8641TIP3    H225888   0.661   4.842   5.763  0.3418  0.1702  0.0826
 8642TIP3   OH225889   7.191   1.613   3.579 -0.3910 -0.0235  0.8097
 8642TIP3    H125890   7.173   1.671   3.653 -1.2771  0.3110  0.3542
 8642TIP3    H225891   7.222   1.672   3.510  1.3067 -0.4495  1.1898
 8643TIP3   OH225892   1.476   2.293   0.835  0.3634  0.0105 -0.1370
 8643TIP3    H125893   1.389   2.272   0.800  0.2580  0.2210 -0.0000
 8643TIP3    H225894   1.494   2.224   0.898 -0.8801  1.4359  1.8791
 8644TIP3   OH225895   5.965   4.948   1.908  0.0530 -0.5095 -0.6835
 8644TIP3    H125896   5.975   4.879   1.974  2.0174 -0.7339 -1.1431
 8644TIP3    H225897   5.969   5.030   1.958 -1.0295 -0.6875 -0.2762
 8645TIP3   OH225898   5.153   6.786   3.548 -0.1363 -0.1682 -0.1139
 8645TIP3    H125899   5.124   6.708   3.499 -0.0442 -0.2006 -0.1174
 8645TIP3    H225900   5.174   6.754   3.635 -2.2258  0.2180  0.5771
 8646TIP3   OH225901   0.630   4.396   5.886  0.4671  0.0649  0.4246
 8646TIP3    H125902   0.708   4.448   5.872  0.0396  0.5227 -0.3289
 8646TIP3    H225903   0.572   4.419   5.813 -0.2668 -0.4497  0.8292
 8647TIP3   OH225904   2.972   1.747   2.307 -0.4520  0.3646  0.5764
 8647TIP3    H125905   2.949   1.665   2.350  1.0193 -0.6190 -0.3761
 8647TIP3    H225906   2.937   1.738   2.218  0.1599  0.5189  0.3110
 8648TIP3   OH225907   5.816   4.268   5.604  0.4046 -0.3160 -0.3215
 8648TIP3    H125908   5.762   4.235   5.676  0.3141 -1.5793 -0.9335
 8648TIP3    H225909   5.784   4.356   5.588 -0.4656 -0.4985  0.3110
 8649TIP3   OH225910   5.503   2.709   4.626  0.0297  0.4451  0.0940
 8649TIP3    H125911   5.581   2.677   4.579 -0.7431 -3.0136  0.8844
 8649TIP3    H225912   5.451   2.751   4.558  0.5657 -1.2501 -1.4794
 8650TIP3   OH225913   5.579   3.501   0.452  0.0502 -0.2299 -0.0232
 8650TIP3    H125914   5.659   3.456   0.480 -1.7221 -2.1468  2.3501
 8650TIP3    H225915   5.510   3.463   0.505 -2.2026  2.7667 -0.5422
 8651TIP3   OH225916   6.401   3.189   0.852  0.4085  0.3501  0.3805
 8651TIP3    H125917   6.449   3.266   0.882  0.6323  0.6009 -0.5972
 8651TIP3    H225918   6.324   3.186   0.908  0.8822  0.7236  1.0686
 8652TIP3   OH225919   4.968   4.129   4.081  0.1604 -0.6496 -0.4146
 8652TIP3    H125920   4.968   4.138   4.177  1.4576 -0.0424 -0.4630
 8652TIP3    H225921   4.904   4.194   4.051  2.9486  2.4193 -0.1914
 8653TIP3   OH225922   3.016   3.946   3.109  0.4337 -0.2690 -0.0063
 8653TIP3    H125923   2.953   3.879   3.083  1.5275 -1.2569 -0.1825
 8653TIP3    H225924   3.016   3.943   3.205  1.3361 -1.3836 -0.0150
 8654TIP3   OH225925   1.230   2.509   2.480 -0.3035 -0.2012 -0.1768
 8654TIP3    H125926   1.157   2.566   2.456 -1.9749 -3.3801 -3.9027
 8654TIP3    H225927   1.301   2.535   2.422 -0.0877 -0.1287  0.1174
 8655TIP3   OH225928   3.543   5.220   0.075 -0.0667 -0.1389  0.5830
 8655TIP3    H125929   3.482   5.149   0.054 -0.4856  0.2408  0.4841
 8655TIP3    H225930   3.549   5.270  -0.007 -2.1443  1.6835  1.4417
 8656TIP3   OH225931   5.109   5.701   5.526  0.2972 -0.3585 -0.2796
 8656TIP3    H125932   5.172   5.639   5.489 -0.3384  0.2469 -2.5400
 8656TIP3    H225933   5.135   5.786   5.490  0.6662  0.6031  2.1120
 8657TIP3   OH225934   1.374   1.100   4.849  0.4588  0.4215  0.3438
 8657TIP3    H125935   1.420   1.024   4.885  1.9505  1.6495  1.1470
 8657TIP3    H225936   1.332   1.067   4.769 -0.1244 -1.5605  1.4043
 8658TIP3   OH225937   5.798   1.002   2.307  0.4099 -0.3477 -0.2292
 8658TIP3    H125938   5.854   0.948   2.364  1.6470  0.5394 -0.5492
 8658TIP3    H225939   5.763   1.069   2.366  0.1046 -0.5923 -0.1311
 8659TIP3   OH225940   3.865   4.929   1.179  0.3514 -0.6427  0.3672
 8659TIP3    H125941   3.908   4.922   1.264  1.9428  3.2035  0.0737
 8659TIP3    H225942   3.780   4.970   1.199  0.6861  0.1731  0.1549
 8660TIP3   OH225943   3.177   2.335   4.724 -0.1272 -0.2208 -0.1376
 8660TIP3    H125944   3.249   2.358   4.782 -1.8478  1.5292  1.4471
 8660TIP3    H225945   3.160   2.242   4.743  0.7918 -0.2801  0.4790
 8661TIP3   OH225946   2.147   2.229   4.910  0.2358 -0.8199 -0.4181
 8661TIP3    H125947   2.159   2.257   4.820 -1.2043 -1.3337 -0.7916
 8661TIP3    H225948   2.138   2.310   4.960  1.2019 -0.5300 -0.6807
 8662TIP3   OH225949   0.639   2.710   0.479  0.1730 -0.2532 -0.8844
 8662TIP3    H125950   0.594   2.744   0.402  0.7694 -1.1566 -1.6532
 8662TIP3    H225951   0.589   2.632   0.504 -0.3187  0.3203 -0.0345
 8663TIP3   OH225952   4.331   6.353   4.208 -0.1722  0.2764 -0.0642
 8663TIP3    H125953   4.400   6.313   4.156 -0.5415  0.0934 -0.4265
 8663TIP3    H225954   4.376   6.405   4.274  0.2977  1.3337 -1.1978
 8664TIP3   OH225955   4.746   6.605   4.378 -0.2705  0.4234 -0.1157
 8664TIP3    H125956   4.725   6.568   4.292 -0.1047 -0.9906  0.4176
 8664TIP3    H225957   4.828   6.653   4.363  0.4281 -0.8351 -0.5245
 8665TIP3   OH225958   6.535   4.589   3.289  0.6026  0.0445  0.2250
 8665TIP3    H125959   6.535   4.532   3.212  0.5848  0.3258  0.0164
 8665TIP3    H225960   6.578   4.669   3.260  0.4205  0.2270  0.4549
 8666TIP3   OH225961   4.870   4.734   3.347  0.0211 -0.1881 -0.2401
 8666TIP3    H125962   4.884   4.757   3.255 -1.0060 -0.6553 -0.5326
 8666TIP3    H225963   4.887   4.640   3.352 -0.1690 -0.2133 -0.0169
 8667TIP3   OH225964   1.517   1.124   3.183  0.1213  0.3596 -0.0722
 8667TIP3    H125965   1.524   1.139   3.277 -0.7068  2.6829 -0.3096
 8667TIP3    H225966   1.458   1.193   3.152  0.4839 -0.2494 -2.3225
 8668TIP3   OH225967   3.007   3.932   2.439 -0.1596 -0.2116 -0.0614
 8668TIP3    H125968   3.005   3.959   2.347 -1.1061  0.0364  0.0181
 8668TIP3    H225969   2.960   4.001   2.486  2.8870  1.2320  1.0874
 8669TIP3   OH225970   3.740   6.748   0.095 -0.3755 -1.0322  0.3125
 8669TIP3    H125971   3.713   6.674   0.149 -0.9613  1.7520  4.2959
 8669TIP3    H225972   3.698   6.824   0.136  2.5091  1.9099 -1.6458
 8670TIP3   OH225973   2.695   3.930   1.686 -0.2179 -0.5689 -0.6689
 8670TIP3    H125974   2.695   3.836   1.704 -0.6046 -0.6607 -1.1194
 8670TIP3    H225975   2.621   3.965   1.735 -1.1023 -0.7760 -1.8064
 8671TIP3   OH225976   2.126   2.823   3.699  0.3972 -0.4000  0.5912
 8671TIP3    H125977   2.088   2.736   3.698  0.3384 -0.3899  1.5499
 8671TIP3    H225978   2.078   2.870   3.767  0.2196  0.4806 -0.1204
 8672TIP3   OH225979   6.376   4.201   4.006  0.3066 -0.1187  0.6007
 8672TIP3    H125980   6.317   4.269   3.974  0.2468 -1.2597 -1.8665
 8672TIP3    H225981   6.320   4.126   4.024  0.5718 -0.0340  1.9360
 8673TIP3   OH225982   1.659   1.692   4.277  0.0680  0.4463  0.5793
 8673TIP3    H125983   1.733   1.718   4.332  1.0527 -2.3947  0.7425
 8673TIP3    H225984   1.697   1.679   4.190 -0.5122  0.1948  0.3577
 8674TIP3   OH225985   4.962   5.261   3.461 -0.1259  0.5997  0.4359
 8674TIP3    H125986   4.867   5.250   3.472 -0.0315 -0.5697  0.1973
 8674TIP3    H225987   5.000   5.199   3.523  0.4639 -0.3742 -0.8721
 8675TIP3   OH225988   7.145   4.975   2.678 -0.4536  0.3733  0.1780
 8675TIP3    H125989   7.075   5.020   2.725 -1.2451 -0.5185 -0.1207
 8675TIP3    H225990   7.161   5.029   2.601 -1.3421  0.1932 -0.1394
 8676TIP3   OH225991   0.495   1.822   2.812  0.4545  0.8760  0.2144
 8676TIP3    H125992   0.496   1.813   2.717  2.2568 -2.9595  0.4316
 8676TIP3    H225993   0.404   1.805   2.837  0.2032  0.7517 -0.7511
 8677TIP3   OH225994   2.715   4.310   4.058 -0.4879  0.5050 -0.4503
 8677TIP3    H125995   2.738   4.239   4.118  0.2232 -0.9726 -2.3567
 8677TIP3    H225996   2.628   4.287   4.026 -1.0686  1.5388  0.3163
 8678TIP3   OH225997   3.452   0.774   0.150  0.2049 -0.5927 -0.7173
 8678TIP3    H125998   3.408   0.690   0.135  0.1992 -0.9196  0.9458
 8678TIP3    H225999   3.510   0.757   0.224 -3.1574  1.9090  2.9468
 8679TIP3   OH226000   1.018   5.598   2.368 -0.1279  0.0546 -0.0658
 8679TIP3    H126001   0.972   5.615   2.451 -0.3952 -0.9789  0.0138
 8679TIP3    H226002   1.110   5.615   2.388 -0.2890  0.6696  0.1929
 8680TIP3   OH226003   2.975   5.626   1.171 -0.1031  0.1792  0.4451
 8680TIP3    H126004   3.027   5.583   1.103 -1.0059 -0.3024  0.0457
 8680TIP3    H226005   2.885   5.619   1.140 -0.5096  0.1043  1.6139
 8681TIP3   OH226006   2.339   5.678   5.184  0.3970  0.0713 -0.5481
 8681TIP3    H126007   2.373   5.698   5.271 -1.0499 -1.7940  0.5354
 8681TIP3    H226008   2.254   5.722   5.180  1.1946  1.6009 -1.7589
 8682TIP3   OH226009   3.126   5.294   5.504  0.5079 -0.1650 -0.2251
 8682TIP3    H126010   3.080   5.377   5.519 -0.5733 -0.2762 -2.5678
 8682TIP3    H226011   3.111   5.244   5.584 -0.6390  1.0850  0.3854
 8683TIP3   OH226012   3.662   3.790   3.167  0.5733 -0.2770  0.0453
 8683TIP3    H126013   3.698   3.706   3.138 -1.8209 -0.4631 -2.9538
 8683TIP3    H226014   3.582   3.767   3.213  0.0650  0.3031 -0.5182
 8684TIP3   OH226015   4.493   0.482   4.020 -0.1236 -0.3154 -0.3913
 8684TIP3    H126016   4.400   0.497   4.034  0.4181  2.0630  1.2925
 8684TIP3    H226017   4.533   0.568   4.027  2.5479 -1.5512  2.3180
 8685TIP3   OH226018   4.931   4.969   1.850 -0.5228 -0.5782 -0.8031
 8685TIP3    H126019   4.979   4.961   1.768  1.0916 -1.7679  0.1875
 8685TIP3    H226020   4.870   4.895   1.850 -1.2176 -0.0113 -1.3477
 8686TIP3   OH226021   7.091   4.346   0.401 -0.1957 -0.7981  0.2253
 8686TIP3    H126022   6.996   4.354   0.393 -0.2115 -1.8559 -0.9324
 8686TIP3    H226023   7.103   4.274   0.464 -0.1159  0.6396  1.9340
 8687TIP3   OH226024   0.760   4.737   0.603 -0.7914  0.3600 -0.1534
 8687TIP3    H126025   0.835   4.785   0.566  1.9480 -1.6878  2.2431
 8687TIP3    H226026   0.741   4.670   0.538 -0.8434  1.1582 -0.9828
 8688TIP3   OH226027   6.284   1.010   0.984 -0.1965  0.0187  0.2317
 8688TIP3    H126028   6.274   0.946   0.914 -0.8686  0.8748 -0.4856
 8688TIP3    H226029   6.217   1.076   0.966  1.0331  1.3839  0.4413
 8689TIP3   OH226030   1.175   5.169   1.522 -0.0753  0.1280 -0.0828
 8689TIP3    H126031   1.155   5.154   1.429 -0.2381  0.0206 -0.0297
 8689TIP3    H226032   1.232   5.245   1.521 -1.8598  1.5504 -0.1318
 8690TIP3   OH226033   6.622   2.685   0.948 -0.4664  0.3928  0.3766
 8690TIP3    H126034   6.555   2.732   0.999  0.8325  2.3658  0.3689
 8690TIP3    H226035   6.678   2.753   0.913  0.8987 -1.1461 -0.5921
 8691TIP3   OH226036   1.878   4.642   0.827 -0.6480  0.2684  0.0917
 8691TIP3    H126037   1.911   4.607   0.909 -1.5651  0.6887  0.6593
 8691TIP3    H226038   1.801   4.588   0.807 -1.0649  0.8524  0.0866
 8692TIP3   OH226039   4.231   3.320   2.066 -0.0488  0.3035 -0.1537
 8692TIP3    H126040   4.295   3.385   2.092 -0.7855  0.1536  2.2639
 8692TIP3    H226041   4.146   3.363   2.076 -0.5791 -1.0551  1.9067
 8693TIP3   OH226042   0.141   6.298   2.805  0.0142 -0.5654  0.6549
 8693TIP3    H126043   0.219   6.247   2.825  0.4167 -0.1262  0.2111
 8693TIP3    H226044   0.145   6.372   2.866  0.3808 -0.1049  0.0826
 8694TIP3   OH226045   0.440   5.138   3.051  0.3591 -0.2107 -0.0294
 8694TIP3    H126046   0.431   5.052   3.009  0.1212 -1.1443  1.7998
 8694TIP3    H226047   0.360   5.149   3.101  1.0592  0.3435  1.0125
 8695TIP3   OH226048   3.352   4.103   2.398  0.1669 -0.4849 -0.1835
 8695TIP3    H126049   3.260   4.128   2.405  0.0550 -0.9651  0.0676
 8695TIP3    H226050   3.396   4.183   2.368 -0.3586 -0.3100 -0.4977
 8696TIP3   OH226051   4.833   0.552   1.066  0.6279  0.0420  0.2198
 8696TIP3    H126052   4.800   0.462   1.073 -1.3291  0.6855 -0.0937
 8696TIP3    H226053   4.927   0.542   1.050  0.6894 -1.9086  1.4718
 8697TIP3   OH226054   2.127   5.834   1.100  0.6797  0.1082 -0.0819
 8697TIP3    H126055   2.144   5.794   1.015 -1.1423  1.4344 -1.1404
 8697TIP3    H226056   2.175   5.916   1.099  1.4764 -0.3360  0.6086
 8698TIP3   OH226057   1.415   2.857   3.785  0.2159 -0.7449 -0.0708
 8698TIP3    H126058   1.367   2.817   3.713  0.0119 -1.1579  0.2894
 8698TIP3    H226059   1.349   2.904   3.835  0.2596 -0.9426  0.1740
 8699TIP3   OH226060   2.766   4.678   2.039  0.1998 -0.5274  0.6137
 8699TIP3    H126061   2.722   4.596   2.017 -0.9462 -0.3153  1.9638
 8699TIP3    H226062   2.752   4.734   1.962 -0.0264 -1.1970  0.1632
 8700TIP3   OH226063   4.634   5.953   3.289 -0.2904  0.2549 -0.2841
 8700TIP3    H126064   4.578   5.876   3.295 -0.3075  0.2912 -0.0085
 8700TIP3    H226065   4.592   6.019   3.343  0.1701  0.1885  0.1587
 8701TIP3   OH226066   2.490   3.311   3.946 -0.0422 -0.1806 -0.1105
 8701TIP3    H126067   2.527   3.385   3.897 -1.2421  1.0024  0.7245
 8701TIP3    H226068   2.562   3.281   4.001  0.4481  0.3760 -0.4306
 8702TIP3   OH226069   2.875   4.013   4.365  0.6326 -0.2677  0.4324
 8702TIP3    H126070   2.833   3.985   4.447  0.2893 -0.2595  0.2606
 8702TIP3    H226071   2.968   4.020   4.387  0.3975  0.9304  1.1708
 8703TIP3   OH226072   7.060   6.421   5.462  0.1958  0.2330 -0.2899
 8703TIP3    H126073   6.969   6.391   5.457 -0.7309  2.8277 -0.4800
 8703TIP3    H226074   7.076   6.434   5.556  0.6514 -0.8987 -0.1934
 8704TIP3   OH226075   2.258   5.544   3.019  0.1240  0.6069  0.1944
 8704TIP3    H126076   2.234   5.521   2.930  1.3614  1.1888 -0.3151
 8704TIP3    H226077   2.186   5.512   3.073 -0.9712  0.8532 -1.0799
 8705TIP3   OH226078   6.437   0.852   3.396 -0.2204 -0.2064 -0.4825
 8705TIP3    H126079   6.375   0.853   3.322 -2.1913  0.3214  1.0735
 8705TIP3    H226080   6.430   0.764   3.432  0.5376 -0.3792 -0.7411
 8706TIP3   OH226081   2.802   4.973   5.181 -0.2064  0.6344 -0.0919
 8706TIP3    H126082   2.871   4.915   5.149 -0.3706  0.9779 -1.0876
 8706TIP3    H226083   2.847   5.031   5.243 -0.1365 -0.8539  1.3348
 8707TIP3   OH226084   3.269   5.501   2.496 -0.0491  0.1368  0.4357
 8707TIP3    H126085   3.264   5.505   2.592  0.7531 -0.0330  0.4912
 8707TIP3    H226086   3.329   5.571   2.472 -0.6812  0.5436  0.0076
 8708TIP3   OH226087   4.904   5.605   1.543  0.1205  0.2901  0.4785
 8708TIP3    H126088   4.929   5.518   1.511 -1.9479  0.0899 -0.7590
 8708TIP3    H226089   4.809   5.601   1.550 -0.1135  2.7903 -0.6262
 8709TIP3   OH226090   6.306   3.638   2.504 -0.8589 -0.2182  0.1203
 8709TIP3    H126091   6.284   3.654   2.596 -2.8246  0.6507 -0.4482
 8709TIP3    H226092   6.370   3.566   2.507 -0.6579 -0.0192  2.1621
 8710TIP3   OH226093   0.720   5.796   4.160  0.0716  0.4122 -0.1070
 8710TIP3    H126094   0.716   5.760   4.249  0.4526  0.6919  0.0244
 8710TIP3    H226095   0.646   5.755   4.115  0.1249 -0.0588  0.2188
 8711TIP3   OH226096   1.818   2.632   1.354 -0.0563 -0.1252 -0.5781
 8711TIP3    H126097   1.735   2.658   1.392  0.1552 -0.2660 -0.0112
 8711TIP3    H226098   1.869   2.597   1.427  0.4989 -0.0482 -0.9164
 8712TIP3   OH226099   0.699   2.209   3.716  0.2216  0.1877  0.1803
 8712TIP3    H126100   0.714   2.182   3.807  0.5694  0.5815  0.2413
 8712TIP3    H226101   0.678   2.302   3.722  1.0696  0.4119 -0.2160
 8713TIP3   OH226102   1.885   5.504   0.851 -0.0002 -0.0677  0.4577
 8713TIP3    H126103   1.929   5.469   0.928  0.7316  1.1356  0.6162
 8713TIP3    H226104   1.846   5.586   0.881  0.7907  0.7212 -0.5685
 8714TIP3   OH226105   2.786   1.964   4.181  0.5008 -0.2198 -0.4138
 8714TIP3    H126106   2.773   1.960   4.276  2.3428 -1.0880 -0.1662
 8714TIP3    H226107   2.826   2.050   4.166  1.2945 -0.5645 -0.2613
 8715TIP3   OH226108   5.178   5.781   2.029  0.7805  0.0956 -0.6341
 8715TIP3    H126109   5.114   5.852   2.020 -0.4993 -0.4603  2.7048
 8715TIP3    H226110   5.143   5.712   1.972 -1.7107 -0.1764  1.0496
 8716TIP3   OH226111   7.060   2.369   1.701  0.0121  0.1370  0.7635
 8716TIP3    H126112   7.030   2.454   1.670  3.3739  1.0300 -0.4194
 8716TIP3    H226113   7.003   2.306   1.658 -0.8704  1.6797 -0.4217
 8717TIP3   OH226114   2.667   1.985   3.142  0.1636 -0.4701 -0.4353
 8717TIP3    H126115   2.704   1.983   3.230 -1.5036 -0.5633  0.2969
 8717TIP3    H226116   2.625   1.899   3.131  0.4084 -0.4811 -1.3437
 8718TIP3   OH226117   6.723   0.281   1.486 -0.5896 -0.2727 -0.1341
 8718TIP3    H126118   6.779   0.265   1.562 -0.4753 -0.1569 -0.1954
 8718TIP3    H226119   6.707   0.375   1.487 -0.6700 -0.2855 -0.1964
 8719TIP3   OH226120   5.683   5.341   5.493 -0.3824 -0.5246 -0.4723
 8719TIP3    H126121   5.775   5.317   5.501 -0.8103 -1.6646  2.1340
 8719TIP3    H226122   5.681   5.436   5.502  0.5789 -0.3888 -1.5062
 8720TIP3   OH226123   6.157   1.492   2.644 -0.7753 -0.1552  0.2247
 8720TIP3    H126124   6.247   1.461   2.649 -0.6531  0.3370  1.4160
 8720TIP3    H226125   6.114   1.431   2.585  0.4736 -0.0421 -0.8497
 8721TIP3   OH226126   3.069   0.699   5.285 -0.1735 -0.2218 -0.1151
 8721TIP3    H126127   2.973   0.710   5.283 -0.0170  1.5026  0.5193
 8721TIP3    H226128   3.085   0.651   5.366 -0.4755 -0.1284  0.0042
 8722TIP3   OH226129   6.217   4.771   5.865  0.3388  0.1086  0.3778
 8722TIP3    H126130   6.216   4.865   5.881 -0.4617  0.0764  0.6002
 8722TIP3    H226131   6.132   4.753   5.825  0.0650 -0.6647  1.2552
 8723TIP3   OH226132   2.004   2.281   0.408  0.0418 -0.3256 -0.5211
 8723TIP3    H126133   2.038   2.368   0.431 -0.2177 -0.5743  0.9139
 8723TIP3    H226134   1.940   2.298   0.339 -1.3493  0.8668  0.9809
 8724TIP3   OH226135   6.243   4.571   4.342 -0.0430  0.1618  0.0451
 8724TIP3    H126136   6.238   4.639   4.275  0.7678  0.5973  0.4143
 8724TIP3    H226137   6.270   4.617   4.422  2.2169 -0.8061 -0.0734
 8725TIP3   OH226138   3.041   5.719   0.255 -0.3957  0.2328  0.1206
 8725TIP3    H126139   3.072   5.807   0.279 -0.8884  0.7689 -1.1048
 8725TIP3    H226140   3.093   5.696   0.178 -0.2843 -0.5473  0.4285
 8726TIP3   OH226141   3.053   3.598   2.971 -0.6920 -0.0157 -0.1208
 8726TIP3    H126142   3.110   3.621   2.898  0.4219 -2.5497 -0.1897
 8726TIP3    H226143   2.983   3.662   2.970  0.0918  0.8711 -2.5014
 8727TIP3   OH226144   1.016   0.083   1.981  0.1793  0.2760 -0.1509
 8727TIP3    H126145   1.078   0.138   1.934  1.5840 -0.0349  1.2601
 8727TIP3    H226146   1.051  -0.006   1.972 -0.6341 -0.0545 -0.1878
 8728TIP3   OH226147   3.695   0.173   1.826  0.2829 -0.0091  0.3655
 8728TIP3    H126148   3.660   0.261   1.843  1.0276  0.3582  0.0235
 8728TIP3    H226149   3.788   0.187   1.809  0.0781 -0.6445 -1.5063
 8729TIP3   OH226150   0.371   1.602   5.192  0.1691  0.0190 -0.2063
 8729TIP3    H126151   0.319   1.674   5.227  0.2427 -0.2813  0.5429
 8729TIP3    H226152   0.443   1.644   5.145  0.4702  0.4407  0.6132
 8730TIP3   OH226153   5.099   5.592   0.078 -0.4759  0.0794  0.3678
 8730TIP3    H126154   5.037   5.581   0.006  0.3199  2.0507 -0.6760
 8730TIP3    H226155   5.125   5.502   0.101 -0.0211 -0.6099 -2.4735
 8731TIP3   OH226156   1.099   1.877   5.146  0.1303 -0.2040 -0.5209
 8731TIP3    H126157   1.106   1.800   5.203  1.9195  0.5705  0.4136
 8731TIP3    H226158   1.183   1.880   5.100  0.5737  1.7719  0.3078
 8732TIP3   OH226159   2.816   2.213   2.686  0.2260 -0.4396 -0.5782
 8732TIP3    H126160   2.736   2.261   2.708  0.4156 -0.3132 -0.1562
 8732TIP3    H226161   2.870   2.276   2.639  1.1761  0.3150  1.4004
 8733TIP3   OH226162   4.269   4.360   3.366  0.2757  0.1756 -0.4514
 8733TIP3    H126163   4.250   4.365   3.273  0.7228 -1.8108 -0.6915
 8733TIP3    H226164   4.354   4.318   3.371 -0.6795 -1.7466  0.8824
 8734TIP3   OH226165   3.558   3.541   1.678  0.0772  0.1072  0.1108
 8734TIP3    H126166   3.575   3.490   1.757 -0.8535  0.6155  0.6541
 8734TIP3    H226167   3.553   3.476   1.608  0.5032 -0.3845  0.5235
 8735TIP3   OH226168   2.340   0.425   1.431 -0.2006  0.0763  0.0835
 8735TIP3    H126169   2.317   0.498   1.488 -1.1855  0.0617 -0.2836
 8735TIP3    H226170   2.355   0.466   1.345 -0.3811 -0.1066 -0.0362
 8736TIP3   OH226171   3.433   2.536   5.037  0.0972  0.3983 -0.4330
 8736TIP3    H126172   3.495   2.600   5.001  1.3618 -1.5237 -1.9051
 8736TIP3    H226173   3.462   2.524   5.127  2.4115 -0.9291 -1.2501
 8737TIP3   OH226174   4.950   1.234   4.478 -0.5327  0.3661  0.4199
 8737TIP3    H126175   4.982   1.287   4.405 -1.2421  0.7834  0.3954
 8737TIP3    H226176   5.012   1.162   4.485  0.6862  1.4057  0.7137
 8738TIP3   OH226177   5.908   0.586   5.107 -0.0579  0.1651  0.0492
 8738TIP3    H126178   5.851   0.663   5.107  2.0098  1.8050 -1.7215
 8738TIP3    H226179   5.871   0.529   5.175 -1.3326  2.9526  1.8579
 8739TIP3   OH226180   3.791   0.118   3.837  0.0230 -0.2326  0.1227
 8739TIP3    H126181   3.858   0.065   3.795  0.4965 -0.9442  1.7044
 8739TIP3    H226182   3.735   0.055   3.882 -0.6134  0.4797  0.3548
 8740TIP3   OH226183   6.597   5.251   2.944 -0.6407  0.4292  0.2391
 8740TIP3    H126184   6.664   5.297   2.893 -1.0676  1.7714  0.8524
 8740TIP3    H226185   6.643   5.217   3.020 -0.6639  1.4289  0.7072
 8741TIP3   OH226186   2.797   4.552   3.259 -0.3412  0.4487  0.1341
 8741TIP3    H126187   2.884   4.518   3.281 -1.0654 -0.8265  1.1977
 8741TIP3    H226188   2.814   4.621   3.195  1.5193  0.8723  1.0035
 8742TIP3   OH226189   0.590   0.476   2.750 -0.2510 -0.6952 -0.0936
 8742TIP3    H126190   0.568   0.422   2.674  1.7962  0.5045 -1.6292
 8742TIP3    H226191   0.644   0.419   2.805  2.1179 -0.3011 -1.8268
 8743TIP3   OH226192   1.749   3.512   2.337  0.9357 -0.3605  0.1517
 8743TIP3    H126193   1.664   3.544   2.369  0.8592 -1.1762  0.7944
 8743TIP3    H226194   1.786   3.587   2.291 -0.7041 -0.3642 -1.2819
 8744TIP3   OH226195   4.521   4.669   0.502 -0.2270 -0.3643  0.9153
 8744TIP3    H126196   4.569   4.719   0.568 -0.3375  0.7882  0.1514
 8744TIP3    H226197   4.542   4.577   0.521  0.4773 -0.0023  1.9643
 8745TIP3   OH226198   4.347   6.125   3.819 -0.2224 -0.1613 -0.4709
 8745TIP3    H126199   4.308   6.048   3.860  1.9475 -0.1932  1.7789
 8745TIP3    H226200   4.272   6.183   3.801 -1.5136 -0.7037  2.4870
 8746TIP3   OH226201   1.576   1.772   4.969  0.2280 -0.0799 -0.1958
 8746TIP3    H126202   1.481   1.763   4.961  0.2233 -1.1481  0.6953
 8746TIP3    H226203   1.611   1.709   4.907  0.2259 -4.3079  3.5658
 8747TIP3   OH226204   3.468   3.899   5.712  0.1283 -0.5528 -0.0806
 8747TIP3    H126205   3.390   3.914   5.764  0.3322 -1.5537  0.5383
 8747TIP3    H226206   3.457   3.956   5.636 -1.4993 -1.1160 -0.3148
 8748TIP3   OH226207   6.354   6.473   2.746 -0.2462  0.0738 -0.2406
 8748TIP3    H126208   6.402   6.391   2.733 -0.8448 -0.3650  0.2321
 8748TIP3    H226209   6.419   6.542   2.730  0.7836 -0.4982  1.2583
 8749TIP3   OH226210   4.374   2.283   2.945  0.3646 -0.1210 -0.8417
 8749TIP3    H126211   4.446   2.301   3.005  0.9286  0.2136 -1.6034
 8749TIP3    H226212   4.386   2.345   2.873 -0.0202 -0.8132 -1.5314
 8750TIP3   OH226213   3.697   5.062   0.609 -0.0279 -0.2376  0.1168
 8750TIP3    H126214   3.739   5.112   0.679 -2.2629  0.3553  1.1360
 8750TIP3    H226215   3.695   4.972   0.642  0.0704 -0.2017  0.2209
 8751TIP3   OH226216   0.243   2.193   3.471  0.2071  0.6934 -0.2700
 8751TIP3    H126217   0.207   2.281   3.461 -0.8989  0.4458  1.2584
 8751TIP3    H226218   0.327   2.197   3.424 -0.6133  2.0203 -1.7484
 8752TIP3   OH226219   0.852   4.935   4.594  0.1535 -0.1861  0.0714
 8752TIP3    H126220   0.894   4.950   4.679  0.2836  1.5395 -0.2683
 8752TIP3    H226221   0.894   4.855   4.561  0.3361 -0.7008  1.4627
 8753TIP3   OH226222   3.621   1.953   2.891 -0.3349 -0.0771 -0.2505
 8753TIP3    H126223   3.564   1.888   2.850  0.2130 -1.5035  1.1075
 8753TIP3    H226224   3.573   1.981   2.969  0.8776 -1.6336  1.1655
 8754TIP3   OH226225   3.934   2.667   5.626  0.1920  0.0410 -0.1613
 8754TIP3    H126226   3.877   2.591   5.616 -0.5157  0.5347  0.0584
 8754TIP3    H226227   3.976   2.677   5.541 -1.0165  0.4387 -0.7199
 8755TIP3   OH226228   2.718   2.297   3.760 -0.4303  0.1040  0.8140
 8755TIP3    H126229   2.788   2.234   3.778  0.1483  0.5325  0.1182
 8755TIP3    H226230   2.721   2.310   3.665 -1.2006  0.4349  0.8230
 8756TIP3   OH226231   3.161   2.007   3.986  0.1963 -0.1664  0.1765
 8756TIP3    H126232   3.205   1.954   3.919 -0.8474 -2.7878  1.4128
 8756TIP3    H226233   3.087   1.953   4.013 -1.2457  2.2188  1.2266
 8757TIP3   OH226234   0.183   5.347   0.075  0.3105  0.4581  0.1963
 8757TIP3    H126235   0.202   5.259   0.109  0.5972  1.1501  1.9332
 8757TIP3    H226236   0.243   5.404   0.122  0.0918  1.6083 -0.8804
 8758TIP3   OH226237   5.935   4.716   0.652  0.1126  0.2112  0.0748
 8758TIP3    H126238   5.979   4.801   0.661 -1.1646  0.8213  0.8151
 8758TIP3    H226239   5.878   4.727   0.576 -0.3395  0.1493  0.4018
 8759TIP3   OH226240   0.564   0.090   2.861  0.0297 -0.1128  0.2757
 8759TIP3    H126241   0.647   0.115   2.901  0.7378  0.1084 -1.2973
 8759TIP3    H226242   0.586   0.065   2.772 -1.4953 -0.7775  0.0571
 8760TIP3   OH226243   4.368   4.427   4.462  0.5093 -0.5959 -0.2010
 8760TIP3    H126244   4.419   4.383   4.530 -1.4586 -0.4323  1.4863
 8760TIP3    H226245   4.303   4.478   4.510 -0.2618  0.4278 -2.2085
 8761TIP3   OH226246   5.308   0.849   4.105 -0.0831 -0.0274  0.3889
 8761TIP3    H126247   5.267   0.763   4.096 -0.0574 -0.0325  0.3193
 8761TIP3    H226248   5.396   0.838   4.070 -0.0960  0.0396  0.3349
 8762TIP3   OH226249   3.579   0.018   3.484  0.1867  0.2318  0.0717
 8762TIP3    H126250   3.638   0.085   3.519 -1.6331  1.9606  0.0670
 8762TIP3    H226251   3.566   0.044   3.393 -0.4531 -0.1830  0.0421
 8763TIP3   OH226252   6.774   0.699   4.717  0.0382  0.7108  0.8484
 8763TIP3    H126253   6.690   0.730   4.684 -1.6094 -1.5647  2.5766
 8763TIP3    H226254   6.777   0.731   4.808  0.7420  0.2125  1.0048
 8764TIP3   OH226255   1.276   1.888   4.918 -0.1070  0.0907  0.3540
 8764TIP3    H126256   1.246   1.944   4.847  0.2730  0.2385  0.3056
 8764TIP3    H226257   1.228   1.806   4.907  0.7181 -0.2728 -0.7142
 8765TIP3   OH226258   0.771   0.067   5.577 -0.1217  0.0699  0.3901
 8765TIP3    H126259   0.690   0.095   5.619  0.1862  1.8019 -0.0970
 8765TIP3    H226260   0.841   0.112   5.625  0.3454  0.7805 -0.9065
 8766TIP3   OH226261   3.340   4.504   0.453  0.4898  0.5322  0.5732
 8766TIP3    H126262   3.301   4.418   0.436  0.3722  0.5276  0.8442
 8766TIP3    H226263   3.264   4.562   0.463  0.5715  0.6836  0.3012
 8767TIP3   OH226264   0.644   6.039   5.776 -0.3474  0.3749 -0.6394
 8767TIP3    H126265   0.635   5.944   5.789  0.1456  0.4576  0.4282
 8767TIP3    H226266   0.600   6.077   5.851  0.3873  0.9620 -0.4931
 8768TIP3   OH226267   1.435   5.678   2.630 -0.8121  0.5425 -0.1354
 8768TIP3    H126268   1.392   5.736   2.693  0.8814  0.8155  0.8343
 8768TIP3    H226269   1.446   5.595   2.677  2.3050  1.3588  0.7833
 8769TIP3   OH226270   2.179   0.068   5.695  0.3588 -0.1790  0.2300
 8769TIP3    H126271   2.251   0.079   5.757  0.1425 -2.0685  0.8980
 8769TIP3    H226272   2.116   0.136   5.719  0.4688 -0.5951  1.8719
 8770TIP3   OH226273   3.852   6.318   1.427  0.1311 -0.1054 -0.1773
 8770TIP3    H126274   3.925   6.380   1.425 -2.1891  2.9003 -1.7175
 8770TIP3    H226275   3.810   6.334   1.512  1.9168 -2.8709  1.3510
 8771TIP3   OH226276   0.897   3.321   1.822  0.0233 -0.3397  0.0538
 8771TIP3    H126277   0.843   3.243   1.811 -1.2544  0.2099  2.0012
 8771TIP3    H226278   0.954   3.300   1.897  2.6797 -0.9418 -1.9828
 8772TIP3   OH226279   6.248   0.102   5.520  0.2989 -0.3213 -0.2466
 8772TIP3    H126280   6.288   0.134   5.601  0.3000 -0.9824  0.0225
 8772TIP3    H226281   6.200   0.023   5.547 -1.3922  0.5611 -0.4980
 8773TIP3   OH226282   1.607   4.308   3.925 -0.1040  0.1736 -0.3244
 8773TIP3    H126283   1.512   4.312   3.918 -0.1331  1.1248  0.4349
 8773TIP3    H226284   1.623   4.229   3.977 -0.4357 -0.2929 -0.9114
 8774TIP3   OH226285   0.058   2.182   5.518 -0.0059  0.1849 -0.0017
 8774TIP3    H126286   0.021   2.108   5.469 -0.2762 -1.1839  2.1674
 8774TIP3    H226287   0.033   2.259   5.466 -1.6573 -1.0590 -1.1615
 8775TIP3   OH226288   2.771   3.153   5.177 -0.4292  0.4692 -0.2725
 8775TIP3    H126289   2.802   3.106   5.099  1.1251 -0.2111  0.7122
 8775TIP3    H226290   2.816   3.237   5.173  1.4133 -0.4052  1.0021
 8776TIP3   OH226291   6.866   5.889   2.259  0.4475 -0.0504 -0.1964
 8776TIP3    H126292   6.913   5.967   2.228 -0.6431  0.6181 -0.2064
 8776TIP3    H226293   6.859   5.901   2.353  1.1147 -0.6177 -0.0645
 8777TIP3   OH226294   4.868   0.885   4.151 -0.4665  0.3952 -0.2820
 8777TIP3    H126295   4.848   0.978   4.158 -2.2475  0.2069 -2.0385
 8777TIP3    H226296   4.794   0.840   4.190 -1.5801 -0.2711 -2.9366
 8778TIP3   OH226297   1.600   3.492   2.958  0.5008 -0.1816 -0.1301
 8778TIP3    H126298   1.520   3.480   3.010  0.0995 -0.0804 -0.7179
 8778TIP3    H226299   1.587   3.437   2.881  1.3306 -0.7570  0.1222
 8779TIP3   OH226300   3.717   3.177   5.576 -0.0801 -0.1306 -0.6438
 8779TIP3    H126301   3.796   3.135   5.611 -0.6396  0.1084  0.9786
 8779TIP3    H226302   3.662   3.104   5.548 -0.6261 -0.5011  1.2444
 8780TIP3   OH226303   4.763   3.398   3.652  0.3544 -0.3395  0.3737
 8780TIP3    H126304   4.745   3.304   3.656 -2.5479  0.1658  3.0485
 8780TIP3    H226305   4.840   3.410   3.707  1.6218 -1.2400 -1.1320
 8781TIP3   OH226306   7.166   0.534   3.258 -0.8680  0.2285  0.3445
 8781TIP3    H126307   7.251   0.575   3.246 -1.6655  1.4624 -1.5881
 8781TIP3    H226308   7.119   0.595   3.315 -1.1863  0.7559 -0.4514
 8782TIP3   OH226309   6.866   6.376   4.569 -0.2632  0.0730 -0.7042
 8782TIP3    H126310   6.915   6.412   4.643 -0.5712  1.7257 -1.2628
 8782TIP3    H226311   6.916   6.402   4.492 -0.0769 -1.4223 -1.1188
 8783TIP3   OH226312   1.085   3.440   2.742 -0.4732  0.2999 -0.6506
 8783TIP3    H126313   1.007   3.391   2.720 -0.6392  1.0311 -1.7390
 8783TIP3    H226314   1.154   3.373   2.749 -1.1850 -0.3575  0.4204
 8784TIP3   OH226315   5.623   1.837   4.412 -0.4198  0.1745  0.3845
 8784TIP3    H126316   5.650   1.838   4.503 -1.9461 -0.3171  0.8837
 8784TIP3    H226317   5.692   1.789   4.366  0.4575  0.6048  1.2412
 8785TIP3   OH226318   2.051   1.066   2.114  0.8409  0.1798 -0.5179
 8785TIP3    H126319   2.106   1.055   2.036  0.3624  0.7574 -0.9444
 8785TIP3    H226320   2.034   1.160   2.117  0.8355  0.1560  0.2761
 8786TIP3   OH226321   1.720   5.898   0.376 -0.3403 -0.0200  0.2545
 8786TIP3    H126322   1.645   5.899   0.437  0.5617  0.0686  1.3953
 8786TIP3    H226323   1.773   5.824   0.405  2.1142  2.3043  2.1671
 8787TIP3   OH226324   5.399   5.983   2.376  0.1329 -1.1244 -0.8198
 8787TIP3    H126325   5.307   5.962   2.391  0.2511 -2.3160 -1.6472
 8787TIP3    H226326   5.434   5.906   2.332  1.2571 -0.2295 -1.5375
 8788TIP3   OH226327   1.129   4.165   1.111 -0.0154 -0.3112  0.3730
 8788TIP3    H126328   1.078   4.160   1.031 -0.1396 -0.6043  0.4689
 8788TIP3    H226329   1.131   4.258   1.133 -0.9649 -0.3485  0.6577
 8789TIP3   OH226330   0.644   0.280   2.185 -0.0703 -0.0982  0.2781
 8789TIP3    H126331   0.720   0.221   2.191  1.4516  1.7990  0.5309
 8789TIP3    H226332   0.616   0.274   2.094 -0.9793 -2.3675  0.6306
 8790TIP3   OH226333   2.549   3.350   2.785  0.1920  0.0948  0.5062
 8790TIP3    H126334   2.567   3.262   2.752  0.6499 -0.1496  1.3642
 8790TIP3    H226335   2.454   3.352   2.798  0.4042 -1.1533  2.7569
 8791TIP3   OH226336   1.039   6.368   1.602  0.1951  0.2549  0.0824
 8791TIP3    H126337   1.111   6.306   1.609 -0.3751 -0.4084  0.1996
 8791TIP3    H226338   0.968   6.330   1.654  0.3470  1.7889  1.4953
 8792TIP3   OH226339   2.722   1.322   5.825 -0.1991  0.1839 -0.5870
 8792TIP3    H126340   2.634   1.291   5.846 -0.3167  0.3747 -0.7926
 8792TIP3    H226341   2.714   1.360   5.738  0.2036 -0.2643 -0.8197
 8793TIP3   OH226342   2.353   3.977   5.817 -0.2575 -0.7057  0.5809
 8793TIP3    H126343   2.325   3.988   5.726  1.3848 -3.0060 -0.2943
 8793TIP3    H226344   2.295   3.909   5.852  0.5524 -1.4665  0.4929
 8794TIP3   OH226345   4.177   4.853   2.309 -0.0384  0.6110 -0.2854
 8794TIP3    H126346   4.132   4.821   2.231  1.0108  0.9860 -1.0636
 8794TIP3    H226347   4.131   4.935   2.331 -0.1958  0.6178 -0.6363
 8795TIP3   OH226348   1.100   6.759   1.864 -0.0464 -0.1206  0.0834
 8795TIP3    H126349   1.074   6.699   1.793 -0.7236 -0.1360  0.3397
 8795TIP3    H226350   1.165   6.817   1.824  3.1996 -3.0384  0.6111
 8796TIP3   OH226351   6.117   2.875   5.371 -0.3283 -0.2672  0.2565
 8796TIP3    H126352   6.210   2.868   5.394 -0.2902  1.9169  1.0584
 8796TIP3    H226353   6.115   2.866   5.276  0.4808 -1.9125  0.3680
 8797TIP3   OH226354   3.793   1.594   2.971 -0.6737  0.1821 -0.7821
 8797TIP3    H126355   3.808   1.542   3.050 -0.1192 -1.2446 -1.7843
 8797TIP3    H226356   3.698   1.608   2.970 -0.4967  1.7941  1.0616
 8798TIP3   OH226357   1.599   0.170   1.027 -0.2382  0.8393 -0.2212
 8798TIP3    H126358   1.544   0.215   0.964 -0.9764  0.8567  0.4165
 8798TIP3    H226359   1.597   0.078   0.999  0.7771  1.0815 -1.1655
 8799TIP3   OH226360   2.974   1.087   0.471 -0.2735  0.6453  0.2380
 8799TIP3    H126361   2.964   1.046   0.385 -5.0411  3.6983 -1.0296
 8799TIP3    H226362   3.050   1.144   0.462  0.2399 -0.2324 -1.3503
 8800TIP3   OH226363   0.472   1.253   4.826 -0.5105  0.6821 -0.4866
 8800TIP3    H126364   0.431   1.336   4.799 -0.8770  0.9477  0.8073
 8800TIP3    H226365   0.398   1.195   4.844 -0.3511  1.0173  1.4246
 8801TIP3   OH226366   4.694   0.659   4.902  0.1646  0.0558 -0.5264
 8801TIP3    H126367   4.655   0.643   4.816 -1.3935 -0.3924  0.2157
 8801TIP3    H226368   4.714   0.752   4.902 -1.4475  0.4406 -0.7873
 8802TIP3   OH226369   0.163   0.584   4.252  0.5381  0.1963  0.3069
 8802TIP3    H126370   0.126   0.621   4.173  1.8909 -0.7756 -0.8353
 8802TIP3    H226371   0.195   0.659   4.301 -0.4008  0.8157 -0.0049
 8803TIP3   OH226372   6.997   4.575   3.302 -0.3085  0.1193 -0.4138
 8803TIP3    H126373   7.076   4.525   3.281 -1.2066 -0.2610 -3.3838
 8803TIP3    H226374   6.937   4.510   3.340  0.5186  0.2718  1.2302
 8804TIP3   OH226375   5.743   3.192   4.965  0.1852 -0.2264  0.3933
 8804TIP3    H126376   5.711   3.123   5.022 -0.9865 -0.6856 -0.7783
 8804TIP3    H226377   5.668   3.250   4.953  0.8978  0.7709  0.6424
 8805TIP3   OH226378   4.745   3.040   4.846 -0.2948  0.0120 -0.5694
 8805TIP3    H126379   4.669   3.071   4.895 -1.9635 -1.2714 -2.1908
 8805TIP3    H226380   4.766   3.112   4.786 -0.3434  0.2933 -0.2517
 8806TIP3   OH226381   0.965   3.314   3.108 -0.2943  0.1084 -0.1737
 8806TIP3    H126382   1.054   3.347   3.096 -0.1225 -0.5612 -0.7889
 8806TIP3    H226383   0.974   3.219   3.105 -0.8434 -0.0137  1.1107
 8807TIP3   OH226384   6.043   2.142   4.482 -0.8000  0.8080 -0.3093
 8807TIP3    H126385   6.113   2.106   4.427 -0.6409  2.1544 -1.0012
 8807TIP3    H226386   6.080   2.138   4.571  0.1334  1.4245 -0.6545
 8808TIP3   OH226387   1.184   4.729   5.132  0.1955 -0.5021  0.8055
 8808TIP3    H126388   1.251   4.791   5.106 -0.3623 -0.6981 -1.2555
 8808TIP3    H226389   1.229   4.645   5.137 -0.3356 -1.3887 -4.1781
 8809TIP3   OH226390   6.330   4.191   1.210 -0.6102 -0.5008  0.1798
 8809TIP3    H126391   6.327   4.170   1.303  1.3368 -0.6885  0.2468
 8809TIP3    H226392   6.323   4.286   1.207 -2.1121 -0.5722  0.3782
 8810TIP3   OH226393   2.390   3.878   4.651  0.5420 -0.0696  0.0765
 8810TIP3    H126394   2.312   3.931   4.634  1.9061  1.2564 -2.6030
 8810TIP3    H226395   2.445   3.934   4.706 -0.0652 -0.7869  1.4877
 8811TIP3   OH226396   1.770   2.091   4.342 -0.5426  0.2645 -0.3619
 8811TIP3    H126397   1.686   2.068   4.305 -0.5242  0.1409 -0.3267
 8811TIP3    H226398   1.817   2.135   4.271 -0.6620  0.3933 -0.3614
 8812TIP3   OH226399   6.430   3.470   3.709  0.5070  0.3315 -0.6845
 8812TIP3    H126400   6.375   3.414   3.655 -1.3683  1.8529 -0.4783
 8812TIP3    H226401   6.516   3.429   3.708 -0.7216 -2.4548 -0.6319
 8813TIP3   OH226402   2.473   4.065   0.870  0.2483  0.7179  0.6150
 8813TIP3    H126403   2.489   3.985   0.820  3.1586  1.3461  0.4054
 8813TIP3    H226404   2.394   4.046   0.921 -0.4930 -1.3975 -1.1874
 8814TIP3   OH226405   4.610   5.928   2.549 -0.1177 -0.0270  0.2409
 8814TIP3    H126406   4.540   5.918   2.485 -0.1267  1.4217 -0.0106
 8814TIP3    H226407   4.604   6.019   2.578  2.1414  0.3948 -0.3794
 8815TIP3   OH226408   4.901   0.816   5.076  0.1748 -0.6974 -0.0988
 8815TIP3    H126409   4.853   0.878   5.021  4.1287  2.4454 -0.5222
 8815TIP3    H226410   4.958   0.769   5.015  1.2579 -0.5739  0.7821
 8816TIP3   OH226411   5.683   2.956   5.069 -0.3012  0.4125  0.7398
 8816TIP3    H126412   5.660   2.905   4.991  0.8788  1.5149 -0.3746
 8816TIP3    H226413   5.740   2.897   5.119  1.1578  0.6059 -0.5917
 8817TIP3   OH226414   0.661   1.541   4.051  0.0484  0.1131 -0.2719
 8817TIP3    H126415   0.734   1.602   4.038  0.4416 -0.4477 -0.7185
 8817TIP3    H226416   0.590   1.596   4.085  1.1190  0.4161  1.6129
 8818TIP3   OH226417   5.963   4.694   4.996 -0.0093  0.1096 -0.1386
 8818TIP3    H126418   5.985   4.720   4.907 -1.1736 -0.7831 -0.7136
 8818TIP3    H226419   5.868   4.703   5.001  0.0840  0.5299  1.1484
 8819TIP3   OH226420   3.361   2.237   5.078 -0.1427  0.9629  0.1907
 8819TIP3    H126421   3.334   2.318   5.035 -0.5701  0.5297 -0.3687
 8819TIP3    H226422   3.293   2.173   5.056  1.9537 -0.5887 -2.5417
 8820TIP3   OH226423   5.176   5.244   2.065  0.0736  1.1032  0.0969
 8820TIP3    H126424   5.161   5.262   1.972  2.6112  2.4090 -0.1509
 8820TIP3    H226425   5.216   5.157   2.067 -1.1268  0.5305  0.1309
 8821TIP3   OH226426   5.132   1.683   4.269 -0.4465  0.2816 -0.5424
 8821TIP3    H126427   5.156   1.755   4.328 -0.2327  0.7902 -1.2402
 8821TIP3    H226428   5.133   1.606   4.325 -0.3463  0.7702  0.1469
 8822TIP3   OH226429   5.071   1.053   5.712  0.7948 -0.2076  0.1298
 8822TIP3    H126430   5.049   1.016   5.626  1.1372  0.3474 -0.2109
 8822TIP3    H226431   4.987   1.068   5.754  0.6541 -2.7355  0.9063
 8823TIP3   OH226432   4.670   3.697   3.602 -0.5441 -0.3432 -0.2470
 8823TIP3    H126433   4.690   3.608   3.630  0.1645 -0.5552 -1.3381
 8823TIP3    H226434   4.575   3.702   3.604 -0.5535 -0.5011  1.6156
 8824TIP3   OH226435   4.320   5.960   1.750 -0.1454  0.0974 -0.2476
 8824TIP3    H126436   4.363   6.043   1.731  1.0071 -0.1575  1.0973
 8824TIP3    H226437   4.332   5.907   1.671  1.3396  0.3177 -0.1911
 8825TIP3   OH226438   2.008   4.729   1.977 -0.0902 -0.4128  0.5407
 8825TIP3    H126439   2.064   4.716   2.054  0.3720 -0.4608  0.2039
 8825TIP3    H226440   2.047   4.805   1.933  0.6768 -1.4029 -0.5478
 8826TIP3   OH226441   2.000   5.778   0.203 -0.7921 -0.2056 -0.1650
 8826TIP3    H126442   1.943   5.728   0.262  0.3766 -1.3676  0.0079
 8826TIP3    H226443   2.086   5.739   0.214 -0.3482  0.2172 -1.9128
 8827TIP3   OH226444   3.802   0.934   4.879  0.2008  0.3635  0.0356
 8827TIP3    H126445   3.740   0.864   4.858  1.3973 -0.6426 -0.2618
 8827TIP3    H226446   3.884   0.888   4.898  1.0364  1.7018 -0.2416
 8828TIP3   OH226447   0.399   0.683   0.534 -0.1244 -0.0116 -0.3327
 8828TIP3    H126448   0.475   0.718   0.487  0.3115 -0.9741 -0.3660
 8828TIP3    H226449   0.372   0.607   0.483  0.3474 -1.0686  0.9297
 8829TIP3   OH226450   5.105   4.813   0.221  0.2608  0.2236  0.1640
 8829TIP3    H126451   5.038   4.757   0.261  0.4771  0.3512  0.7149
 8829TIP3    H226452   5.102   4.791   0.128  0.9729 -1.3808  0.4951
 8830TIP3   OH226453   0.935   3.318   3.961  0.4627 -0.3369  0.8054
 8830TIP3    H126454   0.871   3.300   3.892  1.4317  2.4819 -0.9965
 8830TIP3    H226455   1.009   3.261   3.940 -0.2393 -1.3872  1.1032
 8831TIP3   OH226456   5.729   0.884   0.200 -0.5131 -0.9460 -0.3796
 8831TIP3    H126457   5.707   0.973   0.227 -1.0625 -1.2160  0.0870
 8831TIP3    H226458   5.677   0.869   0.121  0.1061 -0.6117 -0.8530
 8832TIP3   OH226459   0.835   1.829   5.186  0.5519  0.1419  0.2202
 8832TIP3    H126460   0.921   1.855   5.153  0.0357  0.1199 -1.2500
 8832TIP3    H226461   0.785   1.911   5.188 -0.0722 -0.1634 -1.2133
 8833TIP3   OH226462   2.592   4.839   0.531  0.4521  0.4679  0.2251
 8833TIP3    H126463   2.604   4.793   0.614  1.1741  0.9794  0.4218
 8833TIP3    H226464   2.501   4.867   0.531  0.6522  1.1757  1.2386
 8834TIP3   OH226465   2.660   6.194   4.791 -0.6631  0.6983 -0.2492
 8834TIP3    H126466   2.674   6.246   4.711 -0.5367  0.2269 -0.5392
 8834TIP3    H226467   2.569   6.164   4.785 -0.2061 -0.6341 -1.0092
 8835TIP3   OH226468   2.434   0.334   5.468  0.7220  0.0986 -0.3257
 8835TIP3    H126469   2.430   0.380   5.552 -0.9475  1.8286 -1.2626
 8835TIP3    H226470   2.479   0.396   5.409 -1.9215  0.8428 -1.7183
 8836TIP3   OH226471   0.069   6.757   1.211  0.1940  1.0694 -0.1994
 8836TIP3    H126472   0.136   6.688   1.207 -0.6714  0.0868  1.2409
 8836TIP3    H226473   0.104   6.821   1.273  0.2921  1.1234 -0.3097
 8837TIP3   OH226474   1.822   2.482   2.050 -0.4460 -1.0268  0.3427
 8837TIP3    H126475   1.911   2.502   2.080 -0.8500 -0.0414  0.9719
 8837TIP3    H226476   1.806   2.392   2.079  0.1227 -0.9945  0.7800
 8838TIP3   OH226477   6.123   1.406   0.239 -0.0300 -0.1516  0.0808
 8838TIP3    H126478   6.161   1.432   0.323 -3.8348 -1.2815  2.4060
 8838TIP3    H226479   6.141   1.313   0.233  0.4462 -0.0233 -0.4981
 8839TIP3   OH226480   4.465   3.895   5.180 -0.2883  0.0236  0.1554
 8839TIP3    H126481   4.472   3.823   5.117 -1.6792 -0.1724  0.1979
 8839TIP3    H226482   4.545   3.947   5.166 -0.0931 -0.5737 -1.0630
 8840TIP3   OH226483   1.843   6.612   4.971  0.0428  0.4854 -0.4891
 8840TIP3    H126484   1.911   6.628   4.907  0.2811  0.8434 -0.1512
 8840TIP3    H226485   1.771   6.574   4.921  0.7409 -0.5573 -0.7361
 8841TIP3   OH226486   5.780   5.626   3.695  0.2433 -0.3954 -0.1005
 8841TIP3    H126487   5.808   5.603   3.606  0.3522 -1.9208  0.3030
 8841TIP3    H226488   5.857   5.665   3.736  0.3294 -0.1130 -0.5287
 8842TIP3   OH226489   2.712   2.017   0.916 -0.2480  0.2062 -0.1787
 8842TIP3    H126490   2.692   1.925   0.897 -0.1186  0.0322  0.5205
 8842TIP3    H226491   2.665   2.036   0.997  2.7023 -0.3611  1.8117
 8843TIP3   OH226492   5.249   2.000   3.839 -0.3668  0.4208  0.3057
 8843TIP3    H126493   5.247   2.093   3.859 -1.2017  0.2741  0.9545
 8843TIP3    H226494   5.217   1.994   3.749 -0.6016  0.7334  0.3670
 8844TIP3   OH226495   1.571   3.646   0.665  0.3169 -0.1108 -0.3099
 8844TIP3    H126496   1.561   3.729   0.712 -1.1597 -0.2386 -0.3399
 8844TIP3    H226497   1.657   3.613   0.692  0.1026  0.4956  1.2240
 8845TIP3   OH226498   1.281   5.803   0.891 -0.1031 -0.1555 -0.1952
 8845TIP3    H126499   1.246   5.797   0.980  1.5609 -1.4801  0.4275
 8845TIP3    H226500   1.215   5.760   0.836 -0.5793 -0.4480  0.5878
 8846TIP3   OH226501   3.497   6.348   0.968 -0.2008 -0.3895  0.0504
 8846TIP3    H126502   3.521   6.441   0.970  0.7206 -0.5538 -1.7610
 8846TIP3    H226503   3.508   6.322   0.877  1.4305 -2.7564  0.8366
 8847TIP3   OH226504   2.070   5.705   2.676 -0.8052 -0.2469  0.3099
 8847TIP3    H126505   2.021   5.730   2.597  0.3165 -0.5487 -0.5147
 8847TIP3    H226506   2.149   5.759   2.672 -1.4375  0.8951  2.1025
 8848TIP3   OH226507   2.268   0.897   4.857 -0.4766 -0.1354  0.4759
 8848TIP3    H126508   2.336   0.831   4.843  0.2002  0.5551  0.4935
 8848TIP3    H226509   2.198   0.870   4.797 -2.1453 -3.4102  3.4911
 8849TIP3   OH226510   4.312   0.575   1.605  0.5097 -0.3909  0.4955
 8849TIP3    H126511   4.269   0.658   1.587  0.4023 -0.4732  0.3646
 8849TIP3    H226512   4.313   0.530   1.520  0.4446 -0.5786  0.5944
 8850TIP3   OH226513   2.479   6.541   1.732 -0.1488  0.2901 -0.3969
 8850TIP3    H126514   2.420   6.516   1.660 -1.1600 -1.7383  1.0233
 8850TIP3    H226515   2.484   6.463   1.787  0.4522  1.7937  1.8333
 8851TIP3   OH226516   4.523   4.186   0.161  0.0279  0.5663 -0.0063
 8851TIP3    H126517   4.524   4.248   0.088  0.9085  0.2637 -0.2579
 8851TIP3    H226518   4.614   4.161   0.173 -0.4967 -2.3085 -1.3104
 8852TIP3   OH226519   1.697   2.274   1.471  0.1102  0.2107  0.0771
 8852TIP3    H126520   1.685   2.365   1.445 -0.3515 -0.0990 -0.8136
 8852TIP3    H226521   1.684   2.224   1.391  1.3480 -0.5775  0.3342
 8853TIP3   OH226522   4.679   1.978   3.713  0.2945  0.1361  0.3729
 8853TIP3    H126523   4.659   1.891   3.747 -0.4362  0.0199 -0.3243
 8853TIP3    H226524   4.658   2.037   3.785 -1.2583 -0.1078  0.1637
 8854TIP3   OH226525   1.984   4.427   5.156 -0.5372  0.2170  0.8883
 8854TIP3    H126526   2.002   4.426   5.062 -0.6694 -0.5341  0.8636
 8854TIP3    H226527   2.024   4.508   5.187 -1.9699  1.3425 -0.0836
 8855TIP3   OH226528   3.788   1.009   1.057 -0.1736 -0.2740 -0.1107
 8855TIP3    H126529   3.873   1.026   1.016 -0.1244 -1.2093 -0.4020
 8855TIP3    H226530   3.795   1.052   1.143  1.5825 -2.5048  0.9612
 8856TIP3   OH226531   6.486   5.732   4.039 -0.3634 -0.2241 -0.3022
 8856TIP3    H126532   6.459   5.660   4.095  1.4653 -0.0561  0.8840
 8856TIP3    H226533   6.555   5.776   4.088  0.5169  0.6332 -2.2065
 8857TIP3   OH226534   4.735   3.196   5.573  0.0366 -0.0806 -0.2549
 8857TIP3    H126535   4.660   3.175   5.629  0.9531 -2.7610  0.1128
 8857TIP3    H226536   4.806   3.214   5.634  0.4818 -0.7850 -0.5547
 8858TIP3   OH226537   6.485   5.186   5.269  0.1926 -0.0338  0.5415
 8858TIP3    H126538   6.462   5.093   5.274 -1.1328  0.2380  0.1323
 8858TIP3    H226539   6.440   5.226   5.343 -0.8526  0.5501 -0.3717
 8859TIP3   OH226540   3.121   1.336   2.659 -0.4329 -0.0075 -0.4087
 8859TIP3    H126541   3.175   1.365   2.585 -0.4185  0.3574 -0.2534
 8859TIP3    H226542   3.067   1.412   2.680 -1.7751 -0.6805 -1.2476
 8860TIP3   OH226543   5.507   5.740   3.414 -0.2829  0.4849  0.1253
 8860TIP3    H126544   5.503   5.824   3.368 -0.0415  0.7098  0.5088
 8860TIP3    H226545   5.526   5.676   3.346  0.5440  0.8746 -0.0156
 8861TIP3   OH226546   5.478   2.221   1.368 -0.4063  0.5767  0.3048
 8861TIP3    H126547   5.524   2.291   1.413  1.1253 -0.6380  0.7203
 8861TIP3    H226548   5.513   2.222   1.279  0.6155 -0.4842  0.6789
 8862TIP3   OH226549   1.764   5.907   2.985 -0.8986  0.8408  0.1399
 8862TIP3    H126550   1.716   5.989   2.997  0.6669  1.7430  0.4646
 8862TIP3    H226551   1.756   5.888   2.891 -2.0935  0.8218  0.2348
 8863TIP3   OH226552   1.198   1.748   2.775  0.1895 -0.6856 -0.1072
 8863TIP3    H126553   1.180   1.809   2.846  1.2957  0.4359 -0.7538
 8863TIP3    H226554   1.113   1.712   2.752 -0.7690  1.8744 -0.8379
 8864TIP3   OH226555   5.082   6.113   4.704 -0.2733  0.2169 -0.3563
 8864TIP3    H126556   5.020   6.185   4.711 -0.7443 -0.2635  0.7257
 8864TIP3    H226557   5.154   6.148   4.652 -0.3252  1.5788  0.4490
 8865TIP3   OH226558   6.317   1.846   3.781  0.2124  0.3153 -0.8770
 8865TIP3    H126559   6.403   1.838   3.739  0.4655 -0.3860 -0.2389
 8865TIP3    H226560   6.309   1.939   3.801  1.5686  0.1794  0.5500
 8866TIP3   OH226561   4.371   2.937   0.649  0.2353 -0.1480  0.0015
 8866TIP3    H126562   4.312   2.996   0.603  1.1860  0.2751 -0.7293
 8866TIP3    H226563   4.329   2.851   0.643 -0.3068  0.1427 -0.4818
 8867TIP3   OH226564   0.658   0.739   0.438  0.1611  0.0659  0.0288
 8867TIP3    H126565   0.700   0.754   0.523  0.2172  0.5991 -0.0870
 8867TIP3    H226566   0.684   0.815   0.385 -0.8152  0.3299 -0.0926
 8868TIP3   OH226567   3.186   3.308   4.625  0.8326 -0.0327 -0.1602
 8868TIP3    H126568   3.101   3.348   4.607 -0.0682 -1.0831  1.4334
 8868TIP3    H226569   3.187   3.229   4.570  0.0527 -0.8485  0.9443
 8869TIP3   OH226570   2.930   3.498   4.955 -0.0942 -0.2659  0.0503
 8869TIP3    H126571   3.024   3.506   4.937 -0.4161  0.5331 -1.3958
 8869TIP3    H226572   2.926   3.461   5.044  1.5787  2.3125  1.3205
 8870TIP3   OH226573   5.140   5.770   2.446  0.2934 -0.0513  0.4083
 8870TIP3    H126574   5.201   5.722   2.390  1.3475  1.4752  0.1936
 8870TIP3    H226575   5.055   5.728   2.431  0.4911  0.4243 -2.4665
 8871TIP3   OH226576   4.664   3.887   0.304  0.5807 -0.4590  0.4785
 8871TIP3    H126577   4.584   3.840   0.281  0.7418  0.1214 -1.4844
 8871TIP3    H226578   4.641   3.939   0.381 -1.6907  1.4246 -1.3168
 8872TIP3   OH226579   0.046   1.392   4.992  0.4176  0.6424 -0.0317
 8872TIP3    H126580   0.055   1.370   5.085 -1.4533 -0.2978 -0.0168
 8872TIP3    H226581   0.093   1.323   4.946 -1.5264 -0.9301  0.1728
 8873TIP3   OH226582   6.530   5.971   3.884  0.7370 -0.2794 -0.0221
 8873TIP3    H126583   6.561   5.988   3.973 -0.0774 -0.6462  0.3440
 8873TIP3    H226584   6.488   5.885   3.890 -1.2644  0.6492 -0.2448
 8874TIP3   OH226585   2.251   4.392   0.933 -0.7980 -0.1288 -0.2846
 8874TIP3    H126586   2.253   4.364   1.025 -0.5356  2.0223  0.4398
 8874TIP3    H226587   2.340   4.379   0.902 -0.6442  0.0147  0.0831
 8875TIP3   OH226588   2.960   3.494   0.803  0.1907 -0.2884  0.0594
 8875TIP3    H126589   2.897   3.482   0.874 -0.1512  0.1930 -0.1550
 8875TIP3    H226590   2.999   3.407   0.790 -0.5662 -0.6400  0.0725
 8876TIP3   OH226591   3.927   0.862   1.449 -0.1766 -0.4669 -0.0501
 8876TIP3    H126592   3.839   0.873   1.486  0.0586 -1.1356  0.7496
 8876TIP3    H226593   3.973   0.808   1.514  0.5069 -0.9906 -0.9490
 8877TIP3   OH226594   4.633   1.499   5.288 -0.3933  0.3917  0.1287
 8877TIP3    H126595   4.681   1.492   5.371 -0.3433  1.4061  0.2018
 8877TIP3    H226596   4.701   1.503   5.221 -0.3538  1.7072  0.2228
 8878TIP3   OH226597   4.924   5.321   1.457 -0.3518  1.0982 -0.6710
 8878TIP3    H126598   4.856   5.330   1.390  0.3960 -0.5464 -1.7181
 8878TIP3    H226599   5.002   5.293   1.408  0.3732  0.4113  0.8180
 8879TIP3   OH226600   1.788   4.411   3.185  0.0908 -0.7208  0.0968
 8879TIP3    H126601   1.804   4.423   3.092 -2.4288  1.4495 -0.1648
 8879TIP3    H226602   1.833   4.485   3.226  1.7719 -2.0359  0.7606
 8880TIP3   OH226603   3.431   6.733   3.487 -0.0538 -0.2883 -0.6918
 8880TIP3    H126604   3.430   6.823   3.518 -0.5768 -0.0527 -1.3650
 8880TIP3    H226605   3.506   6.693   3.530 -0.9821 -0.0944  1.2095
 8881TIP3   OH226606   0.906   1.079   2.688  0.0029 -0.1392  0.1762
 8881TIP3    H126607   0.949   1.010   2.739 -0.4758 -0.0078  0.7692
 8881TIP3    H226608   0.976   1.143   2.671  0.5638 -0.9682 -0.7762
 8882TIP3   OH226609   0.489   1.900   4.875 -0.5216 -0.2098  0.4747
 8882TIP3    H126610   0.396   1.887   4.857 -1.0306  2.0235  1.2009
 8882TIP3    H226611   0.503   1.858   4.959 -0.3439 -2.3090 -0.5262
 8883TIP3   OH226612   0.051   0.569   5.281  0.4258 -0.2873 -0.1708
 8883TIP3    H126613  -0.019   0.504   5.285  0.9717 -0.8528  2.8657
 8883TIP3    H226614   0.129   0.519   5.257  0.5841 -0.5755  0.8577
 8884TIP3   OH226615   0.045   4.836   0.682 -0.2157 -0.0628 -0.4855
 8884TIP3    H126616   0.001   4.836   0.767  0.8621  2.0329  0.1531
 8884TIP3    H226617  -0.001   4.770   0.630 -1.7621 -0.4396  1.2810
 8885TIP3   OH226618   0.511   5.962   1.566 -0.0552  0.3415 -0.3860
 8885TIP3    H126619   0.426   6.002   1.545 -0.6578  0.5073  2.0883
 8885TIP3    H226620   0.574   6.011   1.513 -1.2983  1.3643 -0.9838
 8886TIP3   OH226621   6.273   2.431   4.468  0.6752 -0.2704  0.0175
 8886TIP3    H126622   6.189   2.474   4.485  1.1096  0.4855  0.2748
 8886TIP3    H226623   6.309   2.413   4.555  0.7942 -0.5713 -0.0924
 8887TIP3   OH226624   3.457   5.492   2.210 -0.2474 -0.8265  0.0320
 8887TIP3    H126625   3.410   5.555   2.264 -1.9001 -1.2251 -0.8567
 8887TIP3    H226626   3.453   5.528   2.121  1.8467 -0.5007  0.0232
 8888TIP3   OH226627   1.872   0.277   5.023  0.2143  0.1144 -0.5784
 8888TIP3    H126628   1.894   0.190   5.056  0.1210  0.4265  0.3342
 8888TIP3    H226629   1.885   0.336   5.098 -1.2809  0.6587 -0.7089
 8889TIP3   OH226630   3.766   2.296   4.795 -0.3339 -0.6771 -0.2985
 8889TIP3    H126631   3.679   2.337   4.790 -0.3643 -0.5590  0.8729
 8889TIP3    H226632   3.791   2.306   4.887  1.0967 -0.3619 -0.7054
 8890TIP3   OH226633  -0.013   6.104   1.326 -0.6187 -0.0154 -0.3699
 8890TIP3    H126634  -0.051   6.179   1.279 -0.1267  1.1053  0.9401
 8890TIP3    H226635   0.081   6.120   1.323 -0.5850  0.1407  1.0658
 8891TIP3   OH226636   0.144   3.751   5.221  0.2324 -0.0287 -0.6598
 8891TIP3    H126637   0.089   3.776   5.147 -0.1919  1.4312  0.1165
 8891TIP3    H226638   0.083   3.730   5.292  0.6521 -0.0066 -0.2805
 8892TIP3   OH226639   1.621   1.515   0.594  0.5812 -0.2758 -0.3464
 8892TIP3    H126640   1.543   1.476   0.555 -0.1055  0.6934  0.0129
 8892TIP3    H226641   1.689   1.503   0.528  0.3129 -1.7148 -0.4043
 8893TIP3   OH226642   3.700   0.215   5.420 -0.5340  0.1546 -0.2716
 8893TIP3    H126643   3.620   0.171   5.448  0.3368 -1.8590 -0.7296
 8893TIP3    H226644   3.757   0.212   5.497 -0.7465  1.2438 -0.0594
 8894TIP3   OH226645   1.262   6.504   1.809  0.3540 -0.0331  0.1795
 8894TIP3    H126646   1.243   6.533   1.898  2.7686  1.2185  0.3736
 8894TIP3    H226647   1.231   6.576   1.754  4.5766  2.3850  0.5412
 8895TIP3   OH226648   7.209   1.774   1.277  0.2689 -0.4591  0.6948
 8895TIP3    H126649   7.124   1.742   1.307 -0.0577  1.3388  1.8201
 8895TIP3    H226650   7.215   1.746   1.186 -0.8653 -1.8667  1.0138
 8896TIP3   OH226651   4.668   6.019   5.670 -0.3564  0.0215  0.3708
 8896TIP3    H126652   4.699   6.064   5.591 -0.9536  2.0890  1.2557
 8896TIP3    H226653   4.588   5.974   5.641  1.0779 -1.8872 -0.8974
 8897TIP3   OH226654   7.016   4.632   4.383 -0.0644 -0.2084 -0.1124
 8897TIP3    H126655   6.941   4.648   4.440  0.1824 -2.1719  0.8660
 8897TIP3    H226656   7.077   4.704   4.403 -0.2708 -0.4703  1.6552
 8898TIP3   OH226657   6.945   1.886   4.015  0.0994  0.3840 -0.4036
 8898TIP3    H126658   6.911   1.947   4.080  0.7672  0.2973  0.0355
 8898TIP3    H226659   6.873   1.827   3.997 -0.6799  1.4931 -1.0903
 8899TIP3   OH226660   5.775   4.760   0.885 -0.0505 -0.8550 -0.4815
 8899TIP3    H126661   5.816   4.703   0.821 -0.5961 -0.5614 -1.1152
 8899TIP3    H226662   5.716   4.703   0.934 -1.5501 -0.6720 -1.9423
 8900TIP3   OH226663   4.611   1.836   4.330 -0.1855 -0.3497 -0.3471
 8900TIP3    H126664   4.677   1.768   4.337 -0.7146 -0.9483 -0.9939
 8900TIP3    H226665   4.635   1.886   4.252  0.6263  0.6950  0.5408
 8901TIP3   OH226666   2.964   0.843   5.587 -0.4178  0.3145 -0.0527
 8901TIP3    H126667   2.935   0.765   5.540 -0.4781  1.3849 -1.8525
 8901TIP3    H226668   3.057   0.851   5.567  0.0731 -0.3217  1.7070
 8902TIP3   OH226669   4.986   0.253   1.433 -0.0191 -0.1672 -0.7411
 8902TIP3    H126670   5.033   0.171   1.424  1.5421  0.7570 -1.3617
 8902TIP3    H226671   4.918   0.234   1.498  1.6277 -1.3886  0.7300
 8903TIP3   OH226672   2.151   6.000   2.593 -0.0684 -0.9406 -0.3776
 8903TIP3    H126673   2.166   6.016   2.500  0.1086  1.8465  0.0448
 8903TIP3    H226674   2.056   6.005   2.604 -0.1006 -1.4069 -0.4060
 8904TIP3   OH226675   5.312   2.929   1.106 -0.3009 -0.5526  0.8434
 8904TIP3    H126676   5.263   2.847   1.116 -1.2821  0.1158  1.7243
 8904TIP3    H226677   5.311   2.968   1.193 -0.9714  0.9966  0.1784
 8905TIP3   OH226678   3.569   2.071   0.697 -0.2638 -0.2429 -0.5800
 8905TIP3    H126679   3.608   2.010   0.759 -0.8331 -1.1480 -1.0905
 8905TIP3    H226680   3.480   2.086   0.731 -0.4167 -0.3770 -0.9156
 8906TIP3   OH226681   4.175   0.264   4.290 -0.4890 -0.0614  0.0543
 8906TIP3    H126682   4.214   0.190   4.336  0.7857  1.4640  1.5621
 8906TIP3    H226683   4.213   0.261   4.202  0.1831 -0.7033  0.3647
 8907TIP3   OH226684   1.349   3.172   2.004 -0.7270  0.1187  0.1540
 8907TIP3    H126685   1.411   3.166   1.931 -1.7955  0.6048 -0.8195
 8907TIP3    H226686   1.332   3.081   2.028  0.0354 -0.0323  0.1662
 8908TIP3   OH226687   1.530   2.803   5.203 -0.4984  0.3210  0.6075
 8908TIP3    H126688   1.589   2.870   5.169  0.7536 -1.0019  0.0598
 8908TIP3    H226689   1.488   2.844   5.279  1.2255  1.2861  1.0946
 8909TIP3   OH226690   0.925   0.498   5.806 -0.2984 -0.0332 -0.1411
 8909TIP3    H126691   0.912   0.426   5.868 -1.5694  0.5228  0.2742
 8909TIP3    H226692   0.896   0.576   5.853 -0.5014  0.5126 -1.1422
 8910TIP3   OH226693   1.759   1.332   0.210 -0.0835 -0.4066  0.1177
 8910TIP3    H126694   1.789   1.241   0.212 -0.5047 -0.5367  1.0846
 8910TIP3    H226695   1.802   1.374   0.285 -0.2227  0.0846 -0.0699
 8911TIP3   OH226696   4.050   4.913   4.619 -0.6199 -0.0240 -0.0066
 8911TIP3    H126697   4.067   5.008   4.617 -1.4047  0.1300 -0.0199
 8911TIP3    H226698   4.050   4.891   4.712  1.9445 -0.5014 -0.0511
 8912TIP3   OH226699   0.604   6.189   2.402 -0.0816 -0.3913 -0.3849
 8912TIP3    H126700   0.673   6.180   2.337  0.0704  1.2675 -0.4907
 8912TIP3    H226701   0.545   6.255   2.365  0.3808  1.1315  1.4269
 8913TIP3   OH226702   2.187   0.612   5.461  0.1276  0.4413 -0.1350
 8913TIP3    H126703   2.262   0.582   5.512 -0.0382  0.6024  0.2074
 8913TIP3    H226704   2.135   0.532   5.447 -0.2027  0.5207  0.5906
 8914TIP3   OH226705   1.829   5.669   4.385 -0.1609 -0.2948  0.1177
 8914TIP3    H126706   1.808   5.756   4.419  1.8934 -0.1393  1.0901
 8914TIP3    H226707   1.759   5.613   4.419 -0.3402  0.6016  1.2962
 8915TIP3   OH226708   3.943   4.692   3.382 -0.0832  0.0647 -0.2129
 8915TIP3    H126709   4.012   4.691   3.448 -1.2022 -0.3022  1.0075
 8915TIP3    H226710   3.958   4.773   3.333  0.2994  0.7840  1.0291
 8916TIP3   OH226711   1.668   3.933   0.546 -0.2601  0.2610  0.1593
 8916TIP3    H126712   1.716   3.884   0.613 -0.6797 -2.2233 -1.2295
 8916TIP3    H226713   1.720   3.921   0.467 -1.3819  0.4508 -0.6242
 8917TIP3   OH226714   2.074   2.565   1.194  0.6591 -0.1770 -0.0015
 8917TIP3    H126715   2.047   2.657   1.206 -0.3011 -0.7456  3.2928
 8917TIP3    H226716   2.162   2.561   1.230  0.3549 -0.6925  0.7064
 8918TIP3   OH226717   6.722   1.626   4.542 -0.1907 -0.1083 -0.5699
 8918TIP3    H126718   6.717   1.716   4.573 -1.5008 -0.7490  1.3401
 8918TIP3    H226719   6.809   1.596   4.568 -0.1476  0.3024 -0.2239
 8919TIP3   OH226720   3.722   0.063   1.503 -0.5388 -0.1157  0.0184
 8919TIP3    H126721   3.785   0.003   1.543  0.0194  1.3836  1.4843
 8919TIP3    H226722   3.653   0.073   1.569 -0.7182  0.6895 -0.2823
 8920TIP3   OH226723   6.862   0.269   2.663 -0.3370  0.4746 -0.1735
 8920TIP3    H126724   6.919   0.306   2.731 -1.5548  2.2847 -0.0454
 8920TIP3    H226725   6.812   0.201   2.708  1.0091 -0.4699 -0.0583
 8921TIP3   OH226726   6.015   6.312   0.510 -0.1954  0.0942  0.0898
 8921TIP3    H126727   5.986   6.400   0.533  0.5272  0.0831  1.1773
 8921TIP3    H226728   6.109   6.312   0.531  0.1533 -0.4819 -1.3329
 8922TIP3   OH226729   6.347   0.294   0.720  0.5405  0.3043  0.3167
 8922TIP3    H126730   6.297   0.371   0.692 -1.4888 -0.2187  2.2702
 8922TIP3    H226731   6.364   0.246   0.638  0.2155  1.8719 -0.7144
 8923TIP3   OH226732   4.750   5.995   2.086  0.0887 -0.5055 -0.2760
 8923TIP3    H126733   4.799   6.073   2.059  1.7634 -1.8616 -1.4174
 8923TIP3    H226734   4.724   6.012   2.176  2.7202  0.3487  0.4168
 8924TIP3   OH226735   4.819   2.172   4.662 -0.1045 -0.8527  0.1372
 8924TIP3    H126736   4.774   2.088   4.657  1.1694 -1.4946 -2.3285
 8924TIP3    H226737   4.904   2.156   4.621  0.4803  1.4531  0.3246
 8925TIP3   OH226738   3.713   0.985   2.980  0.4167  0.1693  0.2046
 8925TIP3    H126739   3.748   0.953   2.897  0.0374 -0.0001  0.1040
 8925TIP3    H226740   3.627   0.943   2.987  0.9227 -0.7682  1.2488
 8926TIP3   OH226741   3.420   3.062   0.087  0.4145 -0.0082  0.0103
 8926TIP3    H126742   3.479   3.001   0.044 -0.0206 -0.6721  0.3264
 8926TIP3    H226743   3.473   3.106   0.153  0.6026 -0.4853  0.1832
 8927TIP3   OH226744   6.040   4.928   3.982 -0.0850  0.0806  0.2538
 8927TIP3    H126745   5.984   4.935   4.059 -0.3211  1.9044 -0.0355
 8927TIP3    H226746   6.121   4.972   4.008  0.3124 -0.4012 -0.1401
 8928TIP3   OH226747   1.279   6.719   0.131 -0.1882  0.1082  0.2655
 8928TIP3    H126748   1.234   6.636   0.117  0.2883 -0.2468  0.7852
 8928TIP3    H226749   1.352   6.697   0.190  1.8563  0.2670 -2.0575
 8929TIP3   OH226750   6.555   5.107   1.316 -0.2868 -0.1687  0.0148
 8929TIP3    H126751   6.500   5.174   1.276  0.5995  1.0345  0.7390
 8929TIP3    H226752   6.569   5.043   1.246 -0.7657  0.6403 -0.8525
 8930TIP3   OH226753   1.187   3.914   4.144  0.2229  0.2886 -0.7157
 8930TIP3    H126754   1.265   3.889   4.194  0.2684 -1.4560 -1.5873
 8930TIP3    H226755   1.174   3.842   4.082 -1.2684  1.2193 -1.5427
 8931TIP3   OH226756   6.196   3.147   1.030  0.0448  0.1917  0.2830
 8931TIP3    H126757   6.109   3.187   1.038  0.4429  0.9109  1.3113
 8931TIP3    H226758   6.214   3.111   1.117 -0.6623 -3.1217 -0.8202
 8932TIP3   OH226759   2.374   5.843   2.698 -0.0224  0.0142 -0.3065
 8932TIP3    H126760   2.306   5.908   2.681 -0.4393  0.0712  1.4801
 8932TIP3    H226761   2.365   5.821   2.790  0.9480 -1.6441 -0.5593
 8933TIP3   OH226762   4.608   5.490   0.737  0.2418 -0.5784 -0.3228
 8933TIP3    H126763   4.634   5.537   0.816  0.5249 -2.0810  0.5050
 8933TIP3    H226764   4.541   5.428   0.766 -2.4711  1.3841 -1.9464
 8934TIP3   OH226765   1.007   6.416   5.064  0.4368 -0.2203  0.1579
 8934TIP3    H126766   0.952   6.412   4.986  0.6207 -1.7427  0.0821
 8934TIP3    H226767   1.074   6.350   5.050  0.4334 -0.5758  1.6283
 8935TIP3   OH226768   5.270   5.617   2.276  0.0789  0.3087  0.4724
 8935TIP3    H126769   5.337   5.550   2.265  0.3046  0.2890  1.8123
 8935TIP3    H226770   5.247   5.643   2.187  1.2135 -0.3301 -0.0270
 8936TIP3   OH226771   5.045   3.513   3.305 -0.2248  0.1789  0.0686
 8936TIP3    H126772   4.968   3.566   3.286 -0.7775 -0.7908 -0.5056
 8936TIP3    H226773   5.043   3.501   3.400  0.2975  1.7253  0.2972
 8937TIP3   OH226774   4.258   1.108   0.857 -0.0464 -0.1052 -0.4471
 8937TIP3    H126775   4.314   1.082   0.783 -0.3743 -2.1780 -0.0154
 8937TIP3    H226776   4.304   1.076   0.934  0.1583  1.8154  0.2980
 8938TIP3   OH226777   1.447   3.635   2.677  0.3799  0.1126 -0.0082
 8938TIP3    H126778   1.523   3.654   2.622  0.1143 -0.6250 -0.6465
 8938TIP3    H226779   1.407   3.721   2.693  1.2982  0.4968  0.2757
 8939TIP3   OH226780   0.644   4.247   0.630 -0.1660  0.0597  0.0570
 8939TIP3    H126781   0.680   4.185   0.567  0.4119 -0.0251  0.4648
 8939TIP3    H226782   0.709   4.252   0.699 -0.7944  0.1516  0.6548
 8940TIP3   OH226783   6.437   3.579   0.438  0.1923  0.1574  0.4929
 8940TIP3    H126784   6.434   3.497   0.487 -0.4630 -0.7596 -1.0006
 8940TIP3    H226785   6.400   3.644   0.497 -0.9087 -0.9724  1.0828
 8941TIP3   OH226786   0.148   4.141   2.598  0.1048  0.4266 -0.2902
 8941TIP3    H126787   0.149   4.062   2.544  0.2226  0.8727 -0.9437
 8941TIP3    H226788   0.198   4.117   2.676  2.9443  0.8234 -1.8546
 8942TIP3   OH226789   3.670   5.220   5.039 -0.3212 -0.1597  0.1969
 8942TIP3    H126790   3.753   5.186   5.073 -0.6655 -0.9995  0.2197
 8942TIP3    H226791   3.695   5.283   4.973  0.3397 -0.5601  0.0599
 8943TIP3   OH226792   1.501   2.823   2.643  0.2306  0.1168  0.5021
 8943TIP3    H126793   1.591   2.802   2.617  0.5116  1.0565  0.6979
 8943TIP3    H226794   1.504   2.915   2.667 -1.1480  0.6015 -1.0316
 8944TIP3   OH226795   2.053   0.650   1.928 -0.1640 -0.0880  0.6378
 8944TIP3    H126796   2.005   0.582   1.880 -0.1243 -1.6652  2.6735
 8944TIP3    H226797   2.000   0.729   1.918 -0.5300 -0.5464 -1.3032
 8945TIP3   OH226798   0.237   3.801   0.841  0.8087 -0.1147  0.1701
 8945TIP3    H126799   0.219   3.854   0.763  0.4792 -1.6092 -0.7957
 8945TIP3    H226800   0.158   3.750   0.854  1.2690 -0.6764  0.8340
 8946TIP3   OH226801   4.260   4.845   1.840  0.8023 -0.7700  0.3038
 8946TIP3    H126802   4.310   4.841   1.922  0.2442  0.0254  0.6922
 8946TIP3    H226803   4.243   4.938   1.827  1.4240 -0.8275 -1.0684
 8947TIP3   OH226804   5.997   1.379   4.675 -0.0086 -0.1789 -0.2436
 8947TIP3    H126805   6.012   1.432   4.753 -2.2535 -0.0466  0.1558
 8947TIP3    H226806   5.903   1.361   4.675  0.3940 -2.6953 -1.3375
 8948TIP3   OH226807   5.504   5.061   5.564  0.5662  0.1959 -0.4498
 8948TIP3    H126808   5.472   5.061   5.655  1.1330  1.5233 -0.2176
 8948TIP3    H226809   5.594   5.094   5.571  1.1500 -1.1502 -1.3449
 8949TIP3   OH226810   2.638   5.083   3.423 -0.3343 -0.0427 -0.5154
 8949TIP3    H126811   2.568   5.146   3.441  0.5610  1.6609 -2.4856
 8949TIP3    H226812   2.611   5.040   3.342  0.3369 -0.2360 -0.6399
 8950TIP3   OH226813   1.769   2.192   0.557 -0.1950  0.6917  0.4974
 8950TIP3    H126814   1.841   2.183   0.495  0.9234 -0.9476  1.9068
 8950TIP3    H226815   1.714   2.115   0.542  0.6686 -0.3121  2.1497
 8951TIP3   OH226816   0.291   5.536   4.879 -1.1081 -0.2298  0.3000
 8951TIP3    H126817   0.329   5.498   4.799  2.1896 -0.0312  1.6247
 8951TIP3    H226818   0.262   5.623   4.852  0.7202  0.1660 -0.5618
 8952TIP3   OH226819   6.433   4.237   2.025  0.2153  0.0249 -0.0926
 8952TIP3    H126820   6.443   4.211   2.116 -0.7221  0.9861  0.3112
 8952TIP3    H226821   6.394   4.325   2.030  1.3044  0.6077 -1.3996
 8953TIP3   OH226822   3.746   2.042   4.983  0.1027 -0.4158  0.0440
 8953TIP3    H126823   3.733   2.051   4.889  0.0548  0.7609  0.1544
 8953TIP3    H226824   3.796   2.120   5.008  2.6621 -2.0813  0.5306
 8954TIP3   OH226825   6.686   3.342   3.704 -0.3436 -0.0358  0.5149
 8954TIP3    H126826   6.744   3.410   3.738 -0.9547 -0.0793  1.7006
 8954TIP3    H226827   6.743   3.266   3.694 -0.3381 -0.3738  2.6102
 8955TIP3   OH226828   6.468   2.507   4.949 -0.7160  0.4907  0.1841
 8955TIP3    H126829   6.411   2.499   5.025 -1.3653 -0.1661 -0.3588
 8955TIP3    H226830   6.552   2.538   4.984 -0.8783 -0.2081  1.2094
 8956TIP3   OH226831   4.978   4.284   5.590 -0.2114  0.1389  0.4052
 8956TIP3    H126832   4.938   4.300   5.504 -0.9436  0.6997  0.8355
 8956TIP3    H226833   4.925   4.215   5.629 -0.8879  0.9889  1.0403
 8957TIP3   OH226834   5.717   0.345   5.096 -0.5548  0.2727 -0.4867
 8957TIP3    H126835   5.657   0.404   5.143 -1.7892 -1.0350 -0.3528
 8957TIP3    H226836   5.727   0.270   5.155  0.7287  0.1782 -0.8006
 8958TIP3   OH226837   2.495   3.800   3.890  0.1287 -0.0389  0.3751
 8958TIP3    H126838   2.561   3.735   3.915 -0.0209 -1.2990 -2.1663
 8958TIP3    H226839   2.543   3.866   3.840 -0.2328  0.0813  0.1809
 8959TIP3   OH226840   7.057   0.040   5.169 -0.0298  0.0743  0.2048
 8959TIP3    H126841   6.970   0.067   5.200  0.7531  0.2648  2.3886
 8959TIP3    H226842   7.072  -0.044   5.212  0.4873 -0.4575 -0.9606
 8960TIP3   OH226843   4.907   0.894   3.197  0.1555  0.3963 -0.2443
 8960TIP3    H126844   4.837   0.830   3.208 -0.2160  0.6484 -1.0714
 8960TIP3    H226845   4.977   0.846   3.152  0.7635 -0.0122  1.0876
 8961TIP3   OH226846   7.150   3.692   1.359  0.9584  0.0332 -0.4979
 8961TIP3    H126847   7.211   3.755   1.320  0.0668  0.7327 -0.8153
 8961TIP3    H226848   7.064   3.717   1.323  0.4559 -0.7979  0.0858
 8962TIP3   OH226849   3.688   5.453   2.680 -0.3119 -0.3343 -0.1675
 8962TIP3    H126850   3.777   5.469   2.712  0.0767  1.6166 -1.9776
 8962TIP3    H226851   3.691   5.364   2.644  1.3597  0.1571 -1.3981
 8963TIP3   OH226852   4.732   3.898   3.365  0.2588  0.3844  0.2811
 8963TIP3    H126853   4.659   3.874   3.422 -1.3473  2.6986 -0.6798
 8963TIP3    H226854   4.791   3.948   3.422 -0.3150  0.9171  0.4120
 8964TIP3   OH226855   3.364   6.803   2.937  0.9793  0.2331  0.2440
 8964TIP3    H126856   3.399   6.794   3.025  0.0489 -0.3906  0.5588
 8964TIP3    H226857   3.319   6.720   2.920  1.9483 -0.0578 -1.1885
 8965TIP3   OH226858   4.864   6.009   3.101  0.0846 -0.3714 -0.1088
 8965TIP3    H126859   4.823   5.949   3.038 -1.3943  0.5569 -0.0846
 8965TIP3    H226860   4.812   5.998   3.181  2.2887 -1.9559  1.2044
 8966TIP3   OH226861   2.618   6.623   0.080 -0.4543 -0.1057 -0.3241
 8966TIP3    H126862   2.541   6.679   0.075 -1.1470 -1.1015 -1.1228
 8966TIP3    H226863   2.616   6.571  -0.001  1.5368  0.4652 -0.7972
 8967TIP3   OH226864   0.706   4.351   2.953  0.0063 -0.2367  0.0373
 8967TIP3    H126865   0.741   4.285   3.013 -1.2314 -0.3573  0.6645
 8967TIP3    H226866   0.783   4.388   2.910  1.1836  1.3328  3.2047
 8968TIP3   OH226867   0.742   2.879   3.627 -0.2612 -0.6718 -0.2532
 8968TIP3    H126868   0.812   2.933   3.663  0.9663 -1.5365 -1.2359
 8968TIP3    H226869   0.717   2.820   3.698 -0.6721  0.2609  0.3963
 8969TIP3   OH226870   0.296   0.447   5.176 -0.1505  0.0681  0.0409
 8969TIP3    H126871   0.314   0.373   5.234  0.3647  0.9344  1.0385
 8969TIP3    H226872   0.350   0.518   5.212 -3.0385  1.8732  1.1621
 8970TIP3   OH226873   2.854   2.204   3.123 -0.4050  0.0581 -0.7265
 8970TIP3    H126874   2.777   2.148   3.127  0.3917 -1.1336 -1.2882
 8970TIP3    H226875   2.884   2.211   3.214 -0.5580 -0.3755 -0.6395
 8971TIP3   OH226876   0.332   4.784   1.160 -0.3671  0.3500  0.3138
 8971TIP3    H126877   0.358   4.802   1.250  1.7177  1.8447 -0.5114
 8971TIP3    H226878   0.385   4.708   1.134  0.1996  0.8869 -0.1212
 8972TIP3   OH226879   6.339   2.523   2.681 -0.3598 -0.7672  0.0399
 8972TIP3    H126880   6.259   2.476   2.656  0.3712 -1.7202 -0.5679
 8972TIP3    H226881   6.407   2.489   2.623  0.4698  0.1300  0.4511
 8973TIP3   OH226882   0.493   3.279   0.412  0.0228 -0.3413 -0.4774
 8973TIP3    H126883   0.583   3.310   0.401  0.3918 -1.7593 -1.8194
 8973TIP3    H226884   0.492   3.238   0.498  0.3419  0.6442  0.0141
 8974TIP3   OH226885   2.345   5.275   0.284 -0.8905 -0.0351 -0.2834
 8974TIP3    H126886   2.319   5.300   0.373  0.5743  1.2379 -0.1691
 8974TIP3    H226887   2.438   5.299   0.279 -0.5800 -1.3790 -1.7126
 8975TIP3   OH226888   4.908   1.970   0.210 -0.6417  0.1857 -0.5252
 8975TIP3    H126889   4.866   2.008   0.287 -0.7309 -1.0063  0.0407
 8975TIP3    H226890   4.998   1.953   0.237 -1.1808 -2.1425  0.0663
 8976TIP3   OH226891   0.212   4.361   3.786 -0.2585 -0.1415 -0.1780
 8976TIP3    H126892   0.252   4.443   3.757 -0.1252 -1.0157 -2.6340
 8976TIP3    H226893   0.130   4.388   3.827  0.6247  1.3214  0.7670
 8977TIP3   OH226894   5.152   6.402   1.454  0.3403 -0.2939  0.4281
 8977TIP3    H126895   5.191   6.316   1.472  0.5923 -0.0715  0.9869
 8977TIP3    H226896   5.208   6.439   1.385  0.5946 -0.3329  0.6106
 8978TIP3   OH226897   0.578   3.241   1.851 -0.8027 -0.9980 -0.1822
 8978TIP3    H126898   0.584   3.145   1.852  0.2967 -0.9846  2.5701
 8978TIP3    H226899   0.498   3.261   1.900 -0.7388 -0.4852 -0.2796
 8979TIP3   OH226900   4.169   1.913   3.150 -0.5713 -0.3306  0.6315
 8979TIP3    H126901   4.123   1.836   3.117  0.5958 -0.8867  0.2482
 8979TIP3    H226902   4.241   1.877   3.202 -1.2842  0.5229  2.2893
 8980TIP3   OH226903   4.727   4.650   0.929  0.3542 -0.3432 -0.1908
 8980TIP3    H126904   4.792   4.649   0.859  0.4123 -1.1782 -0.1369
 8980TIP3    H226905   4.680   4.732   0.917  1.1748  0.1056 -0.4523
 8981TIP3   OH226906   3.755   4.516   3.275 -0.4937  0.3443  0.5126
 8981TIP3    H126907   3.832   4.571   3.290 -1.4446  1.9164 -0.0967
 8981TIP3    H226908   3.725   4.541   3.188 -0.8418 -1.3277  0.1319
 8982TIP3   OH226909   6.327   3.243   1.729  0.0808  0.5138 -0.2055
 8982TIP3    H126910   6.395   3.205   1.784  0.2544  0.5748 -0.3745
 8982TIP3    H226911   6.245   3.209   1.764  0.2545 -0.3071 -0.5776
 8983TIP3   OH226912   5.375   4.797   1.271  0.2590  0.1491 -0.2431
 8983TIP3    H126913   5.441   4.803   1.340 -0.9537 -3.4929  1.4925
 8983TIP3    H226914   5.423   4.814   1.190  2.4716  1.2159  1.2079
 8984TIP3   OH226915   0.481   5.040   0.669  0.1898  0.4234 -0.4110
 8984TIP3    H126916   0.427   5.119   0.670  0.4715  0.6244  1.2907
 8984TIP3    H226917   0.518   5.037   0.581 -1.0377  1.3386 -0.9864
 8985TIP3   OH226918   0.868   0.128   2.227 -0.3150  0.7171  0.0060
 8985TIP3    H126919   0.932   0.106   2.159  0.0703  0.2752  0.5038
 8985TIP3    H226920   0.854   0.046   2.274 -0.8632  0.9331  0.2225
 8986TIP3   OH226921   0.780   0.372   1.839  0.6892 -0.3823 -0.2595
 8986TIP3    H126922   0.700   0.326   1.815  0.4040  0.5132 -1.0868
 8986TIP3    H226923   0.822   0.392   1.756  1.2020  0.1475  0.1179
 8987TIP3   OH226924   6.575   2.788   3.303 -0.2707 -0.3061  0.2071
 8987TIP3    H126925   6.501   2.778   3.363  0.0265  1.2917  0.8881
 8987TIP3    H226926   6.639   2.840   3.352  1.9643 -2.8148  0.1668
 8988TIP3   OH226927   1.855   6.690   3.898 -0.6413 -0.2428  0.1158
 8988TIP3    H126928   1.782   6.715   3.954 -1.3329  0.4869 -1.0782
 8988TIP3    H226929   1.829   6.718   3.810  0.0899 -2.0103 -0.7136
 8989TIP3   OH226930   1.341   2.367   5.279 -0.0593  0.1763  0.1957
 8989TIP3    H126931   1.368   2.376   5.370 -0.4886  2.7832  0.1525
 8989TIP3    H226932   1.411   2.410   5.229 -0.5782  0.1687 -0.5662
 8990TIP3   OH226933   3.990   2.396   0.308  0.1271  0.2287 -0.1236
 8990TIP3    H126934   3.925   2.456   0.346  0.9829  1.9759 -1.2720
 8990TIP3    H226935   4.070   2.414   0.356  0.6603  0.8500 -1.2013
 8991TIP3   OH226936   0.041   6.766   3.542 -0.1615 -0.9160 -0.0206
 8991TIP3    H126937   0.101   6.750   3.469  0.8290 -0.2790  0.6342
 8991TIP3    H226938  -0.005   6.682   3.553  0.7606 -1.4945 -0.3992
 8992TIP3   OH226939   4.121   3.600   1.756  0.0746  0.0446  0.1317
 8992TIP3    H126940   4.108   3.691   1.729 -2.1426 -0.6600 -1.4572
 8992TIP3    H226941   4.095   3.599   1.848 -0.4494  0.9325  0.0088
 8993TIP3   OH226942   6.290   2.160   1.323 -0.0147  0.3942 -0.4258
 8993TIP3    H126943   6.301   2.208   1.405 -1.5576  1.8499 -1.0280
 8993TIP3    H226944   6.300   2.068   1.348  0.7268  0.8806  1.1677
 8994TIP3   OH226945   3.857   1.176   3.126 -0.1861  0.1287  0.7998
 8994TIP3    H126946   3.940   1.173   3.078  0.1338  0.5192  1.3047
 8994TIP3    H226947   3.796   1.127   3.072  0.2677  0.2008  0.2053
 8995TIP3   OH226948   6.217   5.069   5.855  0.3319 -0.2852 -0.4413
 8995TIP3    H126949   6.173   5.150   5.877  0.9791  0.8107 -2.9103
 8995TIP3    H226950   6.310   5.089   5.865  0.4716 -1.3620  0.7992
 8996TIP3   OH226951   6.874   1.374   2.870  0.0058 -0.5555  0.1762
 8996TIP3    H126952   6.936   1.377   2.798  0.3433  1.0063  0.4828
 8996TIP3    H226953   6.915   1.317   2.935 -0.3030 -1.9737 -0.8440
 8997TIP3   OH226954   1.532   6.111   4.490  0.0537 -0.6150 -0.1719
 8997TIP3    H126955   1.459   6.159   4.453  0.5516  1.0390  0.8894
 8997TIP3    H226956   1.541   6.145   4.579  0.8102 -2.2717  0.4239
 8998TIP3   OH226957   5.655   4.117   0.956  0.2545 -0.4662  0.7146
 8998TIP3    H126958   5.567   4.111   0.992 -0.0779  0.0321 -0.0088
 8998TIP3    H226959   5.703   4.171   1.019 -0.4750  0.8833  0.1403
 8999TIP3   OH226960   1.175   4.482   3.276  1.0797 -0.3537 -0.1296
 8999TIP3    H126961   1.156   4.478   3.369 -0.1066  1.6704 -0.2107
 8999TIP3    H226962   1.089   4.489   3.234  1.5692 -1.6359 -1.4356
 9000TIP3   OH226963   3.883   2.749   1.871 -0.1898  0.0509  0.1829
 9000TIP3    H126964   3.968   2.773   1.909 -1.2379  1.3736  1.8707
 9000TIP3    H226965   3.858   2.825   1.819  0.3601 -0.9952 -1.6823
 9001TIP3   OH226966   3.298   6.338   3.858  0.0504 -0.2801  0.4211
 9001TIP3    H126967   3.320   6.296   3.774  0.0717 -1.5569  1.0486
 9001TIP3    H226968   3.373   6.319   3.915 -0.0291  0.4603  0.7848
 9002TIP3   OH226969   6.638   4.907   2.953 -0.6716  0.2122  0.0877
 9002TIP3    H126970   6.558   4.940   2.993 -1.2446  0.4679 -1.2134
 9002TIP3    H226971   6.698   4.981   2.955 -1.0845  0.5689 -0.5328
 9003TIP3   OH226972   6.757   5.201   4.140 -0.4753  0.4164  0.2708
 9003TIP3    H126973   6.775   5.231   4.229  0.4287 -2.4312  1.1249
 9003TIP3    H226974   6.748   5.282   4.090 -1.8233  2.1512  3.0451
 9004TIP3   OH226975   0.813   2.852   1.477  0.6759 -0.3693  0.3193
 9004TIP3    H126976   0.898   2.858   1.520  0.6299 -2.3053  0.8027
 9004TIP3    H226977   0.750   2.858   1.549  0.4151  0.5374  0.0226
 9005TIP3   OH226978   2.750   2.730   1.950 -0.2714  0.1900 -0.2399
 9005TIP3    H126979   2.826   2.753   2.002 -1.1203  0.7581  0.7891
 9005TIP3    H226980   2.735   2.638   1.968  0.9025 -0.2706 -1.4422
 9006TIP3   OH226981   0.547   0.666   3.134  0.3106 -0.4657  0.3535
 9006TIP3    H126982   0.452   0.675   3.136  0.1714 -0.4793 -2.7299
 9006TIP3    H226983   0.579   0.732   3.197 -1.6340  1.7942 -0.8951
 9007TIP3   OH226984   5.583   6.108   5.479 -0.4349 -0.0125  0.4773
 9007TIP3    H126985   5.636   6.136   5.554 -0.1057  0.4074  0.0901
 9007TIP3    H226986   5.611   6.165   5.407 -2.5437  1.3107  0.6408
 9008TIP3   OH226987   4.745   4.504   2.323 -0.0467  0.2317 -0.5260
 9008TIP3    H126988   4.814   4.480   2.385 -2.0026  0.7332  1.9978
 9008TIP3    H226989   4.770   4.591   2.292  0.8922  0.0390 -0.3389
 9009TIP3   OH226990   7.188   1.636   1.752  1.0058  0.3165  0.1305
 9009TIP3    H126991   7.237   1.682   1.683 -0.0176  1.9772  0.4543
 9009TIP3    H226992   7.119   1.697   1.777  0.5944 -0.7579  1.7781
 9010TIP3   OH226993   4.355   2.557   2.676 -0.0799  0.4413 -0.6219
 9010TIP3    H126994   4.370   2.577   2.583 -0.3276  1.1778 -0.5146
 9010TIP3    H226995   4.443   2.546   2.712  0.1225  1.7977 -0.6147
 9011TIP3   OH226996   5.224   0.201   3.154 -0.0722 -0.1740  1.2938
 9011TIP3    H126997   5.259   0.288   3.173 -2.6326  1.0466  0.8980
 9011TIP3    H226998   5.199   0.205   3.062 -1.7272 -0.7188  1.6897
 9012TIP3   OH226999   5.992   6.711   4.217 -0.0202  0.3549  0.0411
 9012TIP3    H127000   5.909   6.689   4.261  0.8566 -0.7187  1.2577
 9012TIP3    H227001   6.051   6.735   4.289  1.2692 -0.7843 -0.5890
 9013TIP3   OH227002   0.277   0.604   1.833 -0.4163  0.4028 -0.4207
 9013TIP3    H127003   0.357   0.651   1.806 -0.8475  0.9682 -0.7424
 9013TIP3    H227004   0.249   0.649   1.912 -0.1909 -0.0649 -0.0697
 9014TIP3   OH227005   1.757   0.519   3.262  0.3848  0.2076  0.2570
 9014TIP3    H127006   1.769   0.509   3.357 -0.8086 -3.5831  0.1980
 9014TIP3    H227007   1.845   0.512   3.226  0.8377  1.5301  1.0252
 9015TIP3   OH227008   4.017   6.220   0.232 -0.5353  0.3677 -0.4588
 9015TIP3    H127009   4.111   6.228   0.218 -0.6281 -1.6702 -3.1329
 9015TIP3    H227010   4.000   6.269   0.312  2.9089  0.1037  0.5924
 9016TIP3   OH227011   7.161   3.940   1.632 -0.2080  0.1439 -0.3851
 9016TIP3    H127012   7.156   3.991   1.551  1.2299 -0.6437 -1.0164
 9016TIP3    H227013   7.245   3.965   1.671 -1.3342  1.3098  1.4718
 9017TIP3   OH227014   3.031   4.602   1.437  0.2668 -0.7542 -0.1213
 9017TIP3    H127015   3.073   4.525   1.398  0.4192 -1.0258  0.5704
 9017TIP3    H227016   3.020   4.580   1.529 -0.7400 -0.4007 -0.1392
 9018TIP3   OH227017   0.095   6.582   4.015  0.1905 -0.3314  0.4980
 9018TIP3    H127018   0.124   6.510   3.959 -0.7510 -2.0703  2.1259
 9018TIP3    H227019   0.053   6.643   3.955  0.6848 -1.3104 -0.9089
 9019TIP3   OH227020   5.154   0.960   3.507 -0.0324  0.1788 -0.3676
 9019TIP3    H127021   5.141   0.901   3.581 -1.8399 -0.6387 -1.2689
 9019TIP3    H227022   5.098   1.036   3.527 -0.0685  0.2187 -0.6180
 9020TIP3   OH227023   1.636   0.623   2.017  0.9017  0.4988 -0.6693
 9020TIP3    H127024   1.703   0.597   2.081  0.3434  0.8784  0.0871
 9020TIP3    H227025   1.565   0.560   2.031  0.9915  0.2588 -1.2868
 9021TIP3   OH227026   0.396   5.175   1.531 -0.0737 -0.0133 -0.9717
 9021TIP3    H127027   0.401   5.270   1.538  1.2140 -0.0970 -0.4739
 9021TIP3    H227028   0.415   5.157   1.439  1.6106  0.1398 -0.6932
 9022TIP3   OH227029   2.154   6.167   1.318  0.0975  0.1903  0.3785
 9022TIP3    H127030   2.172   6.122   1.401 -0.1712 -2.5367 -0.9174
 9022TIP3    H227031   2.203   6.118   1.253  0.7015  2.5724 -1.0767
 9023TIP3   OH227032   4.908   1.664   0.992  0.4015  0.1441 -0.1403
 9023TIP3    H127033   4.996   1.628   1.000 -0.3144 -1.4664  0.8367
 9023TIP3    H227034   4.860   1.602   0.938 -0.1924  0.9113 -0.5200
 9024TIP3   OH227035   4.677   4.944   3.469  0.2990 -0.0281 -0.0600
 9024TIP3    H127036   4.654   4.877   3.533 -2.0462 -1.2503 -2.0005
 9024TIP3    H227037   4.734   4.900   3.406 -1.1383 -0.2482 -1.2673
 9025TIP3   OH227038   2.840   4.654   5.615 -0.0980  0.1954 -0.4700
 9025TIP3    H127039   2.876   4.660   5.703  2.3054  0.7922 -1.4130
 9025TIP3    H227040   2.808   4.742   5.596 -0.2678  0.1600 -0.3587
 9026TIP3   OH227041   1.407   2.605   2.325 -0.3062  0.4232 -0.1525
 9026TIP3    H127042   1.487   2.589   2.376 -0.0559  0.4406 -0.5382
 9026TIP3    H227043   1.395   2.700   2.329 -1.1057  0.3016  1.0975
 9027TIP3   OH227044   3.920   4.594   1.481  0.4074 -0.0896 -0.2221
 9027TIP3    H127045   3.895   4.518   1.429  0.9379 -0.2431 -0.2578
 9027TIP3    H227046   3.995   4.564   1.533 -1.4443 -0.6436  2.3308
 9028TIP3   OH227047   4.450   3.359   4.653  0.0980  0.0535  0.3234
 9028TIP3    H127048   4.397   3.389   4.579 -1.3278  0.4029  1.4381
 9028TIP3    H227049   4.476   3.269   4.629  1.1359  0.7322 -1.3242
 9029TIP3   OH227050   0.937   4.044   4.097  0.7346  0.1661 -0.2646
 9029TIP3    H127051   0.878   3.973   4.072  0.5572  0.0328  0.4884
 9029TIP3    H227052   1.018   3.999   4.122  1.5425  0.4054 -2.2499
 9030TIP3   OH227053   4.320   5.147   5.121 -0.1634  0.1039  0.2364
 9030TIP3    H127054   4.241   5.153   5.067 -0.2298 -0.7915  0.2157
 9030TIP3    H227055   4.375   5.220   5.092  0.1069 -0.7452 -1.5472
 9031TIP3   OH227056   3.553   2.588   5.871  0.8499 -0.0358 -0.0200
 9031TIP3    H127057   3.491   2.535   5.821  0.8306 -1.1656  1.1654
 9031TIP3    H227058   3.638   2.545   5.857  1.0690  0.4220 -0.1313
 9032TIP3   OH227059   1.109   5.884   0.070 -0.3320  0.3826 -0.1508
 9032TIP3    H127060   1.035   5.877   0.009 -0.4236  0.1515 -0.0125
 9032TIP3    H227061   1.087   5.960   0.124 -0.5955  0.1593  0.0608
 9033TIP3   OH227062   2.661   0.587   4.916  0.1342 -0.0191  0.5274
 9033TIP3    H127063   2.697   0.553   4.997 -0.8449  0.0258  0.9997
 9033TIP3    H227064   2.737   0.612   4.864  0.7540  0.5747  1.6968
 9034TIP3   OH227065   0.702   0.437   4.071  0.3800 -0.5895 -0.2198
 9034TIP3    H127066   0.740   0.431   3.983  0.3643 -0.5956 -0.2260
 9034TIP3    H227067   0.621   0.487   4.058 -0.7960 -2.4832 -0.6050
 9035TIP3   OH227068   0.475   1.751   0.849 -0.4872  0.3212  0.4312
 9035TIP3    H127069   0.528   1.698   0.789 -1.1212  1.4532 -1.1986
 9035TIP3    H227070   0.384   1.733   0.824 -0.7754  0.6547  1.1949
 9036TIP3   OH227071   1.440   6.393   3.561  0.2342 -0.0901 -0.2919
 9036TIP3    H127072   1.435   6.321   3.625 -0.1136 -0.3373 -0.5931
 9036TIP3    H227073   1.509   6.366   3.501 -0.5943 -0.6665 -1.0013
 9037TIP3   OH227074   4.499   5.183   5.754 -0.0096  0.4501 -0.4474
 9037TIP3    H127075   4.585   5.223   5.767  0.8241 -1.5861  0.7480
 9037TIP3    H227076   4.437   5.251   5.780  1.2445  1.6148 -0.3513
 9038TIP3   OH227077   0.548   1.746   2.030 -0.0163 -0.1098 -0.4063
 9038TIP3    H127078   0.562   1.832   2.070 -0.1816 -0.6989  0.9758
 9038TIP3    H227079   0.454   1.743   2.013 -0.3986 -0.8509  1.6212
 9039TIP3   OH227080   2.060   4.572   1.006  0.2836  0.4488  0.3799
 9039TIP3    H127081   2.051   4.592   1.099 -0.0217  1.3622  0.1627
 9039TIP3    H227082   2.136   4.514   1.001  0.7350  0.9590  1.1239
 9040TIP3   OH227083   3.295   2.111   0.763 -0.5098 -0.7181 -0.5324
 9040TIP3    H127084   3.322   2.177   0.700  0.4592  1.2850  1.7963
 9040TIP3    H227085   3.204   2.134   0.784 -0.1616 -0.0191  0.3040
 9041TIP3   OH227086   7.173   3.770   3.625 -0.3385 -0.1687 -0.5536
 9041TIP3    H127087   7.098   3.727   3.585  0.9573 -2.6269 -0.5423
 9041TIP3    H227088   7.179   3.855   3.581 -1.5122 -1.0227 -2.4866
 9042TIP3   OH227089   1.408   2.243   3.160 -0.2979  0.1302  0.3137
 9042TIP3    H127090   1.387   2.329   3.123  1.4728  1.1052  1.4025
 9042TIP3    H227091   1.487   2.259   3.212  0.0177 -2.1617  0.6177
 9043TIP3   OH227092   0.757   4.759   3.760  0.0689 -0.3700 -0.1169
 9043TIP3    H127093   0.782   4.838   3.807 -0.4995 -0.7105  0.7737
 9043TIP3    H227094   0.821   4.693   3.788  1.7437  0.1995 -2.3045
 9044TIP3   OH227095   4.826   1.122   5.107 -0.4306 -0.5145  0.0145
 9044TIP3    H127096   4.878   1.078   5.040  2.0647  0.7959  0.9946
 9044TIP3    H227097   4.816   1.057   5.176 -0.9993 -1.1008 -0.6070
 9045TIP3   OH227098   4.270   4.303   1.749  0.2465  0.0478 -0.2854
 9045TIP3    H127099   4.248   4.279   1.839  3.0353 -0.2917  0.4016
 9045TIP3    H227100   4.296   4.220   1.708  2.3013  0.6489 -0.3049
 9046TIP3   OH227101   1.228   1.068   0.307 -0.4004 -0.8192 -0.4982
 9046TIP3    H127102   1.156   1.097   0.251 -0.5535  0.1056  0.1482
 9046TIP3    H227103   1.270   1.149   0.335  1.2242 -1.3647 -1.2641
 9047TIP3   OH227104   1.148   5.758   1.129 -0.5676 -0.5598  0.6244
 9047TIP3    H127105   1.190   5.755   1.215 -0.0290  1.6763  0.5099
 9047TIP3    H227106   1.132   5.851   1.113  0.5057 -0.7579 -2.2543
 9048TIP3   OH227107   1.060   2.790   1.991  0.1565  0.0101  0.5660
 9048TIP3    H127108   1.035   2.723   1.927 -1.1980  1.3983 -0.4396
 9048TIP3    H227109   1.078   2.741   2.071  2.0143 -1.8028 -0.8630
 9049TIP3   OH227110   0.520   2.052   1.322 -0.1987  0.2685 -0.0668
 9049TIP3    H127111   0.498   1.994   1.395 -1.6616  1.5634  0.5850
 9049TIP3    H227112   0.610   2.030   1.300 -1.0432 -3.1828 -0.7762
 9050TIP3   OH227113   1.995   5.870   4.700  0.8341 -0.8684  0.0788
 9050TIP3    H127114   2.043   5.787   4.703  0.1261 -1.3039 -0.4099
 9050TIP3    H227115   2.024   5.917   4.778 -0.0156 -2.2714  1.2803
 9051TIP3   OH227116   6.242   3.146   4.328 -0.4314  0.1129  0.3571
 9051TIP3    H127117   6.201   3.144   4.242 -2.5860 -1.6803  1.3029
 9051TIP3    H227118   6.221   3.060   4.366  2.9332 -0.3187  1.5954
 9052TIP3   OH227119   0.922   1.037   3.342 -0.2264  0.2113  0.0207
 9052TIP3    H127120   1.008   1.003   3.315 -0.9791 -1.8043  0.0006
 9052TIP3    H227121   0.861   0.967   3.321 -1.7217  1.1027  1.1977
 9053TIP3   OH227122   5.038   4.468   3.954 -0.0227  0.3065  0.0439
 9053TIP3    H127123   5.041   4.511   4.039  0.5401  0.1838  0.0851
 9053TIP3    H227124   4.945   4.447   3.941 -0.0433 -0.1348  0.8513
 9054TIP3   OH227125   3.625   1.320   2.995 -0.3536  0.1223  0.5449
 9054TIP3    H127126   3.708   1.288   3.030  0.2230  1.9557  0.9825
 9054TIP3    H227127   3.631   1.304   2.901 -0.0454 -0.8655  0.7203
 9055TIP3   OH227128   1.795   1.947   0.416 -0.6401 -0.5242 -0.4007
 9055TIP3    H127129   1.852   1.999   0.360  0.5855  0.2729  1.4899
 9055TIP3    H227130   1.779   1.867   0.367 -0.7271  0.6785 -2.4213
 9056TIP3   OH227131   1.243   0.217   3.307  0.2270  0.3106 -0.0047
 9056TIP3    H127132   1.171   0.223   3.369  0.7214 -0.1083  0.6245
 9056TIP3    H227133   1.200   0.216   3.221 -0.4487  1.0852  0.3122
 9057TIP3   OH227134   5.383   3.648   4.477  0.1900  0.0781  0.4890
 9057TIP3    H127135   5.463   3.596   4.481  0.1193 -0.1437 -0.5821
 9057TIP3    H227136   5.349   3.632   4.389 -1.6360 -0.7430  1.2890
 9058TIP3   OH227137   5.287   6.799   0.282 -0.7090  0.1804 -0.0340
 9058TIP3    H127138   5.379   6.816   0.262 -0.3249  0.2333  1.6095
 9058TIP3    H227139   5.287   6.713   0.324 -1.5791 -0.3273 -1.0271
 9059TIP3   OH227140   6.118   4.692   1.767 -0.2804  0.6777 -0.3780
 9059TIP3    H127141   6.115   4.788   1.762 -0.1784  0.6552 -1.0142
 9059TIP3    H227142   6.149   4.673   1.856 -0.7309  1.2229 -0.1000
 9060TIP3   OH227143   4.140   1.428   5.123  0.1950 -0.3377 -0.2827
 9060TIP3    H127144   4.190   1.397   5.198 -0.1389 -0.6996 -0.2051
 9060TIP3    H227145   4.191   1.501   5.088  0.1785  0.0652  0.5074
 9061TIP3   OH227146   4.936   2.989   0.311 -0.1349 -0.3746 -0.1318
 9061TIP3    H127147   4.995   2.978   0.237  0.5793  0.2100  0.3390
 9061TIP3    H227148   4.993   2.987   0.388 -1.0345 -3.0383  0.6068
 9062TIP3   OH227149   2.207   0.981   5.816  0.5890  0.0357 -0.0731
 9062TIP3    H127150   2.197   1.056   5.758 -0.8026  1.3749  1.7988
 9062TIP3    H227151   2.163   0.909   5.771  0.7716  0.6691 -1.2895
 9063TIP3   OH227152   6.140   0.366   0.392  0.4906 -0.2544 -0.3383
 9063TIP3    H127153   6.122   0.289   0.447  0.1150 -1.1711 -1.7032
 9063TIP3    H227154   6.233   0.384   0.408  0.2023  0.0168  1.2053
 9064TIP3   OH227155   0.098   4.443   5.763 -0.8604 -0.2174 -0.5198
 9064TIP3    H127156   0.050   4.525   5.779  0.2074  0.5451 -1.1006
 9064TIP3    H227157   0.033   4.375   5.777 -2.6598  0.8152 -3.0798
 9065TIP3   OH227158   1.674   6.324   3.435  0.1762  0.0606  0.2683
 9065TIP3    H127159   1.684   6.234   3.465 -1.5770 -0.2577 -0.0374
 9065TIP3    H227160   1.737   6.332   3.363 -1.2179 -1.6723 -1.2344
 9066TIP3   OH227161   5.179   5.787   3.786 -0.7005 -0.0824 -0.4611
 9066TIP3    H127162   5.224   5.872   3.782 -1.7068  0.4283 -1.6111
 9066TIP3    H227163   5.244   5.725   3.753  1.0413 -0.2977  2.9182
 9067TIP3   OH227164   2.069   1.732   4.375  0.0723  0.8499 -0.6842
 9067TIP3    H127165   2.000   1.675   4.410 -0.2952  1.9640  0.4685
 9067TIP3    H227166   2.130   1.743   4.447 -0.2120  2.4274 -0.6419
 9068TIP3   OH227167   3.712   4.826   0.735 -0.2946  0.1988  0.0910
 9068TIP3    H127168   3.644   4.784   0.789  0.9692  0.0320  1.6415
 9068TIP3    H227169   3.758   4.753   0.694  0.1293  0.1944  0.5598
 9069TIP3   OH227170   6.744   3.851   4.784  0.0485 -0.3434  0.0829
 9069TIP3    H127171   6.756   3.884   4.695 -0.2358  0.3741  0.3052
 9069TIP3    H227172   6.741   3.756   4.774 -3.8230 -0.2468 -1.1850
 9070TIP3   OH227173   1.790   0.590   0.718 -0.1814  0.5171 -0.3325
 9070TIP3    H127174   1.832   0.656   0.663  1.9037 -1.2464 -0.9976
 9070TIP3    H227175   1.791   0.510   0.665 -0.5311 -0.5988  1.2741
 9071TIP3   OH227176   7.109   1.557   0.886 -0.5730 -0.0437  0.2565
 9071TIP3    H127177   7.127   1.619   0.815  1.3930 -0.0785  0.6579
 9071TIP3    H227178   7.108   1.472   0.842 -0.2950  0.0176  0.1266
 9072TIP3   OH227179   1.460   1.339   1.099  0.6828  0.3199  0.1386
 9072TIP3    H127180   1.547   1.326   1.137 -0.4987 -2.9384  2.1799
 9072TIP3    H227181   1.462   1.288   1.018  0.2149 -1.4166  1.1560
 9073TIP3   OH227182   7.094   6.817   5.015 -0.6520  0.1975 -0.1770
 9073TIP3    H127183   7.016   6.823   5.071 -1.3884  1.3648 -1.2819
 9073TIP3    H227184   7.137   6.736   5.043 -2.6782 -0.9123 -0.0947
 9074TIP3   OH227185   7.050   3.532   2.782  0.1364 -0.4964  0.0816
 9074TIP3    H127186   7.083   3.504   2.867 -0.0698  0.3531  0.4532
 9074TIP3    H227187   6.963   3.493   2.776 -0.3392  0.4144  0.7963
 9075TIP3   OH227188   1.789   1.822   5.551 -0.1203 -0.3702  0.7132
 9075TIP3    H127189   1.706   1.850   5.589 -0.3620 -1.4203  0.9798
 9075TIP3    H227190   1.855   1.860   5.609 -0.4374 -0.2115  0.9775
 9076TIP3   OH227191   2.839   4.263   5.786 -0.2079 -0.1998  0.3347
 9076TIP3    H127192   2.909   4.224   5.734 -0.4542  1.1972 -1.1364
 9076TIP3    H227193   2.763   4.207   5.771 -0.0945 -0.1998 -0.2659
 9077TIP3   OH227194   5.578   2.522   2.953  0.1443  0.0358  0.2511
 9077TIP3    H127195   5.632   2.529   3.031  1.4732  2.1041 -0.7515
 9077TIP3    H227196   5.574   2.611   2.919  1.0627 -0.9874 -2.9400
 9078TIP3   OH227197   0.404  -0.008   3.233  0.7328 -0.2362  0.2189
 9078TIP3    H127198   0.456   0.072   3.244  0.5363  0.1202 -1.2266
 9078TIP3    H227199   0.329   0.004   3.291 -0.0941  1.3664 -1.0886
 9079TIP3   OH227200   6.660   4.629   3.553  0.5616  0.3018  0.0484
 9079TIP3    H127201   6.584   4.636   3.612  1.1230  1.9405  0.6282
 9079TIP3    H227202   6.623   4.594   3.472 -0.5119 -0.5195  0.8498
 9080TIP3   OH227203   1.575   4.761   3.678  0.1920 -0.0460  0.1497
 9080TIP3    H127204   1.534   4.847   3.675 -1.5301 -0.8351 -0.6022
 9080TIP3    H227205   1.598   4.742   3.587  0.1896 -0.5280  0.2431
 9081TIP3   OH227206   6.521   1.399   5.357 -0.0493  0.5506  0.4650
 9081TIP3    H127207   6.504   1.441   5.440  0.2210  1.1884  0.2029
 9081TIP3    H227208   6.612   1.369   5.363 -0.9140 -2.2128  1.5889
 9082TIP3   OH227209   0.632   0.243   5.766  0.1030  0.3703  0.0370
 9082TIP3    H127210   0.722   0.274   5.766 -0.1886  1.2355 -0.2871
 9082TIP3    H227211   0.602   0.256   5.856  0.0495  0.8317 -0.0470
 9083TIP3   OH227212   0.085   5.233   3.720 -0.1353  0.0308 -0.8176
 9083TIP3    H127213   0.161   5.268   3.766 -0.6427  1.6030 -1.1131
 9083TIP3    H227214   0.113   5.147   3.689  1.6927  0.7744 -1.3535
 9084TIP3   OH227215   2.186   3.183   1.415  0.2476 -0.7078  0.1635
 9084TIP3    H127216   2.167   3.224   1.331 -1.3907 -2.7217 -0.5392
 9084TIP3    H227217   2.161   3.248   1.480 -0.9169 -0.0711 -0.8830
 9085TIP3   OH227218   6.701   5.925   4.087 -0.4363 -0.7035  0.2254
 9085TIP3    H127219   6.711   5.882   4.003 -0.3842 -0.7273  0.2442
 9085TIP3    H227220   6.727   5.860   4.152 -0.4536 -0.6779  0.2591
 9086TIP3   OH227221   3.993   5.140   3.037 -0.0571  0.0712 -0.3770
 9086TIP3    H127222   4.013   5.203   3.105 -0.9220 -0.3934  0.3317
 9086TIP3    H227223   4.051   5.163   2.964 -2.1970  3.4379 -1.2273
 9087TIP3   OH227224   2.902   0.403   4.631  0.1544 -0.5248 -0.6680
 9087TIP3    H127225   2.992   0.381   4.654  0.7915  2.0251 -0.4456
 9087TIP3    H227226   2.854   0.320   4.639  1.9411 -1.4492  1.8825
 9088TIP3   OH227227   3.117   2.478   0.555  0.3940  0.0462  0.4961
 9088TIP3    H127228   3.137   2.390   0.586  0.0773  0.0484  0.7127
 9088TIP3    H227229   3.186   2.533   0.593  0.5052 -0.0839  0.4834
 9089TIP3   OH227230   3.683   5.611   0.290 -0.5567  0.2368 -0.0759
 9089TIP3    H127231   3.632   5.648   0.218 -0.1443  1.1985  0.1054
 9089TIP3    H227232   3.775   5.626   0.265 -0.3569 -1.0781 -0.1959
 9090TIP3   OH227233   2.401   3.205   3.452  0.3024  0.0473  0.2077
 9090TIP3    H127234   2.347   3.150   3.509  0.4318  0.0006  0.2850
 9090TIP3    H227235   2.346   3.222   3.376  0.2107 -0.0733  0.2471
 9091TIP3   OH227236   2.820   0.486   0.359  0.7361 -0.0267 -0.0365
 9091TIP3    H127237   2.797   0.425   0.288  1.0577  0.8224 -0.8872
 9091TIP3    H227238   2.784   0.445   0.438 -0.4344 -0.5554 -0.8075
 9092TIP3   OH227239   4.299   1.196   4.592  0.0949 -0.2579  0.6043
 9092TIP3    H127240   4.301   1.285   4.627 -0.1405  0.0993 -0.2589
 9092TIP3    H227241   4.212   1.188   4.552  0.5522 -0.4468 -0.3857
 9093TIP3   OH227242   6.345   5.858   0.561 -0.1569  0.7130  0.2996
 9093TIP3    H127243   6.331   5.852   0.655  1.2468  2.6205  0.6971
 9093TIP3    H227244   6.400   5.936   0.550 -0.9305  0.9897 -2.1678
 9094TIP3   OH227245   3.579   0.624   5.127 -0.1405  0.5623 -0.3906
 9094TIP3    H127246   3.657   0.674   5.151  0.5164  0.3106 -1.9216
 9094TIP3    H227247   3.506   0.680   5.154  0.5521  1.0009  0.6422
 9095TIP3   OH227248   5.896   0.195   1.962  0.4401 -0.7339  0.4940
 9095TIP3    H127249   5.952   0.136   2.014 -0.4802 -1.6379  0.4864
 9095TIP3    H227250   5.808   0.180   1.996  0.1470  0.4030  0.2517
 9096TIP3   OH227251   7.141   5.580   3.509  0.0810  0.0113  0.5862
 9096TIP3    H127252   7.176   5.670   3.515  0.9377 -0.2516 -0.1011
 9096TIP3    H227253   7.138   5.549   3.599 -1.2537  1.0969  0.9418
 9097TIP3   OH227254   3.197   2.592   3.616 -0.5264  0.6877  0.2347
 9097TIP3    H127255   3.172   2.673   3.570  0.2468  0.5600 -0.4379
 9097TIP3    H227256   3.293   2.596   3.621 -0.3650 -0.7900 -0.9907
 9098TIP3   OH227257   4.698   0.050   3.373  0.1418 -0.2626 -0.0514
 9098TIP3    H127258   4.717   0.079   3.284 -0.8888  1.8223  0.3437
 9098TIP3    H227259   4.753   0.105   3.429  0.3512 -1.1442  0.6244
 9099TIP3   OH227260   6.720   2.624   4.677 -0.5810 -0.1090 -0.1645
 9099TIP3    H127261   6.749   2.564   4.609 -1.2520  0.0939 -0.6449
 9099TIP3    H227262   6.749   2.584   4.759 -0.3738 -0.7071 -0.5246
 9100TIP3   OH227263   4.076   4.342   2.476  0.0762  0.2814  0.0280
 9100TIP3    H127264   4.002   4.322   2.533 -0.6653  0.5693 -0.8087
 9100TIP3    H227265   4.135   4.394   2.531 -0.9680  1.1846  0.3286
 9101TIP3   OH227266   1.298   2.917   2.069 -0.1157 -0.5937 -0.1580
 9101TIP3    H127267   1.214   2.878   2.046 -0.8590  0.6424  0.3319
 9101TIP3    H227268   1.363   2.854   2.038 -1.1803 -1.1449 -1.3875
 9102TIP3   OH227269   4.986   4.137   1.205 -0.1061 -0.0492  0.3913
 9102TIP3    H127270   5.047   4.120   1.133 -0.5744  3.1421 -0.9469
 9102TIP3    H227271   5.031   4.200   1.261 -1.6135  1.4451  0.0208
 9103TIP3   OH227272   0.480   1.609   0.545  0.5392  0.1653  0.1133
 9103TIP3    H127273   0.389   1.599   0.519  0.0788  0.8475  1.3466
 9103TIP3    H227274   0.503   1.526   0.586  0.1765  0.2922  0.5873
 9104TIP3   OH227275   1.732   3.099   1.943  0.3096 -0.2760  0.1617
 9104TIP3    H127276   1.670   3.067   1.877  0.1299 -0.4462  0.4104
 9104TIP3    H227277   1.688   3.172   1.985  0.6331  0.1626 -0.2568
 9105TIP3   OH227278   5.883   5.687   2.719 -0.2898  0.1466 -0.0414
 9105TIP3    H127279   5.927   5.617   2.768 -0.2504  0.1586 -0.0596
 9105TIP3    H227280   5.892   5.764   2.775 -0.2634  0.1553 -0.0577
 9106TIP3   OH227281   7.095   0.979   3.095 -0.0832  0.2720 -0.4091
 9106TIP3    H127282   7.133   0.998   3.010 -0.0329  0.2285 -0.3967
 9106TIP3    H227283   7.041   0.901   3.080 -0.6277  0.6673 -0.5528
 9107TIP3   OH227284   1.519   2.548   5.113 -0.4964 -0.6019  0.2104
 9107TIP3    H127285   1.517   2.640   5.139 -0.6153 -0.2012 -1.1372
 9107TIP3    H227286   1.578   2.507   5.175  0.2828  0.5705  0.2741
 9108TIP3   OH227287   7.160   2.279   5.204 -0.0500 -0.5007  0.0819
 9108TIP3    H127288   7.191   2.337   5.274  0.7794 -0.3258 -0.4257
 9108TIP3    H227289   7.232   2.219   5.189 -0.4899 -0.9780 -0.1563
 9109TIP3   OH227290   4.734   5.629   3.865  0.1458 -0.2132 -0.3287
 9109TIP3    H127291   4.700   5.587   3.945 -1.3150 -0.5840 -1.0947
 9109TIP3    H227292   4.769   5.556   3.813  0.1607 -0.1171 -0.4528
 9110TIP3   OH227293   6.221   3.008   1.265 -0.0863 -0.7317 -0.2472
 9110TIP3    H127294   6.273   2.998   1.345  0.2019 -1.2796 -0.4977
 9110TIP3    H227295   6.141   3.051   1.294  0.4352 -0.0193  0.1714
 9111TIP3   OH227296   1.662   0.335   5.611 -0.3734  0.6081  0.7147
 9111TIP3    H127297   1.611   0.320   5.531 -0.1928  2.3228  0.2437
 9111TIP3    H227298   1.720   0.259   5.616 -0.1007  0.6525 -1.0184
 9112TIP3   OH227299   3.767   6.772   3.874 -0.4743 -0.1812 -0.5633
 9112TIP3    H127300   3.783   6.750   3.966 -1.7137 -0.2730 -0.3500
 9112TIP3    H227301   3.844   6.740   3.828 -1.0753 -2.7655  0.0615
 9113TIP3   OH227302   0.814   2.447   1.557 -0.5110 -0.0527  0.2239
 9113TIP3    H127303   0.872   2.386   1.513  0.7900  0.0969  1.6535
 9113TIP3    H227304   0.737   2.394   1.579 -1.5459  0.0479 -2.7518
 9114TIP3   OH227305   1.901   5.874   3.217  0.2568  0.1751 -0.6034
 9114TIP3    H127306   1.862   5.897   3.133 -0.6068  1.0352  0.0079
 9114TIP3    H227307   1.974   5.936   3.228  0.6340 -0.2092 -0.8941
 9115TIP3   OH227308   5.627   5.441   4.788 -0.7104 -0.1103  0.3385
 9115TIP3    H127309   5.580   5.369   4.830 -1.6584  0.2535 -0.0635
 9115TIP3    H227310   5.659   5.494   4.860 -0.4031 -0.6832  0.6324
 9116TIP3   OH227311   5.735   2.299   5.568  0.0745  0.1131 -0.9732
 9116TIP3    H127312   5.735   2.388   5.533 -0.9771  0.4340 -0.2224
 9116TIP3    H227313   5.642   2.278   5.579  0.3138 -1.0114 -0.9612
 9117TIP3   OH227314   3.310   0.532   0.257  0.2413 -0.1629  0.0099
 9117TIP3    H127315   3.238   0.476   0.286  0.4096 -0.8516 -0.8391
 9117TIP3    H227316   3.388   0.478   0.268  0.3742 -0.2221 -1.0602
 9118TIP3   OH227317   4.679   2.885   5.733 -0.3362  0.2493 -0.1492
 9118TIP3    H127318   4.713   2.884   5.643 -1.9764 -0.0371 -0.8041
 9118TIP3    H227319   4.588   2.857   5.724 -0.3080 -0.5458  1.7207
 9119TIP3   OH227320   3.762   2.835   0.035 -0.9072  0.1248  0.1843
 9119TIP3    H127321   3.769   2.758   0.092  0.1954 -0.1464 -0.2819
 9119TIP3    H227322   3.840   2.831  -0.020 -1.6069  0.7484 -0.8968
 9120TIP3   OH227323   2.987   6.567   2.669 -0.3958  0.2225 -0.2965
 9120TIP3    H127324   2.967   6.604   2.755  1.0983  0.6869 -0.1162
 9120TIP3    H227325   2.976   6.473   2.681  1.4062  0.1139  0.9154
 9121TIP3   OH227326   5.306   1.139   2.440  0.1601 -0.0586 -0.2688
 9121TIP3    H127327   5.311   1.215   2.499  0.6587 -0.0557 -0.3101
 9121TIP3    H227328   5.277   1.176   2.357  0.1560  0.0477 -0.2207
 9122TIP3   OH227329   4.279   4.077   0.888 -0.1321  1.1112  0.2419
 9122TIP3    H127330   4.344   4.037   0.946 -2.4894 -0.3625  2.0680
 9122TIP3    H227331   4.247   4.153   0.936 -0.2224  1.4323 -0.3224
 9123TIP3   OH227332   2.842   5.229   0.009 -0.2529  0.1964 -0.0420
 9123TIP3    H127333   2.822   5.185   0.091  0.8651  2.6586  1.6857
 9123TIP3    H227334   2.938   5.238   0.010 -0.3729  1.8652 -0.6881
 9124TIP3   OH227335   6.837   1.863   4.642 -0.0333  0.1109 -0.1958
 9124TIP3    H127336   6.767   1.884   4.704 -0.2453 -0.7819 -0.1246
 9124TIP3    H227337   6.916   1.859   4.696  0.5260  3.2390 -0.5582
 9125TIP3   OH227338   3.563   6.266   3.038 -0.8640  0.4371  0.0880
 9125TIP3    H127339   3.579   6.183   3.082  0.5199  0.4694 -0.3036
 9125TIP3    H227340   3.577   6.247   2.945 -2.1536  0.7484 -0.1965
 9126TIP3   OH227341   6.290   0.219   2.941  0.7307  0.5810 -0.1683
 9126TIP3    H127342   6.327   0.165   2.871 -0.2232 -0.0405 -0.2139
 9126TIP3    H227343   6.288   0.160   3.017 -1.5269  0.1015 -0.5529
 9127TIP3   OH227344   2.274   1.264   2.584 -0.0699 -0.2972  0.5771
 9127TIP3    H127345   2.235   1.196   2.530  1.4626 -1.2820  0.6265
 9127TIP3    H227346   2.259   1.235   2.674 -0.4046  0.0327  0.6323
 9128TIP3   OH227347   0.321   1.130   5.199  0.3599 -0.6749  1.0425
 9128TIP3    H127348   0.380   1.174   5.261 -0.3514  1.4225  0.3340
 9128TIP3    H227349   0.239   1.179   5.206  0.6386  0.5562 -2.4263
 9129TIP3   OH227350   3.240   5.156   2.895 -0.1477 -0.0942  0.2803
 9129TIP3    H127351   3.328   5.192   2.881 -0.0354 -0.3759  0.2425
 9129TIP3    H227352   3.219   5.113   2.812 -0.5451  0.4299  0.1042
 9130TIP3   OH227353   5.161   5.823   0.832  0.5463 -0.2732  0.3962
 9130TIP3    H127354   5.132   5.890   0.770 -1.0913 -1.8781 -0.6760
 9130TIP3    H227355   5.219   5.767   0.781  0.0477 -0.9864  0.6003
 9131TIP3   OH227356   3.797   3.728   1.511 -0.2871 -0.2787  0.1919
 9131TIP3    H127357   3.751   3.688   1.438 -1.8484  0.1752  0.8901
 9131TIP3    H227358   3.855   3.659   1.543 -1.4805 -1.3527  0.1369
 9132TIP3   OH227359   4.078   0.340   2.527  0.2174  0.4356  1.0495
 9132TIP3    H127360   4.068   0.380   2.613 -0.1230  1.9761  0.3225
 9132TIP3    H227361   4.009   0.379   2.474 -0.2309 -1.2550  0.3226
 9133TIP3   OH227362   2.273   2.163   1.657  0.0807  0.5240 -0.4223
 9133TIP3    H127363   2.194   2.124   1.620  0.7828 -1.3929 -0.0160
 9133TIP3    H227364   2.279   2.126   1.745  1.5047  0.5026 -0.5085
 9134TIP3   OH227365   0.464   3.525   0.242  0.0512 -0.3470  0.0211
 9134TIP3    H127366   0.543   3.557   0.285  1.6602 -2.1495 -1.4178
 9134TIP3    H227367   0.418   3.476   0.309  1.4571 -1.3689  0.2791
 9135TIP3   OH227368   5.151   5.433   3.935  0.3497  0.1402 -0.6344
 9135TIP3    H127369   5.232   5.484   3.933 -0.1117  0.8751 -0.9578
 9135TIP3    H227370   5.152   5.391   4.021  1.7877 -1.0723 -1.1933
 9136TIP3   OH227371   4.963   2.744   3.561  0.5067  0.1574 -0.3806
 9136TIP3    H127372   4.883   2.785   3.596  0.9687  0.7807 -0.0397
 9136TIP3    H227373   4.931   2.667   3.515 -0.1200 -0.8160  1.5595
 9137TIP3   OH227374   4.399   4.085   1.657 -0.9637 -0.1568 -0.7677
 9137TIP3    H127375   4.462   4.039   1.712 -1.2339 -0.2085 -0.4985
 9137TIP3    H227376   4.424   4.062   1.568 -1.2777 -1.0763 -0.6328
 9138TIP3   OH227377   6.737   6.103   0.631  0.0238  0.4309  1.1139
 9138TIP3    H127378   6.766   6.014   0.652  1.5659  0.6376  0.0180
 9138TIP3    H227379   6.746   6.151   0.713 -1.0378 -0.4585  1.7749
 9139TIP3   OH227380   4.701   4.101   1.845  0.2520 -0.2699  0.6426
 9139TIP3    H127381   4.666   4.033   1.786 -0.4102  1.4772 -1.0799
 9139TIP3    H227382   4.635   4.109   1.914  0.8345 -2.0531  1.4817
 9140TIP3   OH227383   3.795   5.597   5.020 -0.0563 -0.6132 -0.1556
 9140TIP3    H127384   3.786   5.518   4.967 -0.6454 -1.2295  0.8290
 9140TIP3    H227385   3.873   5.640   4.985  0.1447 -1.5009 -0.8623
 9141TIP3   OH227386   1.809   3.756   2.224  0.0914 -0.5902 -0.2372
 9141TIP3    H127387   1.869   3.830   2.237  0.9432 -1.2050 -0.5213
 9141TIP3    H227388   1.777   3.767   2.135 -0.9016  0.2083  0.2015
 9142TIP3   OH227389   7.018   1.444   1.131  0.0755 -0.8007  0.1526
 9142TIP3    H127390   7.090   1.468   1.073  0.4160 -1.1525  0.4206
 9142TIP3    H227391   6.942   1.490   1.096  0.3218 -0.8376 -0.4396
 9143TIP3   OH227392   0.211   4.833   1.597  0.8104 -0.0196  0.7428
 9143TIP3    H127393   0.241   4.774   1.528 -0.1324 -0.9751  1.1031
 9143TIP3    H227394   0.272   4.819   1.669  1.8902  1.0984  0.0774
 9144TIP3   OH227395   1.728   4.505   2.610 -0.1727  0.2220 -0.0582
 9144TIP3    H127396   1.661   4.459   2.661 -0.8704  1.2840 -0.0019
 9144TIP3    H227397   1.807   4.453   2.624 -0.9374 -0.9899 -0.0336
 9145TIP3   OH227398   3.005  -0.023   2.761  0.1529  0.1002  0.3175
 9145TIP3    H127399   3.062  -0.041   2.687 -1.3512  0.5189 -1.0021
 9145TIP3    H227400   2.998   0.072   2.763  0.6420  0.1305  1.3950
 9146TIP3   OH227401   2.905   2.760   2.947 -0.1830  0.1777 -0.6204
 9146TIP3    H127402   2.930   2.752   2.855 -0.3071 -2.1953 -0.4966
 9146TIP3    H227403   2.847   2.686   2.963  0.1961  0.2762  1.4976
 9147TIP3   OH227404   1.113   2.507   0.989  0.1351 -0.4001 -0.3724
 9147TIP3    H127405   1.048   2.576   0.975 -0.8733 -1.3384 -0.3947
 9147TIP3    H227406   1.174   2.517   0.915  1.8509  2.4462  1.2643
 9148TIP3   OH227407   2.970   1.074   1.819  0.1689  0.5392 -0.3448
 9148TIP3    H127408   2.953   1.168   1.815  0.7012  0.6938  0.6665
 9148TIP3    H227409   2.900   1.039   1.873  0.4957  0.5052  0.0633
 9149TIP3   OH227410   2.333   6.401   1.298  0.2090 -0.2771 -0.5028
 9149TIP3    H127411   2.271   6.330   1.315  1.6560 -1.3518  0.5889
 9149TIP3    H227412   2.419   6.359   1.304  1.1533  1.6861  0.8363
 9150TIP3   OH227413   1.285   6.656   2.415 -0.5176 -0.1982 -0.2340
 9150TIP3    H127414   1.257   6.747   2.415  0.6942  0.2907  2.8441
 9150TIP3    H227415   1.291   6.633   2.323  1.3381  3.5496 -1.2453
 9151TIP3   OH227416   0.548   4.981   3.339  0.1735  0.0573 -0.2877
 9151TIP3    H127417   0.632   5.012   3.375 -1.0525  1.5108  1.5015
 9151TIP3    H227418   0.530   4.901   3.388  0.2128  0.1073 -0.1901
 9152TIP3   OH227419   4.661   3.128   4.297 -0.0190  0.1783  0.0469
 9152TIP3    H127420   4.694   3.049   4.341 -0.2123  0.2159  0.2561
 9152TIP3    H227421   4.636   3.098   4.209  0.6706  0.1689 -0.1525
 9153TIP3   OH227422   0.822   2.097   1.352  0.1385  0.0141 -0.0551
 9153TIP3    H127423   0.915   2.119   1.348 -0.2414  2.3049  1.9364
 9153TIP3    H227424   0.813   2.045   1.432 -0.0614 -1.9215 -1.2606
 9154TIP3   OH227425   5.927   2.489   3.770  0.4981 -0.3762  0.3867
 9154TIP3    H127426   5.857   2.474   3.833 -0.8590  2.1618 -0.3816
 9154TIP3    H227427   5.908   2.429   3.698  0.2613 -1.0699  1.0188
 9155TIP3   OH227428   4.821   3.089   1.944 -0.3208  0.5026 -0.5135
 9155TIP3    H127429   4.797   3.049   1.861 -0.6737 -0.5398  0.0714
 9155TIP3    H227430   4.739   3.128   1.976 -0.0611  1.4040 -0.9043
 9156TIP3   OH227431   2.177   1.468   3.566 -0.5612  0.5808  0.5187
 9156TIP3    H127432   2.210   1.442   3.480 -0.5916 -0.5231  0.8280
 9156TIP3    H227433   2.256   1.479   3.620 -0.5882  0.1160  0.6593
 9157TIP3   OH227434   2.506   2.260   3.437  0.2856  0.8443 -0.4612
 9157TIP3    H127435   2.490   2.221   3.522 -0.7241  2.6521  0.2291
 9157TIP3    H227436   2.599   2.283   3.438  0.9914 -1.6185 -0.9951
 9158TIP3   OH227437   3.035   5.315   3.861  0.8397  0.2225 -0.5414
 9158TIP3    H127438   2.993   5.231   3.877  0.8162  0.6411  1.9679
 9158TIP3    H227439   2.980   5.358   3.796  0.6154 -1.5084 -1.5317
 9159TIP3   OH227440   5.723   0.741   5.656  0.1812  0.2805  0.2734
 9159TIP3    H127441   5.630   0.760   5.641  0.1856 -0.0360 -0.1798
 9159TIP3    H227442   5.759   0.730   5.568  0.2886 -1.2883  0.4765
 9160TIP3   OH227443   0.080   1.049   0.803  0.4545  0.4168  0.4885
 9160TIP3    H127444   0.139   1.015   0.735 -1.0599 -0.9288 -0.2057
 9160TIP3    H227445   0.114   1.013   0.884 -0.1006 -1.3953 -0.0463
 9161TIP3   OH227446   5.078   4.579   1.624  0.3512 -0.3033 -0.6067
 9161TIP3    H127447   5.172   4.579   1.608  0.4275  1.2062 -0.2864
 9161TIP3    H227448   5.069   4.602   1.716 -0.3462  1.8875 -1.1509
 9162TIP3   OH227449   6.674   3.616   3.264  0.2526  0.3653  0.2128
 9162TIP3    H127450   6.609   3.618   3.334 -0.3850  2.3679 -0.3594
 9162TIP3    H227451   6.630   3.572   3.192  0.0400  0.4448  0.2920
 9163TIP3   OH227452   6.727   0.839   2.432  0.3290  0.8797  0.0652
 9163TIP3    H127453   6.782   0.767   2.401  0.5220  0.5803  1.0459
 9163TIP3    H227454   6.674   0.800   2.502  1.5847  2.0077  1.7466
 9164TIP3   OH227455   0.519   2.717   0.726  0.0169  0.5002 -0.2879
 9164TIP3    H127456   0.571   2.736   0.804  0.0951  1.6161 -0.5957
 9164TIP3    H227457   0.569   2.754   0.654 -1.1055  1.4377 -0.6118
 9165TIP3   OH227458   3.135   3.174   5.295 -0.0582 -0.3842  0.0318
 9165TIP3    H127459   3.201   3.223   5.344  3.0788 -1.3167 -2.8753
 9165TIP3    H227460   3.157   3.082   5.312 -0.4282 -0.7060 -1.1770
 9166TIP3   OH227461   1.394   0.179   0.287  0.1542 -0.1696  0.5794
 9166TIP3    H127462   1.488   0.183   0.269 -0.0850 -0.2624 -0.8547
 9166TIP3    H227463   1.355   0.242   0.226 -0.7144 -0.0741  1.2091
 9167TIP3   OH227464   6.948   3.028   3.254  0.1389  0.4497  0.4228
 9167TIP3    H127465   6.971   3.078   3.175  1.5484 -0.2030  0.3901
 9167TIP3    H227466   6.946   2.937   3.225  0.4020  0.2287  1.0893
 9168TIP3   OH227467   1.811   6.017   2.172  0.0434 -0.1020  0.0529
 9168TIP3    H127468   1.844   6.055   2.091 -0.6833  0.2134 -0.0927
 9168TIP3    H227469   1.791   6.092   2.228 -1.2440 -0.2604 -0.1781
 9169TIP3   OH227470   4.310   5.473   0.249  0.1423 -0.1288  1.1126
 9169TIP3    H127471   4.257   5.510   0.320 -0.3377  0.3585  0.5154
 9169TIP3    H227472   4.397   5.463   0.287  0.0483  0.7165  1.5828
 9170TIP3   OH227473   2.012   3.778   0.114 -0.6551  0.3204  0.3630
 9170TIP3    H127474   2.097   3.795   0.075 -0.0173 -0.5348  1.3330
 9170TIP3    H227475   2.006   3.682   0.119 -0.4137  0.3808  2.9104
 9171TIP3   OH227476   6.479   3.885   3.814  0.3921 -0.5226  0.3429
 9171TIP3    H127477   6.551   3.825   3.795 -0.0046 -1.3213  1.2718
 9171TIP3    H227478   6.439   3.851   3.894 -1.9954 -0.9906 -0.9454
 9172TIP3   OH227479   6.487   4.694   2.261  0.5932  0.3329  0.2793
 9172TIP3    H127480   6.495   4.748   2.339  0.7997  0.2076  0.3446
 9172TIP3    H227481   6.418   4.736   2.209 -0.4694 -0.3176  1.1241
 9173TIP3   OH227482   2.965   0.596   0.150  0.1312 -0.0603 -0.0232
 9173TIP3    H127483   2.903   0.524   0.161  1.4880 -1.2800  0.0775
 9173TIP3    H227484   3.038   0.557   0.103  1.7630  0.7194  1.7051
 9174TIP3   OH227485   1.172   3.718   1.145  0.5932  0.6889  0.2095
 9174TIP3    H127486   1.231   3.657   1.187 -1.1238 -0.7558  0.6288
 9174TIP3    H227487   1.085   3.679   1.154 -0.2695  1.9819 -1.6899
 9175TIP3   OH227488   2.203   6.696   1.075 -0.1424 -0.0844  0.0159
 9175TIP3    H127489   2.158   6.718   1.157 -1.5865  0.6411 -0.9114
 9175TIP3    H227490   2.158   6.750   1.009  1.9114  0.4093 -1.0422
 9176TIP3   OH227491   6.159   1.877   0.535  0.0137 -0.1031 -0.1007
 9176TIP3    H127492   6.158   1.845   0.625 -2.5917  0.7806  0.2530
 9176TIP3    H227493   6.183   1.970   0.543 -1.5768  0.3400 -0.1177
 9177TIP3   OH227494   0.702   5.527   5.302 -0.1319 -0.0170 -0.4089
 9177TIP3    H127495   0.675   5.611   5.339 -1.0352 -1.0012  1.3477
 9177TIP3    H227496   0.622   5.490   5.265  0.3181  0.0045 -1.4259
 9178TIP3   OH227497   3.250   2.592   1.257 -0.0221  0.5170 -0.3025
 9178TIP3    H127498   3.170   2.592   1.204  0.1957  1.0521 -0.6371
 9178TIP3    H227499   3.298   2.516   1.227 -1.5625 -1.3770  1.7017
 9179TIP3   OH227500   4.181   3.826   0.152 -0.2697 -0.3816 -0.2596
 9179TIP3    H127501   4.211   3.904   0.106 -1.1928  1.5510  2.1958
 9179TIP3    H227502   4.091   3.846   0.178 -0.1653 -1.7892  1.3893
 9180TIP3   OH227503   0.177   1.363   3.725  0.3178 -0.4092  0.1465
 9180TIP3    H127504   0.192   1.417   3.803 -0.8924 -0.4834  0.4444
 9180TIP3    H227505   0.181   1.424   3.652  0.8725 -0.2402  0.3157
 9181TIP3   OH227506   2.997   1.334   3.863 -0.4264 -0.2339  0.2059
 9181TIP3    H127507   2.951   1.260   3.905 -0.3097 -0.3825  0.0734
 9181TIP3    H227508   3.045   1.294   3.791 -1.2202  0.1213 -0.5357
 9182TIP3   OH227509   7.027   0.259   2.209  0.5200 -0.5236 -0.3398
 9182TIP3    H127510   6.980   0.226   2.132 -0.1281 -0.9811  0.2446
 9182TIP3    H227511   6.958   0.288   2.269  1.0097 -0.5247  0.2275
 9183TIP3   OH227512   2.364   0.244   4.654 -0.3220  0.1074 -0.4525
 9183TIP3    H127513   2.305   0.184   4.608 -0.4212  0.0829 -0.2956
 9183TIP3    H227514   2.310   0.320   4.673 -0.3899 -0.0388 -0.0427
 9184TIP3   OH227515   4.889   0.317   4.046  0.2489 -0.6548  0.1809
 9184TIP3    H127516   4.927   0.392   4.093 -1.6632 -0.7134  1.9948
 9184TIP3    H227517   4.964   0.268   4.015  1.5999  0.5980  1.2989
 9185TIP3   OH227518   0.458   3.365   3.110  0.3099 -0.5256 -0.6211
 9185TIP3    H127519   0.453   3.318   3.027 -1.7081 -1.3910 -0.0682
 9185TIP3    H227520   0.516   3.312   3.164  0.9702 -0.3933 -1.1763
 9186TIP3   OH227521   6.258   6.049   4.943  0.1037  0.3742  0.2361
 9186TIP3    H127522   6.271   5.992   5.019 -0.4818  1.4351  1.1524
 9186TIP3    H227523   6.261   5.989   4.868  0.4137 -0.7306  1.1003
 9187TIP3   OH227524   2.383   6.713   5.662  0.6064  0.4036  0.2456
 9187TIP3    H127525   2.409   6.723   5.754  0.2909  1.2949  0.2440
 9187TIP3    H227526   2.410   6.624   5.640  2.3229  0.7671  0.6834
 9188TIP3   OH227527   5.708   3.234   0.206  0.2715  0.6457 -0.2746
 9188TIP3    H127528   5.637   3.212   0.265 -0.4487 -0.6141 -1.5504
 9188TIP3    H227529   5.785   3.190   0.243 -0.0054  0.5070  0.1416
 9189TIP3   OH227530   4.950   6.363   5.175 -0.0169  0.5015 -0.9941
 9189TIP3    H127531   4.967   6.296   5.108  0.8567 -0.1403 -0.1575
 9189TIP3    H227532   5.037   6.397   5.197 -0.0025 -0.7904  1.3010
 9190TIP3   OH227533   0.169   0.841   2.527 -0.2264  0.0414  0.3248
 9190TIP3    H127534   0.195   0.840   2.619 -1.5159 -0.4057  0.7007
 9190TIP3    H227535   0.250   0.862   2.480  0.4552  0.2580  1.5472
 9191TIP3   OH227536   3.894   5.308   0.410 -0.0328 -0.0372  0.1168
 9191TIP3    H127537   3.798   5.306   0.411 -0.0408 -0.8048  1.9143
 9191TIP3    H227538   3.920   5.225   0.450  1.3888  0.3514  0.0532
 9192TIP3   OH227539   5.520   4.169   5.820 -0.3879 -0.7039 -0.1165
 9192TIP3    H127540   5.545   4.173   5.913  1.7467  2.4661 -0.6634
 9192TIP3    H227541   5.499   4.076   5.805  0.5263 -1.5900  3.1716
 9193TIP3   OH227542   3.018   1.379   2.961  0.5920 -0.0058  0.4965
 9193TIP3    H127543   3.099   1.369   3.011  0.1609  0.3331  1.2679
 9193TIP3    H227544   3.044   1.361   2.870  1.4703 -0.1732  0.7723
 9194TIP3   OH227545   6.301   4.755   2.650 -0.0302  0.0110  0.2180
 9194TIP3    H127546   6.366   4.687   2.630  0.3427  0.6888 -0.9761
 9194TIP3    H227547   6.354   4.830   2.679 -0.2852  0.4604 -0.4563
 9195TIP3   OH227548   3.615   2.673   0.909  0.5876 -0.2422  0.2556
 9195TIP3    H127549   3.691   2.642   0.957  1.1143  0.5734 -0.0476
 9195TIP3    H227550   3.591   2.756   0.951  0.3090 -0.1352 -0.1041
 9196TIP3   OH227551   4.545   6.114   2.910 -0.1193  0.1281  0.4602
 9196TIP3    H127552   4.537   6.172   2.986  2.1973  1.4258 -0.1890
 9196TIP3    H227553   4.548   6.174   2.835  0.2976 -0.9726 -0.4322
 9197TIP3   OH227554   4.517   1.174   3.068  0.0368 -0.2748 -0.0270
 9197TIP3    H127555   4.531   1.102   3.129 -2.8708 -0.6751  0.3124
 9197TIP3    H227556   4.531   1.253   3.121 -1.2347 -0.6161  0.8465
 9198TIP3   OH227557   4.319   1.284   4.938 -0.7206 -0.4551 -0.2382
 9198TIP3    H127558   4.368   1.309   4.859 -0.7382 -0.4562 -0.2493
 9198TIP3    H227559   4.290   1.367   4.975  0.2132 -0.3861  0.3675
 9199TIP3   OH227560   6.926   2.631   2.971  0.2650  0.0129 -0.6279
 9199TIP3    H127561   6.993   2.564   2.987  0.7034  1.1215  2.7749
 9199TIP3    H227562   6.964   2.687   2.903  1.3015 -1.2730 -1.1543
 9200TIP3   OH227563   0.445   0.639   4.609  0.1502  0.1417 -0.1247
 9200TIP3    H127564   0.419   0.706   4.546  1.1965  0.3454 -0.3593
 9200TIP3    H227565   0.415   0.673   4.693 -0.3523  0.3526 -0.3895
 9201TIP3   OH227566   4.009   4.620   2.922  0.0878 -0.0355  0.6836
 9201TIP3    H127567   4.000   4.634   2.828  0.9564  0.3739  0.6509
 9201TIP3    H227568   3.973   4.532   2.936 -1.6799  0.5820  0.2622
 9202TIP3   OH227569   3.824   3.618   2.195  0.0570 -0.4340 -0.7522
 9202TIP3    H127570   3.872   3.691   2.156 -0.3731  0.3348  0.1193
 9202TIP3    H227571   3.734   3.650   2.204 -0.2219 -1.2019 -0.6806
 9203TIP3   OH227572   0.059   1.474   4.048 -0.3170  0.2009  0.3844
 9203TIP3    H127573  -0.035   1.461   4.060 -0.1743  0.4111  1.8412
 9203TIP3    H227574   0.073   1.567   4.066  0.1535  0.2161 -0.0219
 9204TIP3   OH227575   2.538   2.831   4.609 -0.1008 -0.0396  0.0300
 9204TIP3    H127576   2.513   2.919   4.639 -3.0594 -0.9100  0.4691
 9204TIP3    H227577   2.536   2.838   4.513 -0.3014  0.3764  0.0580
 9205TIP3   OH227578   4.945   6.714   2.314 -0.5771  0.1156  0.3725
 9205TIP3    H127579   4.896   6.773   2.256 -1.2576 -0.7761  0.0187
 9205TIP3    H227580   4.892   6.712   2.394  0.1134  0.9707  0.8695
 9206TIP3   OH227581   2.876   4.117   2.622 -0.4233  0.0543  0.5315
 9206TIP3    H127582   2.799   4.069   2.653  0.0135 -1.4568 -0.6131
 9206TIP3    H227583   2.945   4.094   2.683 -0.8579  1.5295  1.6484
 9207TIP3   OH227584   0.567   4.982   0.382  0.0761 -0.0997 -0.1945
 9207TIP3    H127585   0.572   5.077   0.390 -0.3987 -0.1204  0.3452
 9207TIP3    H227586   0.474   4.962   0.383  0.1586 -0.5515 -0.6308
 9208TIP3   OH227587   5.126   5.233   5.234 -0.2291 -0.6192 -0.2389
 9208TIP3    H127588   5.207   5.219   5.283  0.3106 -0.1967 -0.9814
 9208TIP3    H227589   5.077   5.297   5.285 -0.1881 -1.0109  0.3065
 9209TIP3   OH227590   1.132   4.002   2.851 -0.1786  0.0263  0.2772
 9209TIP3    H127591   1.042   4.032   2.855 -1.0138 -1.6220 -2.8389
 9209TIP3    H227592   1.137   3.951   2.770  3.7260  0.6226 -0.0575
 9210TIP3   OH227593   3.150   4.173   0.960 -0.4675 -0.2806 -0.1988
 9210TIP3    H127594   3.147   4.095   1.015  0.1489  0.2705  0.6517
 9210TIP3    H227595   3.214   4.152   0.892 -3.3433 -2.0974 -2.6032
 9211TIP3   OH227596   2.013   2.190   1.065  0.1682 -0.3541  0.4410
 9211TIP3    H127597   1.931   2.209   1.109  1.2212  1.6022  1.6883
 9211TIP3    H227598   2.023   2.260   1.001  1.7038  0.5313  1.5843
 9212TIP3   OH227599   2.194   6.262   2.648  0.3749 -0.0045 -0.3404
 9212TIP3    H127600   2.211   6.291   2.559 -2.0598 -0.5814 -1.0461
 9212TIP3    H227601   2.202   6.167   2.645  2.0534  0.0618  0.5225
 9213TIP3   OH227602   5.166   5.139   3.020  0.5641 -0.4353 -0.6032
 9213TIP3    H127603   5.095   5.202   3.008  1.3089 -0.0064 -3.9170
 9213TIP3    H227604   5.209   5.166   3.101 -0.8109  1.6000 -0.4750
 9214TIP3   OH227605   7.211   6.461   3.069  0.1450  0.6328  0.4302
 9214TIP3    H127606   7.124   6.497   3.088  0.1100  0.1675  1.1969
 9214TIP3    H227607   7.204   6.369   3.094  0.6280  0.4020 -0.2613
 9215TIP3   OH227608   1.926   2.456   5.247  0.6390 -0.1594 -0.5159
 9215TIP3    H127609   1.969   2.461   5.332  1.0965 -1.5275 -0.6417
 9215TIP3    H227610   1.996   2.468   5.184  0.6810 -1.2756 -0.7082
 9216TIP3   OH227611   2.702   6.457   2.872  0.4881  0.2783 -0.0618
 9216TIP3    H127612   2.694   6.508   2.953 -1.3983 -0.0830  0.0154
 9216TIP3    H227613   2.687   6.520   2.802  3.0532  0.7965 -0.2568
 9217TIP3   OH227614   2.469   2.363   1.713 -0.4081  0.2189 -0.1732
 9217TIP3    H127615   2.396   2.308   1.742 -1.6889  0.1793 -3.1464
 9217TIP3    H227616   2.435   2.452   1.720  0.2296  0.3944  0.8613
 9218TIP3   OH227617   2.524   5.818   2.305  0.6699  0.1320  0.6344
 9218TIP3    H127618   2.550   5.757   2.374  0.2901 -2.1259 -1.1134
 9218TIP3    H227619   2.604   5.832   2.254  1.0744  2.1868  1.7132
 9219TIP3   OH227620   6.454   1.562   5.082  0.3863  0.1580  0.3956
 9219TIP3    H127621   6.421   1.587   5.169  1.1944 -0.1414  0.8017
 9219TIP3    H227622   6.540   1.524   5.100  0.6560  0.3036 -0.5685
 9220TIP3   OH227623   6.733   5.243   1.550  0.5063  0.5280  0.0415
 9220TIP3    H127624   6.707   5.293   1.473  2.5489  1.4947 -0.1047
 9220TIP3    H227625   6.652   5.204   1.583 -0.4275  0.0430 -2.5913
 9221TIP3   OH227626   1.101   3.760   3.749 -0.3735  0.6332 -0.6224
 9221TIP3    H127627   1.138   3.770   3.836  1.2244  0.2306 -1.2185
 9221TIP3    H227628   1.019   3.712   3.763  0.7165 -1.0060  0.5089
 9222TIP3   OH227629   5.010   4.590   0.495  0.6309 -0.1350  0.7887
 9222TIP3    H127630   4.947   4.651   0.457  2.5053  1.4031 -0.0057
 9222TIP3    H227631   5.033   4.531   0.424  0.7980 -0.0824  0.7975
 9223TIP3   OH227632   3.490   3.808   1.073  0.2275  0.3598  0.3956
 9223TIP3    H127633   3.426   3.795   1.003 -1.1806  1.0145  1.5162
 9223TIP3    H227634   3.520   3.898   1.062  0.1015  0.4217  0.5591
 9224TIP3   OH227635   2.374   6.681   2.815  0.3379  0.5114  0.1262
 9224TIP3    H127636   2.350   6.591   2.837 -0.9907  0.3742 -1.7030
 9224TIP3    H227637   2.465   6.675   2.786  0.3542 -0.1814  0.3061
 9225TIP3   OH227638   5.364   1.227   3.432  0.6105  0.1166  0.1254
 9225TIP3    H127639   5.440   1.284   3.426 -0.7907  2.2552  1.3149
 9225TIP3    H227640   5.388   1.161   3.497  1.6136  0.4780  0.1403
 9226TIP3   OH227641   2.557   6.191   2.696 -0.0276  0.1884 -0.0175
 9226TIP3    H127642   2.558   6.134   2.773  1.2435 -0.7773 -0.7294
 9226TIP3    H227643   2.529   6.135   2.624 -0.9299  1.0159 -0.3380
 9227TIP3   OH227644   6.365   4.167   2.895  0.0559  0.0203 -0.3853
 9227TIP3    H127645   6.323   4.088   2.930  0.4075  1.1496  2.9223
 9227TIP3    H227646   6.448   4.173   2.942  1.8950  0.3836 -3.4028
 9228TIP3   OH227647   3.026   6.719   4.471 -0.2233  0.1538 -0.5218
 9228TIP3    H127648   3.032   6.625   4.482 -1.3037 -0.0677 -1.6313
 9228TIP3    H227649   3.006   6.752   4.559 -1.3154 -0.8062 -0.3817
 9229TIP3   OH227650   3.615   6.754   5.219  0.5048  0.0513 -0.7380
 9229TIP3    H127651   3.685   6.762   5.153  0.9029 -1.2220 -0.4949
 9229TIP3    H227652   3.590   6.662   5.216 -0.4893  0.2897 -0.1187
 9230TIP3   OH227653   3.005   1.701   1.386 -0.2032 -0.2874 -0.2196
 9230TIP3    H127654   3.059   1.694   1.308  1.4319  0.2043  0.8259
 9230TIP3    H227655   2.923   1.741   1.356  0.4599  0.0245 -1.6343
 9231TIP3   OH227656   3.508   4.888   2.294 -0.1621 -0.0996 -0.2850
 9231TIP3    H127657   3.512   4.856   2.204  1.1106 -1.4284  0.2260
 9231TIP3    H227658   3.416   4.878   2.319 -0.1900 -1.4106 -0.8488
 9232TIP3   OH227659   1.331   5.427   5.038  0.5159  0.4061 -0.4049
 9232TIP3    H127660   1.261   5.366   5.061  0.8318  0.3510  0.4704
 9232TIP3    H227661   1.313   5.452   4.947 -1.7493  1.9064  0.3712
 9233TIP3   OH227662   1.983   2.693   5.778 -0.2551 -0.2351 -0.3934
 9233TIP3    H127663   1.932   2.740   5.843 -1.2071 -0.1833 -1.1661
 9233TIP3    H227664   1.991   2.605   5.813  0.8061  0.2390  0.6505
 9234TIP3   OH227665   7.097   2.976   1.240 -0.2934  0.5847 -0.1395
 9234TIP3    H127666   7.003   2.967   1.226  0.1442 -2.6302 -2.1706
 9234TIP3    H227667   7.134   2.979   1.151  1.7317 -3.6510  0.3012
 9235TIP3   OH227668   4.793   3.699   1.683 -0.0574  0.4827 -0.5325
 9235TIP3    H127669   4.866   3.710   1.623  0.2418  2.5322  0.1570
 9235TIP3    H227670   4.821   3.629   1.742  0.0436 -0.8730 -2.1187
 9236TIP3   OH227671   1.985   1.353   5.186  0.2962  0.8689  0.2701
 9236TIP3    H127672   1.970   1.295   5.111 -0.0099  2.2856 -0.8267
 9236TIP3    H227673   1.963   1.301   5.262 -0.9274 -0.1417 -0.7329
 9237TIP3   OH227674   3.456   4.161   0.364 -0.0307 -0.3185  0.2997
 9237TIP3    H127675   3.391   4.092   0.378 -1.4543  0.7378 -0.7989
 9237TIP3    H227676   3.476   4.193   0.452 -0.1431 -1.4005  0.7384
 9238TIP3   OH227677   4.120   0.443   1.798  0.0427 -0.4084  0.4182
 9238TIP3    H127678   4.033   0.405   1.804  0.4306 -1.1164  3.1496
 9238TIP3    H227679   4.108   0.534   1.824  0.0391 -0.3731  0.2917
 9239TIP3   OH227680   3.926   3.242   1.778 -0.0773 -0.1110  0.0588
 9239TIP3    H127681   3.921   3.304   1.851  0.4987 -0.6104  0.5290
 9239TIP3    H227682   3.894   3.159   1.814 -0.6385 -0.1519 -0.5073
 9240TIP3   OH227683   0.519   3.939   1.265  0.7145 -0.0919 -0.1529
 9240TIP3    H127684   0.439   3.909   1.308  0.7922  1.3503  1.0972
 9240TIP3    H227685   0.512   3.907   1.175 -0.3673 -1.5806  0.4201
 9241TIP3   OH227686   4.803   1.980   4.930 -0.5429  0.0556 -0.5589
 9241TIP3    H127687   4.800   2.073   4.949 -0.0094  0.2419 -1.3441
 9241TIP3    H227688   4.744   1.969   4.855  0.3955 -0.0030 -1.3182
 9242TIP3   OH227689   0.231   1.548   0.471 -0.0244 -0.4720  0.3618
 9242TIP3    H127690   0.292   1.508   0.409  0.1761  1.0825 -0.4933
 9242TIP3    H227691   0.157   1.577   0.416 -1.7905 -2.6587  1.4042
 9243TIP3   OH227692   6.484   3.048   5.768  0.5959  0.3879  0.1546
 9243TIP3    H127693   6.544   3.087   5.831  0.9010 -0.9509  0.7228
 9243TIP3    H227694   6.443   2.976   5.815 -2.7896  2.2580  0.3656
 9244TIP3   OH227695   0.890   6.373   5.307 -0.8202 -0.4341  0.0341
 9244TIP3    H127696   0.926   6.290   5.339 -1.2746 -1.0684 -1.0459
 9244TIP3    H227697   0.932   6.386   5.222 -0.8411  0.3816  0.1470
 9245TIP3   OH227698   6.748   3.130   0.656  0.1180  0.6282 -0.5041
 9245TIP3    H127699   6.820   3.148   0.596  0.5946 -1.0209 -0.4769
 9245TIP3    H227700   6.722   3.216   0.689  3.4297  1.1998  1.0714
 9246TIP3   OH227701   5.901   6.710   5.378  0.2244  0.2471 -0.0505
 9246TIP3    H127702   5.885   6.802   5.398 -0.2772  0.3097 -0.7133
 9246TIP3    H227703   5.885   6.664   5.461 -1.8705  0.4923 -0.2714
 9247TIP3   OH227704   4.614   5.562   1.531  0.2122 -0.7259  0.3459
 9247TIP3    H127705   4.581   5.565   1.621 -0.2954  0.3856  0.1307
 9247TIP3    H227706   4.538   5.535   1.479  0.2865 -0.5513  0.1475
 9248TIP3   OH227707   3.096  -0.017   3.662  0.2185 -0.2201 -0.4066
 9248TIP3    H127708   3.187  -0.037   3.680  0.4400  0.3359 -0.8795
 9248TIP3    H227709   3.081   0.068   3.704  0.2803  0.2893 -1.3786
 9249TIP3   OH227710   5.411   2.734   2.559 -0.3781  0.4513  0.4505
 9249TIP3    H127711   5.460   2.653   2.543 -0.5026  0.3051  0.7902
 9249TIP3    H227712   5.436   2.792   2.488  0.0285  0.2575  0.4346
 9250TIP3   OH227713   6.419   0.323   2.156  0.3545 -0.1993 -0.0861
 9250TIP3    H127714   6.451   0.283   2.074 -1.7942 -2.2359 -0.0470
 9250TIP3    H227715   6.335   0.362   2.132  0.5676  0.8443  0.7908
 9251TIP3   OH227716   4.932   6.324   4.599  1.6067 -0.2134  0.3106
 9251TIP3    H127717   4.869   6.393   4.621 -2.1515 -3.0378 -0.5819
 9251TIP3    H227718   4.945   6.333   4.505  0.3115 -1.2385  0.0107
 9252TIP3   OH227719   2.352   0.433   1.785  0.0237  0.3931 -0.0293
 9252TIP3    H127720   2.281   0.370   1.773 -0.2141  0.3964  1.2390
 9252TIP3    H227721   2.378   0.423   1.876  0.0305  2.0538  0.1830
 9253TIP3   OH227722   6.769   2.997   5.555 -0.7474  0.0806  0.1351
 9253TIP3    H127723   6.749   2.933   5.623  0.2464  1.2303  1.5790
 9253TIP3    H227724   6.734   3.079   5.588 -0.5747  0.6078 -0.9314
 9254TIP3   OH227725   3.831   0.536   1.734 -0.5637 -0.1832 -0.7574
 9254TIP3    H127726   3.875   0.602   1.788  0.0419  0.1318 -1.6189
 9254TIP3    H227727   3.755   0.510   1.786 -0.0670  0.1992  0.1963
 9255TIP3   OH227728   6.906   3.735   3.319 -1.0847  0.7430 -0.2265
 9255TIP3    H127729   6.896   3.695   3.406 -1.1837 -0.9902 -1.0006
 9255TIP3    H227730   6.824   3.717   3.274 -1.0191  1.5954 -0.7177
 9256TIP3   OH227731   3.698   2.952   0.656  0.1966  0.7258  0.4169
 9256TIP3    H127732   3.791   2.937   0.672 -0.1241 -1.0936  0.7758
 9256TIP3    H227733   3.663   2.866   0.633 -1.1505  1.6300 -1.1155
 9257TIP3   OH227734   6.066   5.779   2.499 -0.2433  0.1677 -0.5508
 9257TIP3    H127735   6.062   5.868   2.532 -0.9374  0.1572 -0.5736
 9257TIP3    H227736   5.999   5.732   2.550  0.3348 -0.4111 -0.3179
 9258TIP3   OH227737   1.208   0.702   1.752 -0.5689 -0.3419 -0.1921
 9258TIP3    H127738   1.136   0.686   1.691 -1.5780  0.0193  0.8560
 9258TIP3    H227739   1.172   0.681   1.838  0.7884 -0.7504  0.3030
 9259TIP3   OH227740   3.007   0.788   2.761 -0.6071 -0.0156 -0.2506
 9259TIP3    H127741   3.011   0.870   2.712 -0.0627 -0.6024 -1.1973
 9259TIP3    H227742   3.004   0.816   2.853 -0.3200  1.0581 -0.5530
 9260TIP3   OH227743   4.489   3.188   5.691  0.2471  0.0977  0.3442
 9260TIP3    H127744   4.431   3.264   5.691  0.1978  0.0655  0.9490
 9260TIP3    H227745   4.435   3.116   5.658  0.2598  0.2980 -0.1162
 9261TIP3   OH227746   2.209   5.093   1.218  0.0256 -0.5631  0.0145
 9261TIP3    H127747   2.250   5.156   1.277  1.1127  0.2829 -1.5481
 9261TIP3    H227748   2.166   5.147   1.152 -0.0789 -1.4651 -0.6803
 9262TIP3   OH227749   4.400   0.819   3.066  0.1684  0.1818  0.8582
 9262TIP3    H127750   4.422   0.728   3.083 -2.0053 -0.4167  0.7552
 9262TIP3    H227751   4.305   0.823   3.076  0.1135  2.2615  0.0150
 9263TIP3   OH227752   0.605   2.103   5.589  0.1175  0.4125 -0.4016
 9263TIP3    H127753   0.553   2.086   5.510 -0.5824 -1.4705  0.4012
 9263TIP3    H227754   0.544   2.144   5.650 -0.2387 -1.0147  0.2376
 9264TIP3   OH227755   0.490   2.612   2.207 -0.2288 -0.3021 -0.0042
 9264TIP3    H127756   0.565   2.589   2.263  0.1658  1.4471  0.2385
 9264TIP3    H227757   0.498   2.554   2.131  1.0052 -0.5922  0.3274
 9265TIP3   OH227758   2.464   0.436   0.387 -0.0555  0.0851 -0.0174
 9265TIP3    H127759   2.513   0.509   0.423 -0.1008  1.1526 -2.0130
 9265TIP3    H227760   2.525   0.362   0.390  0.4492  0.5189  0.7452
 9266TIP3   OH227761   0.570   0.610   4.274  0.2369  0.2516  0.0615
 9266TIP3    H127762   0.515   0.689   4.272  1.0623  0.8960  1.1534
 9266TIP3    H227763   0.508   0.538   4.283 -0.5457  0.7482 -1.1091
 9267TIP3   OH227764   6.243   6.673   4.097 -0.4220  0.1138  0.8278
 9267TIP3    H127765   6.190   6.627   4.163 -2.0522  0.0766 -0.4375
 9267TIP3    H227766   6.300   6.606   4.061  2.1943  0.5620  3.6732
 9268TIP3   OH227767   5.352   0.706   5.095 -0.3584  0.2026 -0.1838
 9268TIP3    H127768   5.332   0.686   5.003  1.0428  2.0911 -0.9784
 9268TIP3    H227769   5.315   0.793   5.109  0.1142  0.2577  0.8122
 9269TIP3   OH227770   3.894   4.815   4.402 -0.6043 -0.1655  0.0825
 9269TIP3    H127771   3.928   4.865   4.477 -1.3795 -0.4103  0.6047
 9269TIP3    H227772   3.893   4.879   4.330  2.5198 -0.5427 -0.4500
 9270TIP3   OH227773   3.802   3.877   4.043 -0.0820  0.1576  0.6762
 9270TIP3    H127774   3.865   3.950   4.045  1.4878 -0.9570 -2.2252
 9270TIP3    H227775   3.856   3.800   4.025 -2.0764 -1.2326  0.3839
 9271TIP3   OH227776   2.620   3.924   1.391 -0.4796  0.3070 -0.2173
 9271TIP3    H127777   2.622   3.963   1.479 -0.0123 -1.6288  0.6896
 9271TIP3    H227778   2.619   3.999   1.332 -0.2542  1.6769  1.4179
 9272TIP3   OH227779   4.383   3.963   4.671 -0.1600  0.3479  0.7749
 9272TIP3    H127780   4.380   4.003   4.584 -0.1120  1.0106  1.0667
 9272TIP3    H227781   4.325   4.019   4.724 -1.9827 -1.3294  0.6674
 9273TIP3   OH227782   2.985   3.264   2.267  0.2312  0.0543 -0.4723
 9273TIP3    H127783   2.919   3.225   2.209 -0.4557 -0.7529  0.7824
 9273TIP3    H227784   3.065   3.264   2.216  0.0958 -2.4199 -0.8222
 9274TIP3   OH227785   1.419   3.101   4.111  0.0571 -0.4712  0.2233
 9274TIP3    H127786   1.348   3.073   4.053  0.4816 -0.5099 -0.2862
 9274TIP3    H227787   1.440   3.190   4.081  0.6653 -0.7069 -0.0641
 9275TIP3   OH227788   2.161   4.271   3.736  0.1727 -0.1599 -0.3214
 9275TIP3    H127789   2.115   4.310   3.810 -1.2270 -1.1907 -0.6057
 9275TIP3    H227790   2.130   4.180   3.733 -0.1090 -0.0465 -2.3882
 9276TIP3   OH227791   2.122   2.859   4.124 -0.5381  0.0153  0.6835
 9276TIP3    H127792   2.085   2.886   4.040 -1.4296  0.1193  1.1034
 9276TIP3    H227793   2.204   2.816   4.101 -0.7742  0.0421 -0.2439
 9277TIP3   OH227794   4.439   0.855   3.879 -0.1322  0.1152  0.2485
 9277TIP3    H127795   4.415   0.857   3.972  2.0949  1.4519  0.8843
 9277TIP3    H227796   4.388   0.926   3.839  1.0984  1.5572  1.1293
 9278TIP3   OH227797   3.940   5.509   2.773 -0.9284  0.1031 -0.5051
 9278TIP3    H127798   4.013   5.451   2.796 -1.1531  0.0712  0.1283
 9278TIP3    H227799   3.983   5.590   2.743 -0.5688  1.2642  2.7605
 9279TIP3   OH227800   3.424   0.187   5.678 -0.0761 -0.0817 -0.3114
 9279TIP3    H127801   3.451   0.186   5.770 -2.0367 -1.3016  0.3229
 9279TIP3    H227802   3.461   0.106   5.641  1.1710  0.6789 -0.7705
 9280TIP3   OH227803   0.098   1.524   5.649 -0.0808  0.0928  0.1579
 9280TIP3    H127804   0.069   1.549   5.561  1.5968  0.6523 -0.2721
 9280TIP3    H227805   0.105   1.606   5.697  0.9742  0.0024  0.1771
 9281TIP3   OH227806   1.949   4.337   1.278  0.0510 -0.1488 -0.2463
 9281TIP3    H127807   1.964   4.312   1.369  1.9957 -1.2764 -0.8085
 9281TIP3    H227808   2.026   4.389   1.255 -1.1861  1.5141 -0.8134
 9282TIP3   OH227809   1.620   6.253   1.316  0.5251  0.5226  0.0457
 9282TIP3    H127810   1.583   6.340   1.324  1.7841  1.0692  0.1221
 9282TIP3    H227811   1.592   6.223   1.229  0.5402  1.2251 -0.2067
 9283TIP3   OH227812   4.509   5.295   4.063 -0.5680 -0.0757  0.8025
 9283TIP3    H127813   4.594   5.255   4.081 -0.7765 -1.0908 -0.3024
 9283TIP3    H227814   4.445   5.227   4.085 -0.8879 -0.8056 -1.9462
 9284TIP3   OH227815   3.637   0.840   2.216 -0.2830  0.1887  0.0396
 9284TIP3    H127816   3.581   0.817   2.290 -2.0599 -0.6124 -1.4394
 9284TIP3    H227817   3.601   0.922   2.182  2.0560  1.9114  1.4565
 9285TIP3   OH227818   4.923   2.595   4.520  0.1919  0.0646 -0.2670
 9285TIP3    H127819   4.834   2.573   4.492  0.1450 -0.1468  0.0438
 9285TIP3    H227820   4.912   2.645   4.600  0.4219 -2.4765  1.4459
 9286TIP3   OH227821   4.954   0.201   3.230 -0.2437  0.1545 -0.5978
 9286TIP3    H127822   5.048   0.218   3.223 -0.2112 -0.0733 -0.7125
 9286TIP3    H227823   4.923   0.263   3.297 -0.1647  0.8123 -1.1674
 9287TIP3   OH227824   3.053   6.186   0.039  0.0397 -0.6096  0.3150
 9287TIP3    H127825   3.056   6.228   0.125  2.9191 -0.7179  0.3634
 9287TIP3    H227826   3.137   6.207  -0.000 -0.9808 -1.0534 -2.2871
 9288TIP3   OH227827   2.378   4.990   0.161  0.1817  0.1645  0.1555
 9288TIP3    H127828   2.338   5.032   0.237  0.5755  0.3789  0.2473
 9288TIP3    H227829   2.390   5.061   0.098 -0.7329 -0.1263 -0.3648
 9289TIP3   OH227830   0.433   6.264   3.526 -0.0568 -0.2446  0.3351
 9289TIP3    H127831   0.501   6.257   3.593  0.1796 -0.7898  0.0455
 9289TIP3    H227832   0.415   6.174   3.500 -0.1863 -0.0484 -0.2870
 9290TIP3   OH227833   3.072   5.995   0.305 -0.1416  0.5020  0.1665
 9290TIP3    H127834   3.038   6.078   0.339  0.4539  0.8329 -0.0182
 9290TIP3    H227835   3.108   5.951   0.382  0.1846  0.7414  0.1543
 9291TIP3   OH227836   5.938   4.064   2.719  0.2192  0.0567 -0.1221
 9291TIP3    H127837   5.918   3.992   2.779  1.6536 -0.9024 -0.7457
 9291TIP3    H227838   5.988   4.126   2.773  0.2125 -0.0952  0.0621
 9292TIP3   OH227839   1.405   6.081   0.368 -0.7577 -0.3366 -0.4720
 9292TIP3    H127840   1.454   6.100   0.287  1.6014  0.7686  1.0906
 9292TIP3    H227841   1.359   6.163   0.388  0.7904  0.3135  0.6252
 9293TIP3   OH227842   3.851   2.646   1.044  0.3463  0.6482  0.0939
 9293TIP3    H127843   3.814   2.709   1.106  1.0006  0.9615  0.1764
 9293TIP3    H227844   3.921   2.603   1.092  1.1662  1.2211 -0.5605
 9294TIP3   OH227845   1.494   6.488   1.362 -0.4654 -0.2121 -0.0072
 9294TIP3    H127846   1.474   6.530   1.446 -3.2990 -1.3229 -0.0109
 9294TIP3    H227847   1.474   6.555   1.296 -2.2188 -0.5621  0.1077
 9295TIP3   OH227848   2.730   5.462   3.663 -0.5276 -0.6009  0.3893
 9295TIP3    H127849   2.749   5.388   3.605  0.0495  0.0415 -0.2440
 9295TIP3    H227850   2.636   5.455   3.679 -0.8008 -0.5011 -1.0292
 9296TIP3   OH227851   5.480   2.190   4.918 -0.1992  0.2279 -0.0213
 9296TIP3    H127852   5.480   2.247   4.841  0.1850  0.9111  0.4682
 9296TIP3    H227853   5.549   2.226   4.975 -1.0754  0.3097  1.0386
 9297TIP3   OH227854   2.992   3.581   1.149 -0.6402 -0.4508 -0.0910
 9297TIP3    H127855   2.926   3.607   1.085  0.0553 -1.1442 -1.1167
 9297TIP3    H227856   2.948   3.515   1.203 -0.7416 -1.0404 -0.8792
 9298TIP3   OH227857   3.723   6.430   4.615 -0.4513  0.6258  0.4575
 9298TIP3    H127858   3.675   6.388   4.687  0.2715  0.4909  0.8684
 9298TIP3    H227859   3.798   6.472   4.658  1.1301 -1.1600 -0.4502
 9299TIP3   OH227860   0.952   3.261   2.328 -0.7492  0.7103 -0.0421
 9299TIP3    H127861   0.913   3.273   2.242 -0.9528  1.2293  0.1151
 9299TIP3    H227862   0.885   3.291   2.390 -0.3371  1.0451  0.2576
 9300TIP3   OH227863   2.821   4.056   1.988  0.3068 -0.1063  0.3258
 9300TIP3    H127864   2.728   4.044   1.969  0.2864 -0.5170  0.6613
 9300TIP3    H227865   2.826   4.050   2.083  0.4682  1.4511  0.4513
 9301TIP3   OH227866   4.181   4.800   3.060 -0.7884 -0.2310 -0.1449
 9301TIP3    H127867   4.099   4.756   3.040 -0.5721 -0.1978 -1.1393
 9301TIP3    H227868   4.235   4.788   2.982  0.7130 -1.4994  1.0029
 9302TIP3   OH227869   1.292   2.492   4.987  0.7862 -0.0364 -0.2628
 9302TIP3    H127870   1.242   2.442   5.051  0.2720  1.0889  0.2426
 9302TIP3    H227871   1.384   2.481   5.014  0.6823 -0.6283 -0.1286
 9303TIP3   OH227872   3.911   5.224   5.159  0.2884  0.0283 -0.3723
 9303TIP3    H127873   3.976   5.239   5.090  1.6787  0.5792  1.0081
 9303TIP3    H227874   3.882   5.311   5.185  1.3109 -0.0395  1.1203
 9304TIP3   OH227875   6.538   0.857   4.644 -0.1142 -0.6010 -0.8365
 9304TIP3    H127876   6.459   0.866   4.592 -1.5982  0.6274  1.4455
 9304TIP3    H227877   6.555   0.946   4.678  0.0029 -1.5044  1.7064
 9305TIP3   OH227878   3.415   4.095   3.885 -0.4148  0.5075 -0.4381
 9305TIP3    H127879   3.348   4.154   3.921  0.3156  0.6480  0.7493
 9305TIP3    H227880   3.468   4.151   3.829 -0.7310  0.6076 -0.6392
 9306TIP3   OH227881   6.915   5.251   1.051  0.7428 -0.0750  0.0029
 9306TIP3    H127882   6.978   5.274   1.119  1.4967 -0.0897 -0.6709
 9306TIP3    H227883   6.853   5.325   1.050  2.1504  1.1526 -0.9643
 9307TIP3   OH227884   3.241   4.255   4.024 -0.5859  0.6485 -0.1809
 9307TIP3    H127885   3.203   4.171   4.049 -0.0959  0.9251  1.6513
 9307TIP3    H227886   3.167   4.307   3.993 -0.7029 -0.8599 -2.7156
 9308TIP3   OH227887   2.253   5.621   1.244  0.4017 -0.2502 -0.3601
 9308TIP3    H127888   2.313   5.676   1.295 -0.9461  0.6776  0.2953
 9308TIP3    H227889   2.180   5.679   1.223 -1.6213 -2.0641  1.3108
 9309TIP3   OH227890   2.900   3.735   2.018  0.0997 -0.6991  0.3914
 9309TIP3    H127891   2.914   3.830   2.018  1.2009 -0.8314  1.9217
 9309TIP3    H227892   2.988   3.698   2.021 -0.3378 -1.7737  0.4398
 9310TIP3   OH227893   2.609   0.862   5.023  0.4848  0.2880 -0.1979
 9310TIP3    H127894   2.623   0.768   5.012 -0.6395 -0.0268  0.7759
 9310TIP3    H227895   2.525   0.868   5.069  0.8424  1.7430  0.3140
 9311TIP3   OH227896   0.916   5.496   3.630  0.5778  0.2381  0.7312
 9311TIP3    H127897   0.833   5.538   3.648  0.6888  0.3735  0.9281
 9311TIP3    H227898   0.980   5.567   3.631  0.7295  0.1015  0.8267
 9312TIP3   OH227899   3.486   0.488   2.710  0.0529  0.5999 -0.2495
 9312TIP3    H127900   3.411   0.542   2.685  1.5831  2.0873 -2.0251
 9312TIP3    H227901   3.522   0.531   2.787 -0.2094  0.6240 -0.1412
 9313TIP3   OH227902   3.865   6.532   5.311  0.5834  0.1602 -0.1081
 9313TIP3    H127903   3.935   6.587   5.346  1.3567 -0.2085 -1.0260
 9313TIP3    H227904   3.906   6.447   5.295 -0.0743 -0.0743 -0.6238
 9314TIP3   OH227905   5.375   3.621   3.007 -0.1041 -0.2504 -0.3571
 9314TIP3    H127906   5.400   3.642   3.097 -0.4974  1.4546 -0.6034
 9314TIP3    H227907   5.401   3.698   2.957 -2.0235 -0.1597 -1.3010
 9315TIP3   OH227908   4.384   3.699   1.824 -0.0743  0.4769  0.2739
 9315TIP3    H127909   4.398   3.636   1.894 -0.7188 -0.2456 -0.2293
 9315TIP3    H227910   4.343   3.774   1.866 -1.2387 -0.2870  0.5525
 9316TIP3   OH227911   6.144   0.445   5.864 -0.2079 -0.0362  0.3201
 9316TIP3    H127912   6.142   0.522   5.921  1.2329 -0.7994  1.4701
 9316TIP3    H227913   6.207   0.468   5.796 -0.9432  0.3782 -0.2274
 9317TIP3   OH227914   6.474   6.426   1.843 -0.3767  0.7748 -0.4205
 9317TIP3    H127915   6.487   6.340   1.804 -0.9093 -0.5914  2.1478
 9317TIP3    H227916   6.536   6.483   1.798 -0.1242 -0.8845 -2.3195
 9318TIP3   OH227917   5.557   2.226   1.857  0.2218  0.0590 -0.4184
 9318TIP3    H127918   5.637   2.252   1.904 -0.4745 -0.1560  0.9173
 9318TIP3    H227919   5.513   2.165   1.916 -1.5124  1.0586 -0.6089
 9319TIP3   OH227920   0.553   1.275   1.061  0.1511 -0.2895  0.3413
 9319TIP3    H127921   0.498   1.306   0.989  0.6055  1.8908  0.8721
 9319TIP3    H227922   0.507   1.301   1.140 -0.6170 -3.1620  0.9368
 9320TIP3   OH227923   3.754   1.126   1.766  0.1005 -0.3404  0.9197
 9320TIP3    H127924   3.667   1.090   1.748  0.1562 -0.6177  1.2030
 9320TIP3    H227925   3.782   1.163   1.683 -0.2087 -0.4212  0.7772
 9321TIP3   OH227926   0.668   4.989   0.863  0.0106  0.1183  0.2135
 9321TIP3    H127927   0.616   4.964   0.786 -0.6202 -1.4462  1.0847
 9321TIP3    H227928   0.616   4.957   0.937  1.0074  0.8417  1.2437
 9322TIP3   OH227929   3.003   3.144   1.872  0.6810  0.1485 -0.0569
 9322TIP3    H127930   2.932   3.173   1.815  0.6848  0.3506  0.0419
 9322TIP3    H227931   2.972   3.164   1.961  1.2300  1.0317 -0.0604
 9323TIP3   OH227932   0.770   3.818   4.095  0.4716 -0.4157  0.3601
 9323TIP3    H127933   0.717   3.847   4.170  2.0952 -2.4008  2.4285
 9323TIP3    H227934   0.789   3.726   4.114  2.0503 -0.6168 -1.8645
 9324TIP3   OH227935   3.447   5.094   5.155  0.5293 -0.3968 -0.1574
 9324TIP3    H127936   3.512   5.150   5.112 -0.3059  0.2107 -0.6559
 9324TIP3    H227937   3.421   5.143   5.233  1.0670 -0.8968  0.3497
 9325TIP3   OH227938   2.881   5.548   4.503 -0.1666  0.3155  0.0495
 9325TIP3    H127939   2.943   5.584   4.439 -0.3232 -1.2296 -1.0337
 9325TIP3    H227940   2.832   5.624   4.534  0.9611  1.3107 -0.5122
 9326TIP3   OH227941   6.466   3.365   4.172  0.2218  0.0348 -0.1969
 9326TIP3    H127942   6.488   3.356   4.265  1.2679 -0.4569 -0.4861
 9326TIP3    H227943   6.457   3.275   4.141  0.0681  0.1954 -0.6240
 9327TIP3   OH227944   5.577   5.113   0.360 -0.4667  0.3379 -1.2720
 9327TIP3    H127945   5.569   5.202   0.324 -0.2968  1.5613  1.4605
 9327TIP3    H227946   5.666   5.109   0.395 -0.7578 -0.5906 -0.6108
 9328TIP3   OH227947   5.259   3.529   4.808 -0.0419  0.1852 -0.5726
 9328TIP3    H127948   5.223   3.506   4.722  2.0323  0.6430 -1.6485
 9328TIP3    H227949   5.209   3.605   4.836 -2.4867 -1.5055 -0.1063
 9329TIP3   OH227950   0.566   3.155   2.872 -0.3126  0.5061  0.4968
 9329TIP3    H127951   0.568   3.245   2.838 -0.1734 -0.2021 -1.5036
 9329TIP3    H227952   0.480   3.122   2.848 -1.2784  0.7539  3.2323
 9330TIP3   OH227953   3.558   5.637   2.517 -0.0870  0.0886  0.0966
 9330TIP3    H127954   3.636   5.630   2.462  0.3955  0.7594  0.6846
 9330TIP3    H227955   3.573   5.574   2.588 -0.8042 -0.9300 -0.6240
 9331TIP3   OH227956   4.887   2.146   2.961 -0.3265 -0.6679  0.5234
 9331TIP3    H127957   4.855   2.222   2.912 -0.2337 -0.4069  0.8602
 9331TIP3    H227958   4.812   2.087   2.965 -0.5999 -0.3119  0.8055
 9332TIP3   OH227959   4.031   2.068   5.438  0.0076  0.1110  0.2504
 9332TIP3    H127960   4.099   2.120   5.396 -0.0462  1.3836  1.6660
 9332TIP3    H227961   3.968   2.050   5.368  1.3560 -0.3843 -0.8793
 9333TIP3   OH227962   5.407   3.349   0.905  0.1645  0.4629 -0.2390
 9333TIP3    H127963   5.338   3.382   0.962  0.5149 -0.5410  0.8195
 9333TIP3    H227964   5.462   3.297   0.963  1.1933  0.3481 -1.2833
 9334TIP3   OH227965   6.458   6.315   4.155  0.1880 -0.2316 -0.1303
 9334TIP3    H127966   6.407   6.247   4.110 -1.2496  0.2600  0.6700
 9334TIP3    H227967   6.518   6.348   4.088 -1.2317 -0.1625 -1.4317
 9335TIP3   OH227968   5.195   2.269   3.825  0.3332  0.2296 -1.1328
 9335TIP3    H127969   5.135   2.339   3.799 -2.3363 -1.8949 -1.2297
 9335TIP3    H227970   5.278   2.291   3.782 -1.0700  2.0548 -3.1660
 9336TIP3   OH227971   5.146   5.529   1.379  0.0729  0.0525 -0.0556
 9336TIP3    H127972   5.203   5.590   1.426  0.0351 -0.6538  0.9247
 9336TIP3    H227973   5.113   5.579   1.305  1.2120  0.7727 -0.1029
 9337TIP3   OH227974   3.868   2.211   5.757 -0.2389  0.2112 -0.1810
 9337TIP3    H127975   3.917   2.214   5.675  1.6978 -1.1569  0.8552
 9337TIP3    H227976   3.842   2.119   5.767 -0.4324  0.3564  0.7510
 9338TIP3   OH227977   3.911   0.253   2.953  0.7732 -0.2555 -0.2437
 9338TIP3    H127978   3.849   0.226   2.886  0.4488  0.1516 -0.1143
 9338TIP3    H227979   3.992   0.271   2.906  0.2077  1.2175 -0.7080
 9339TIP3   OH227980   2.836   4.900   0.089 -0.2747 -0.9337  0.1527
 9339TIP3    H127981   2.775   4.906   0.163  1.0117 -2.0030  1.3532
 9339TIP3    H227982   2.784   4.928   0.013 -1.6663  0.1144  1.4192
 9340TIP3   OH227983   0.467   4.405   5.469  0.0431  0.2550 -0.5944
 9340TIP3    H127984   0.409   4.481   5.473 -1.4450 -0.8471 -0.4778
 9340TIP3    H227985   0.429   4.343   5.530  0.3201 -1.2104 -1.8717
 9341TIP3   OH227986   4.040   2.546   3.435 -0.2764  0.1965 -0.3714
 9341TIP3    H127987   4.044   2.466   3.489  0.9095  0.6756  0.2887
 9341TIP3    H227988   3.993   2.519   3.356 -0.6471 -0.9402  0.2117
 9342TIP3   OH227989   5.805   6.401   5.444  0.4310  0.0469 -0.3761
 9342TIP3    H127990   5.870   6.342   5.481  1.1695  0.4275 -1.0473
 9342TIP3    H227991   5.757   6.433   5.520  0.4854 -0.8613  0.0547
 9343TIP3   OH227992   6.518   5.413   0.627  0.0400 -0.0812 -0.2733
 9343TIP3    H127993   6.597   5.457   0.595 -0.0931  0.0416 -0.4390
 9343TIP3    H227994   6.484   5.367   0.550  1.3976 -2.3462  0.3813
 9344TIP3   OH227995   0.593   2.237   3.014 -0.0457 -0.3030  0.5630
 9344TIP3    H127996   0.513   2.288   3.015  0.8302  1.1155  0.3540
 9344TIP3    H227997   0.587   2.180   3.091 -1.1388 -0.0723  0.6600
 9345TIP3   OH227998   1.196   3.597   5.687 -0.0389  0.2153  0.0856
 9345TIP3    H127999   1.154   3.521   5.648 -1.5894  0.1215  1.8072
 9345TIP3    H228000   1.136   3.670   5.671 -0.6349  0.2078  2.0227
 9346TIP3   OH228001   1.613   2.575   2.485  0.1269  0.2588 -0.4716
 9346TIP3    H128002   1.681   2.583   2.551 -0.1016  1.6422 -0.3825
 9346TIP3    H228003   1.601   2.480   2.474  0.8289  0.0098  0.7729
 9347TIP3   OH228004   4.969   0.566   1.407 -0.2678 -0.4254  0.3366
 9347TIP3    H128005   4.948   0.473   1.402  1.4893 -0.9113  1.0355
 9347TIP3    H228006   5.065   0.568   1.410 -0.2951  1.3581  1.1059
 9348TIP3   OH228007   6.186   4.478   0.878  0.0260 -0.1821  0.3426
 9348TIP3    H128008   6.200   4.395   0.833 -0.0250 -0.8433  1.5159
 9348TIP3    H228009   6.266   4.528   0.860  0.7543 -1.0985  0.9210
 9349TIP3   OH228010   4.134   5.773   5.336  0.0366  0.2686 -0.3536
 9349TIP3    H128011   4.136   5.779   5.241 -0.3192 -0.4333 -0.4122
 9349TIP3    H228012   4.224   5.790   5.363  0.0403  0.9563 -0.7775
 9350TIP3   OH228013   5.223   3.133   2.125  0.2766  0.0031  0.4801
 9350TIP3    H128014   5.307   3.180   2.121 -0.9801  2.3503 -2.2983
 9350TIP3    H228015   5.239   3.051   2.079  1.9987 -1.6536  3.6762
 9351TIP3   OH228016   4.803   6.360   1.072  0.2894 -0.2273  0.4324
 9351TIP3    H128017   4.862   6.400   1.009  0.5191 -0.9486  0.1813
 9351TIP3    H228018   4.715   6.386   1.043  0.3596 -0.9844 -0.4959
 9352TIP3   OH228019   3.216   5.836   4.170  0.1592  0.4221 -0.1653
 9352TIP3    H128020   3.200   5.767   4.105 -2.7332  0.5146  0.3435
 9352TIP3    H228021   3.267   5.793   4.239 -0.3595 -0.8150 -0.5337
 9353TIP3   OH228022   3.183   5.557   3.673  0.2509  0.0952  0.3770
 9353TIP3    H128023   3.271   5.584   3.699  0.1494  0.2282  0.5843
 9353TIP3    H228024   3.130   5.566   3.752  0.0514  0.0070  0.2564
 9354TIP3   OH228025   1.462   4.081   0.805 -0.1825 -0.5327 -0.0770
 9354TIP3    H128026   1.398   4.142   0.768  0.4172 -0.1949 -0.5749
 9354TIP3    H228027   1.459   4.097   0.899 -1.9396 -1.6033  0.1016
 9355TIP3   OH228028   2.337   2.675   1.056 -0.3198 -0.5051  0.2111
 9355TIP3    H128029   2.328   2.757   1.105 -0.6969 -0.8516  0.7281
 9355TIP3    H228030   2.308   2.698   0.967  1.0039  0.2896 -0.0416
 9356TIP3   OH228031   1.334   1.366   4.936 -0.0944  0.0725  0.2082
 9356TIP3    H128032   1.339   1.431   4.866 -1.8893  0.3342  0.2746
 9356TIP3    H228033   1.325   1.282   4.891  1.1704 -0.0556  0.1390
 9357TIP3   OH228034   2.643   6.431   3.649  0.0777  0.3778  0.5474
 9357TIP3    H128035   2.631   6.483   3.569  0.5031  0.2780  0.4158
 9357TIP3    H228036   2.616   6.490   3.719  0.2474  0.6661  0.3725
 9358TIP3   OH228037   1.588   5.644   3.646 -0.0822  0.0930 -0.5718
 9358TIP3    H128038   1.584   5.556   3.609  1.9426 -0.7029  0.9114
 9358TIP3    H228039   1.600   5.630   3.740  0.9036  1.9263 -0.3767
 9359TIP3   OH228040   1.781   4.007   3.775 -0.2372 -0.4169 -0.3848
 9359TIP3    H128041   1.760   4.038   3.863 -0.2295 -0.0694 -0.5001
 9359TIP3    H228042   1.710   4.041   3.720  1.1658  1.7858 -0.9716
 9360TIP3   OH228043   3.826   5.604   4.335  0.2790  0.1090 -0.3911
 9360TIP3    H128044   3.842   5.555   4.255 -1.7389  0.0911 -0.8434
 9360TIP3    H228045   3.792   5.689   4.305 -0.4314  0.1282  0.4263
 9361TIP3   OH228046   6.876   6.585   2.642  0.0091 -0.6260  0.1608
 9361TIP3    H128047   6.911   6.668   2.674 -1.1426 -0.3230  0.6893
 9361TIP3    H228048   6.878   6.527   2.718 -3.3597  0.2916  1.1581
 9362TIP3   OH228049   3.279   0.856   3.670  0.2304 -0.3650 -0.1035
 9362TIP3    H128050   3.374   0.867   3.674  0.4383 -1.7076 -0.8962
 9362TIP3    H228051   3.259   0.793   3.739 -0.2821  0.8983  0.9532
 9363TIP3   OH228052   5.390   3.144   4.716 -0.7600 -0.1301  0.0154
 9363TIP3    H128053   5.350   3.101   4.641 -0.6998  0.9954 -0.6881
 9363TIP3    H228054   5.405   3.234   4.687 -0.4482  0.2458  1.2754
 9364TIP3   OH228055   5.669   4.475   0.771  0.0827 -0.0129  0.2544
 9364TIP3    H128056   5.763   4.467   0.785 -0.0602  0.6823  1.8118
 9364TIP3    H228057   5.655   4.438   0.684  2.3046  3.1720 -1.7001
 9365TIP3   OH228058   3.872   0.036   3.349 -0.0226  0.0222 -0.7093
 9365TIP3    H128059   3.907   0.090   3.421  1.7943 -1.0051 -0.7807
 9365TIP3    H228060   3.818   0.097   3.298 -0.1030  1.1406  0.6396
 9366TIP3   OH228061   3.403   4.252   4.812 -0.1232 -0.3247  0.2119
 9366TIP3    H128062   3.458   4.209   4.877 -0.0580  0.0522  0.4131
 9366TIP3    H228063   3.464   4.278   4.742  0.0995  0.7628  0.7786
 9367TIP3   OH228064   2.217   5.441   4.950 -0.3598 -0.2103 -0.5173
 9367TIP3    H128065   2.294   5.453   5.006 -0.6073 -0.7850 -0.0475
 9367TIP3    H228066   2.145   5.425   5.011 -0.6580 -0.6917 -0.9884
 9368TIP3   OH228067   5.148   3.241   5.820 -0.7665  0.3240 -0.9956
 9368TIP3    H128068   5.220   3.304   5.824 -1.9599  1.7342 -0.8925
 9368TIP3    H228069   5.142   3.205   5.908  0.3573 -0.4599 -1.2239
 9369TIP3   OH228070   5.986   0.102   1.510  0.1232 -0.0281  0.3234
 9369TIP3    H128071   5.902   0.075   1.548  0.5379 -1.3121  0.3805
 9369TIP3    H228072   6.036   0.134   1.585  0.5898 -1.6546  0.7416
 9370TIP3   OH228073   4.337   5.849   4.195  0.2990  0.0905 -0.0242
 9370TIP3    H128074   4.283   5.806   4.261  0.3111  1.2030  0.7343
 9370TIP3    H228075   4.307   5.940   4.193  2.3274  0.8443  0.6606
 9371TIP3   OH228076   1.451   0.121   5.211 -0.0793  1.1993 -0.2568
 9371TIP3    H128077   1.438   0.063   5.136 -2.6741 -0.8312  1.5930
 9371TIP3    H228078   1.371   0.174   5.215 -0.4016  0.6121  1.5929
 9372TIP3   OH228079   1.661   4.269   0.376  0.2487  0.4376 -0.2501
 9372TIP3    H128080   1.689   4.214   0.450  2.4737  0.8780 -0.6999
 9372TIP3    H228081   1.634   4.207   0.309  1.3869 -0.0920 -0.2403
 9373TIP3   OH228082   2.206   2.528   5.675  0.1584 -0.2236 -0.5675
 9373TIP3    H128083   2.160   2.604   5.710 -1.5319  0.2614 -3.5449
 9373TIP3    H228084   2.239   2.482   5.753 -3.0077  0.8826  1.6119
 9374TIP3   OH228085   7.179   3.799   5.038  1.0263  0.1321 -0.0620
 9374TIP3    H128086   7.086   3.812   5.059  0.8331 -0.0289 -0.7825
 9374TIP3    H228087   7.179   3.770   4.947  1.6857 -1.3398  0.3766
 9375TIP3   OH228088   2.967   3.321   1.335  0.3055  0.0987  0.4053
 9375TIP3    H128089   3.041   3.313   1.276  0.0185 -0.9157  0.1651
 9375TIP3    H228090   2.938   3.231   1.351 -1.2257  0.4807  0.0326
 9376TIP3   OH228091   6.009   3.452   1.266 -0.8113  0.6995  0.3066
 9376TIP3    H128092   5.983   3.408   1.185  0.6120 -0.3306  0.3596
 9376TIP3    H228093   6.074   3.516   1.239  0.9010 -0.7723  0.7548
 9377TIP3   OH228094   6.461   3.258   1.372 -0.6644 -0.1617 -0.3052
 9377TIP3    H128095   6.405   3.192   1.413  0.4345 -0.4540  0.7860
 9377TIP3    H228096   6.549   3.221   1.377  0.1504  1.7946  1.2718
 9378TIP3   OH228097   1.156   1.254   4.707 -0.4391  0.1045 -0.4479
 9378TIP3    H128098   1.129   1.314   4.637  1.6103  1.7019  0.0289
 9378TIP3    H228099   1.186   1.176   4.661  0.3987  0.9284 -1.3551
 9379TIP3   OH228100   2.877   2.181   5.420  0.3406 -0.6231 -0.3280
 9379TIP3    H128101   2.867   2.180   5.325 -0.8883  0.7918 -0.2548
 9379TIP3    H228102   2.811   2.119   5.452  0.2684 -0.5607 -0.3577
 9380TIP3   OH228103   6.651   4.272   2.281 -0.0528 -0.0932  0.3649
 9380TIP3    H128104   6.654   4.363   2.251  2.1162  0.6030  2.4498
 9380TIP3    H228105   6.721   4.228   2.234  0.6971  0.0093  1.3656
 9381TIP3   OH228106   6.474   3.540   4.579  0.6628  0.0978 -0.3466
 9381TIP3    H128107   6.435   3.464   4.536  2.5004 -0.9264 -0.3094
 9381TIP3    H228108   6.491   3.601   4.507  0.7251 -0.2393 -0.6226
 9382TIP3   OH228109   0.987   3.595   0.397  0.0417 -0.0930 -0.2886
 9382TIP3    H128110   1.061   3.654   0.407  0.5446 -0.6693 -0.5110
 9382TIP3    H228111   0.973   3.558   0.485 -0.1484  0.2120 -0.1916
 9383TIP3   OH228112   3.697   5.042   5.358  0.0640 -0.1991 -0.0426
 9383TIP3    H128113   3.707   5.084   5.444  0.7578  0.9206 -0.6458
 9383TIP3    H228114   3.767   5.079   5.305  0.5096 -1.9012 -0.7202
 9384TIP3   OH228115   2.516   3.844   1.970 -0.1751 -0.7763 -0.0407
 9384TIP3    H128116   2.498   3.870   1.880  0.8668 -1.3164 -0.4297
 9384TIP3    H228117   2.431   3.827   2.009 -0.5520 -2.4501 -1.5133
 9385TIP3   OH228118   5.116   4.006   4.755 -0.3601 -0.5173  0.1340
 9385TIP3    H128119   5.050   3.978   4.691 -0.4768 -0.2185  0.1202
 9385TIP3    H228120   5.185   3.941   4.747 -0.9888 -1.2724  0.6931
 9386TIP3   OH228121   7.038   2.790   0.891 -0.2262  0.2249  0.1188
 9386TIP3    H128122   7.092   2.814   0.816 -1.3471  0.8701 -0.5107
 9386TIP3    H228123   7.100   2.755   0.956  0.8883  0.6847 -0.6769
 9387TIP3   OH228124   3.263   4.825   0.639 -0.1256 -0.1758  0.4545
 9387TIP3    H128125   3.257   4.782   0.724  0.0409 -0.9196  0.0981
 9387TIP3    H228126   3.201   4.778   0.583  0.9415 -0.7536 -0.2699
 9388TIP3   OH228127   1.890   5.448   2.223 -0.0268  0.0288 -0.0963
 9388TIP3    H128128   1.901   5.420   2.132 -0.0669 -0.2337 -0.0235
 9388TIP3    H228129   1.804   5.415   2.248 -0.9254  1.8700 -0.5885
 9389TIP3   OH228130   0.964   4.877   0.457  0.6579  0.1329  0.2744
 9389TIP3    H128131   0.940   4.966   0.428  0.8005  1.1841  3.0414
 9389TIP3    H228132   0.959   4.824   0.378 -1.6972  2.1484 -1.0857
 9390TIP3   OH228133   0.125   0.487   0.578 -0.3179  0.5799 -0.2621
 9390TIP3    H128134   0.117   0.392   0.572  0.2622  0.4997  0.1392
 9390TIP3    H228135   0.176   0.513   0.502  0.4011  0.4489  0.1687
 9391TIP3   OH228136   0.975   0.484   2.941  0.3528 -0.0280  0.1742
 9391TIP3    H128137   1.070   0.474   2.928  0.4861  1.2524  0.1155
 9391TIP3    H228138   0.967   0.542   3.017 -0.3083  2.8692 -1.9460
 9392TIP3   OH228139   2.141   5.111   5.756 -0.1651  0.1481 -0.9318
 9392TIP3    H128140   2.153   5.027   5.800  1.7134  0.6469 -0.4055
 9392TIP3    H228141   2.051   5.136   5.775  0.1603 -0.3086  1.4945
 9393TIP3   OH228142   5.815   2.789   1.346  0.5968 -0.1676 -0.2457
 9393TIP3    H128143   5.837   2.858   1.283  0.5128 -0.6715 -0.8439
 9393TIP3    H228144   5.743   2.741   1.305  0.6776 -0.6324  0.1419
 9394TIP3   OH228145   5.271   3.079   0.867  0.6334 -0.4390  0.1537
 9394TIP3    H128146   5.331   3.150   0.844  1.4844 -1.1649  0.0844
 9394TIP3    H228147   5.297   3.053   0.956 -1.5067  1.1847  1.3283
 9395TIP3   OH228148   0.722   2.577   2.352  0.2340  0.1638  0.4437
 9395TIP3    H128149   0.756   2.493   2.319  2.1004  0.9620  0.2260
 9395TIP3    H228150   0.769   2.591   2.434 -1.1859  0.2967  1.2676
 9396TIP3   OH228151   4.284   6.568   1.623 -0.0906 -0.3202  0.0013
 9396TIP3    H128152   4.281   6.548   1.717 -1.0611 -2.4038 -0.4312
 9396TIP3    H228153   4.193   6.585   1.599  0.0055 -0.8269 -0.7523
 9397TIP3   OH228154   0.938   5.165   0.455  0.1935 -0.2453  0.4498
 9397TIP3    H128155   0.920   5.259   0.452  0.6914 -0.1860 -1.0005
 9397TIP3    H228156   0.904   5.138   0.541 -0.3719  1.1592  0.7017
 9398TIP3   OH228157   2.025   5.127   3.566  0.1233  0.0982  0.3144
 9398TIP3    H128158   2.058   5.164   3.484 -0.7637  1.4354  0.5312
 9398TIP3    H228159   2.030   5.200   3.628  1.0489 -0.9681  1.5447
 9399TIP3   OH228160   5.063   2.199   5.135  0.1906 -0.3322  0.2903
 9399TIP3    H128161   5.109   2.264   5.188  0.0195  2.0500 -2.2695
 9399TIP3    H228162   4.972   2.204   5.163  0.4454 -0.7167  1.2333
 9400TIP3   OH228163   6.077   6.054   5.680 -0.4669  0.6305 -0.3159
 9400TIP3    H128164   6.007   5.993   5.654  0.7145  0.1231 -2.4947
 9400TIP3    H228165   6.040   6.141   5.661 -0.8278  0.4163 -0.6241
 9401TIP3   OH228166   2.343   6.690   1.947 -0.4190 -0.0341 -0.0110
 9401TIP3    H128167   2.382   6.717   2.030 -0.5062 -0.6398  0.2344
 9401TIP3    H228168   2.407   6.631   1.908 -0.2678  0.4457 -0.4960
 9402TIP3   OH228169   2.640   0.198   1.973 -0.4011  0.2688 -0.0084
 9402TIP3    H128170   2.661   0.236   2.058  0.3405  0.3570 -0.2233
 9402TIP3    H228171   2.551   0.229   1.954 -0.3956  0.6261  0.5226
 9403TIP3   OH228172   5.297   1.603   0.277 -0.2910 -0.2804 -0.2004
 9403TIP3    H128173   5.211   1.612   0.318 -1.2626 -0.1724 -2.1227
 9403TIP3    H228174   5.306   1.683   0.225  0.4825 -0.7969 -0.8746
 9404TIP3   OH228175   6.513   2.041   1.903  0.4066  0.1474  0.3938
 9404TIP3    H128176   6.487   1.971   1.963  0.3552 -3.0962 -3.0379
 9404TIP3    H228177   6.607   2.050   1.916  0.7996 -2.1231 -0.4400
 9405TIP3   OH228178   0.504   1.611   2.439 -0.3700  0.0843  0.5078
 9405TIP3    H128179   0.458   1.558   2.374 -0.8879 -0.0830  1.0039
 9405TIP3    H228180   0.444   1.616   2.513  0.2715  0.1543  1.0333
 9406TIP3   OH228181   2.831   1.469   4.166  0.2820  0.7904 -0.6145
 9406TIP3    H128182   2.793   1.549   4.202  0.3710  0.3387  0.5432
 9406TIP3    H228183   2.830   1.407   4.239 -0.2488 -0.4380 -1.6252
 9407TIP3   OH228184   6.766   1.535   3.092  0.2100 -0.1435  0.3759
 9407TIP3    H128185   6.795   1.595   3.023 -1.3300  0.7041  0.4127
 9407TIP3    H228186   6.757   1.450   3.047  0.0600  0.2039 -0.2648
 9408TIP3   OH228187   5.186   2.033   0.355 -0.1020 -0.0121 -0.1497
 9408TIP3    H128188   5.227   2.116   0.381  0.0967 -0.3959  0.8158
 9408TIP3    H228189   5.110   2.024   0.413  1.2492 -1.6607  1.4809
 9409TIP3   OH228190   6.163   1.303   1.668  0.3225 -0.0491  0.3893
 9409TIP3    H128191   6.144   1.355   1.590 -1.6040 -0.7895  0.3300
 9409TIP3    H228192   6.152   1.212   1.640  1.0178 -0.3964  1.1828
 9410TIP3   OH228193   4.607   5.008   1.787 -0.1446  0.9214  0.1817
 9410TIP3    H128194   4.625   4.948   1.714  2.3172  1.5019  0.2363
 9410TIP3    H228195   4.634   5.094   1.755  3.4050  0.8757  2.4206
 9411TIP3   OH228196   3.436   3.466   2.846 -0.2914 -0.0664  0.4070
 9411TIP3    H128197   3.523   3.426   2.849 -0.4872 -0.4573  1.4706
 9411TIP3    H228198   3.409   3.470   2.938 -1.3397  0.1837  0.0959
 9412TIP3   OH228199   3.030   1.003   0.763 -0.5867 -0.1891  0.2905
 9412TIP3    H128200   3.010   1.085   0.809  0.3360 -0.2493  0.8254
 9412TIP3    H228201   2.947   0.976   0.724 -0.8363  1.1610 -0.1585
 9413TIP3   OH228202   3.691   3.433   5.622 -0.2260  0.2908  0.3375
 9413TIP3    H128203   3.689   3.339   5.604 -0.4707  0.1638  1.0025
 9413TIP3    H228204   3.779   3.460   5.598 -0.2596 -0.0380 -0.1823
 9414TIP3   OH228205   2.891   1.193   1.173  0.5710  0.4839 -0.5290
 9414TIP3    H128206   2.898   1.288   1.160  2.3570  0.3048 -1.0210
 9414TIP3    H228207   2.910   1.180   1.266  2.4598  0.4366 -0.8981
 9415TIP3   OH228208   7.100   6.506   0.336  0.1087 -0.0093  0.0459
 9415TIP3    H128209   7.063   6.491   0.249  3.0530  0.4119 -1.3888
 9415TIP3    H228210   7.126   6.599   0.335  0.6980 -0.1444  1.1688
 9416TIP3   OH228211   5.032   4.716   4.661 -0.0435  0.4706 -0.1818
 9416TIP3    H128212   5.109   4.666   4.686  1.3455  1.8040 -1.5743
 9416TIP3    H228213   4.995   4.668   4.587 -1.1835 -0.7230  1.1302
 9417TIP3   OH228214   3.106   0.472   1.067  0.2214  0.0692  0.1182
 9417TIP3    H128215   3.191   0.516   1.081 -1.1073  2.5724  0.9731
 9417TIP3    H228216   3.081   0.497   0.979 -0.3046  0.6477  0.4229
 9418TIP3   OH228217   3.449   2.302   2.340  0.5742  0.1052  0.0927
 9418TIP3    H128218   3.431   2.395   2.326  0.2832  0.0184 -0.1362
 9418TIP3    H228219   3.367   2.259   2.315  0.2647 -0.1211  1.4348
 9419TIP3   OH228220   1.957   4.612   0.043 -0.0656  0.1518 -0.1890
 9419TIP3    H128221   2.036   4.645   0.085 -0.0170 -0.8801  0.5730
 9419TIP3    H228222   1.903   4.579   0.115  0.1699 -1.9788 -0.9106
 9420TIP3   OH228223   6.365   5.505   1.177  0.0052  0.2349 -0.4034
 9420TIP3    H128224   6.375   5.586   1.226 -0.3295  1.0120 -1.5644
 9420TIP3    H228225   6.324   5.532   1.095  2.6198 -0.6398 -2.1312
 9421TIP3   OH228226   5.980   4.515   1.189  0.4978 -1.0506  0.3896
 9421TIP3    H128227   6.068   4.525   1.225  0.2533  0.7838  0.5869
 9421TIP3    H228228   5.928   4.483   1.263  0.8485 -1.4702  0.4609
 9422TIP3   OH228229   7.135   4.087   0.597 -0.1247 -0.0952  0.4239
 9422TIP3    H128230   7.063   4.034   0.564  0.9763 -0.6198 -1.2705
 9422TIP3    H228231   7.214   4.037   0.576  0.8082  1.0361  1.0839
 9423TIP3   OH228232   4.039   2.882   3.795  0.0334 -0.0910  0.0500
 9423TIP3    H128233   3.987   2.842   3.726 -0.1164 -0.7462  0.5339
 9423TIP3    H228234   3.984   2.879   3.873 -0.5052  2.2421 -0.1473
 9424TIP3   OH228235   3.209   4.474   5.545  0.0660 -0.3136 -0.2739
 9424TIP3    H128236   3.156   4.414   5.598  1.7673 -1.4526  0.2013
 9424TIP3    H228237   3.199   4.558   5.588  0.2192 -0.9148  0.9879
 9425TIP3   OH228238   2.626   4.503   2.890 -0.7509 -0.1685  0.2678
 9425TIP3    H128239   2.594   4.441   2.824  0.2313 -1.1461  0.6793
 9425TIP3    H228240   2.672   4.448   2.954 -0.5179  0.9115  1.0532
 9426TIP3   OH228241   5.569   4.598   5.000  0.1651 -0.0177  0.3176
 9426TIP3    H128242   5.541   4.669   4.942  1.1662  0.9487  0.9719
 9426TIP3    H228243   5.490   4.546   5.015 -0.1650 -0.1726 -1.7191
 9427TIP3   OH228244   1.884   3.694   5.191 -0.2585 -0.2062  0.4683
 9427TIP3    H128245   1.944   3.621   5.177  1.4053  0.7916  1.8606
 9427TIP3    H228246   1.815   3.659   5.247  1.8176 -0.2615  3.2549
 9428TIP3   OH228247   1.019   3.498   4.330 -0.0112  0.0782 -0.6489
 9428TIP3    H128248   1.095   3.548   4.360  0.1138 -0.7949  0.5518
 9428TIP3    H228249   1.031   3.411   4.369 -2.5915  0.4474  1.2047
 9429TIP3   OH228250   5.110   5.064   4.825  0.0663  0.2510  0.0271
 9429TIP3    H128251   5.149   5.137   4.873  2.4025 -0.3504 -0.8333
 9429TIP3    H228252   5.077   5.005   4.892  0.7170  0.7595  0.8090
 9430TIP3   OH228253   3.984   3.195   1.101  0.1640 -0.6730  0.0261
 9430TIP3    H128254   3.938   3.115   1.075 -0.8241 -0.2888  0.5216
 9430TIP3    H228255   4.076   3.170   1.106  0.0712 -1.3734 -1.3742
 9431TIP3   OH228256   0.250   0.150   5.163 -0.1274 -0.5103  0.4857
 9431TIP3    H128257   0.203   0.193   5.091 -0.5463 -0.3135  0.8736
 9431TIP3    H228258   0.243   0.057   5.144 -2.3552 -0.6261  1.5322
 9432TIP3   OH228259   3.011   2.548   4.665 -0.2142  0.6554 -0.1749
 9432TIP3    H128260   3.080   2.483   4.675 -1.1770 -0.2471  0.8817
 9432TIP3    H228261   2.991   2.577   4.754 -2.5476 -0.5920 -0.2210
 9433TIP3   OH228262   6.821   2.805   1.835  0.1169  0.2039 -0.1163
 9433TIP3    H128263   6.863   2.744   1.896  0.2454  0.0538 -0.3547
 9433TIP3    H228264   6.893   2.850   1.792  0.0555 -0.3952 -0.8754
 9434TIP3   OH228265   7.160   1.068   2.831 -0.6370  0.3091  0.1018
 9434TIP3    H128266   7.232   1.067   2.768 -0.1417 -0.6120  0.6651
 9434TIP3    H228267   7.195   1.117   2.905  0.1250 -1.7432  1.1588
 9435TIP3   OH228268   3.791   3.802   4.379  0.3298 -0.0830 -0.2389
 9435TIP3    H128269   3.769   3.894   4.365 -2.1169 -0.3319  1.4743
 9435TIP3    H228270   3.707   3.758   4.385  1.3755 -2.9606 -3.6027
 9436TIP3   OH228271   4.312   0.642   5.176 -0.1367  0.1508 -0.4567
 9436TIP3    H128272   4.251   0.593   5.123  0.5712 -1.3383  0.0639
 9436TIP3    H228273   4.385   0.582   5.193 -0.1633  0.6615  1.8752
 9437TIP3   OH228274   3.828   5.480   3.046 -0.2892 -0.8899 -0.2086
 9437TIP3    H128275   3.870   5.479   2.960  2.5064 -1.6594  1.0402
 9437TIP3    H228276   3.895   5.446   3.106 -1.0817  2.1624  2.7354
 9438TIP3   OH228277   6.695   2.070   2.813  0.3141  0.4745 -0.2522
 9438TIP3    H128278   6.684   2.096   2.905 -2.2114 -0.1128 -0.3252
 9438TIP3    H228279   6.790   2.074   2.799  0.7747  0.7071  2.3307
 9439TIP3   OH228280   1.797   6.119   1.479  0.1083 -0.4664  0.1017
 9439TIP3    H128281   1.720   6.147   1.430  0.5115 -1.7445 -1.3322
 9439TIP3    H228282   1.772   6.034   1.515  0.7193 -0.7164 -0.0564
 9440TIP3   OH228283   3.248   1.948   5.296  0.3532  0.4503 -0.2231
 9440TIP3    H128284   3.180   1.883   5.278  0.9917 -0.6663  1.1728
 9440TIP3    H228285   3.323   1.921   5.242  1.4677 -1.5169  2.1423
 9441TIP3   OH228286   6.969   6.436   2.229 -0.0704 -0.0954  0.6033
 9441TIP3    H128287   6.912   6.512   2.238 -0.4704 -0.2434 -0.5584
 9441TIP3    H228288   7.026   6.440   2.306 -0.0985  1.3606  0.5700
 9442TIP3   OH228289   5.641   6.177   4.059  0.1149 -0.1086 -1.0782
 9442TIP3    H128290   5.669   6.182   4.151 -1.6489  0.7830 -0.5524
 9442TIP3    H228291   5.546   6.174   4.063  0.0052 -0.0021 -2.8984
 9443TIP3   OH228292   4.093   3.967   5.039  0.1306 -0.1875 -0.0569
 9443TIP3    H128293   4.151   3.995   5.110  2.9823  1.2707 -2.7018
 9443TIP3    H228294   4.017   4.025   5.047 -0.0442 -0.6345  2.2338
 9444TIP3   OH228295   6.123   2.443   3.992  0.2539 -0.5585  0.4050
 9444TIP3    H128296   6.078   2.442   3.907 -1.2826  0.9031  1.1276
 9444TIP3    H228297   6.053   2.429   4.056  1.2447 -0.7394  1.4769
 9445TIP3   OH228298   1.585   1.854   4.686  0.3181 -0.2167  0.0280
 9445TIP3    H128299   1.658   1.808   4.727  0.6090 -0.5291 -0.8409
 9445TIP3    H228300   1.623   1.900   4.612 -0.5709 -1.4853 -1.2655
 9446TIP3   OH228301   3.213   2.914   5.323  0.0410 -0.1895  0.3796
 9446TIP3    H128302   3.300   2.889   5.356  0.3441 -1.5517 -1.3695
 9446TIP3    H228303   3.153   2.852   5.364  0.0794 -0.2000  0.4204
 9447TIP3   OH228304   6.340   0.592   5.681 -0.2502 -0.3182  0.0011
 9447TIP3    H128305   6.297   0.594   5.595  1.0651 -0.2004 -0.6968
 9447TIP3    H228306   6.406   0.522   5.672  1.9264  1.6218 -0.1497
 9448TIP3   OH228307   3.534   5.959   1.299 -0.5038 -0.3086  0.5955
 9448TIP3    H128308   3.500   5.976   1.211 -1.1409  0.8755  1.0472
 9448TIP3    H228309   3.549   6.046   1.336  0.0891 -0.7950  1.5438
 9449TIP3   OH228310   4.853   4.719   0.314  0.0700  0.2789  0.0265
 9449TIP3    H128311   4.799   4.796   0.331  0.1987  0.9476 -2.3073
 9449TIP3    H228312   4.810   4.674   0.242  1.9381  0.1897 -1.1004
 9450TIP3   OH228313   1.029   0.027   5.046 -0.2020  0.0297 -0.1356
 9450TIP3    H128314   0.958   0.015   5.109  0.4123 -2.4566  0.1897
 9450TIP3    H228315   0.985   0.046   4.963 -1.3619 -2.0167 -0.0589
 9451TIP3   OH228316   5.546   2.917   4.819  0.7795 -0.2166 -0.0685
 9451TIP3    H128317   5.529   2.844   4.760  0.4322  0.1417 -0.4215
 9451TIP3    H228318   5.493   2.989   4.784  0.4557 -0.0416  0.7586
 9452TIP3   OH228319   1.802   6.156   0.290 -0.5950  0.0189  0.3288
 9452TIP3    H128320   1.808   6.210   0.369  1.8133 -0.7593  0.7503
 9452TIP3    H228321   1.791   6.067   0.324 -0.6926 -0.1886 -0.2470
 9453TIP3   OH228322   2.371   3.986   5.323  0.2874  0.6087  0.5189
 9453TIP3    H128323   2.450   4.038   5.304  0.8237 -0.9529 -2.2037
 9453TIP3    H228324   2.299   4.047   5.313  0.9809  1.2263 -1.1329
 9454TIP3   OH228325   1.269   2.820   3.406 -0.6050  0.0734 -0.9220
 9454TIP3    H128326   1.228   2.857   3.484 -1.9110  2.0617 -2.4457
 9454TIP3    H228327   1.318   2.744   3.438 -1.4161  0.5701  1.7348
 9455TIP3   OH228328   3.443   6.618   5.793 -0.7206 -0.2911  0.0492
 9455TIP3    H128329   3.372   6.678   5.815 -1.4957 -1.3247  0.4133
 9455TIP3    H228330   3.508   6.631   5.863 -1.3952 -0.6927  0.7621
 9456TIP3   OH228331   5.652   2.260   2.258  0.0654  0.1206 -0.3971
 9456TIP3    H128332   5.675   2.168   2.248  0.7432  0.1922  0.3469
 9456TIP3    H228333   5.690   2.285   2.342 -0.9213  0.8409 -0.1448
 9457TIP3   OH228334   6.583   0.991   0.399 -0.0323 -0.5781  0.3218
 9457TIP3    H128335   6.514   0.936   0.437  0.4351 -1.3090  0.1277
 9457TIP3    H228336   6.664   0.956   0.434  0.1964  1.0137  1.4607
 9458TIP3   OH228337   2.165   2.981   2.497 -0.0945  0.0978  0.0389
 9458TIP3    H128338   2.164   3.064   2.545  0.6281  1.1592 -1.6714
 9458TIP3    H228339   2.083   2.981   2.447 -0.0520 -0.1821 -0.0315
 9459TIP3   OH228340   1.946   2.959   4.980 -0.4363 -0.0912 -0.4574
 9459TIP3    H128341   1.889   2.885   5.001 -0.9945  0.1679 -1.0173
 9459TIP3    H228342   2.020   2.921   4.934  1.2942 -0.8123  2.6493
 9460TIP3   OH228343   2.307   5.881   3.895 -0.6346 -0.0323  0.1566
 9460TIP3    H128344   2.346   5.938   3.829  0.4291 -1.1926 -0.2738
 9460TIP3    H228345   2.230   5.928   3.927 -0.5169  1.0447 -1.1001
 9461TIP3   OH228346   5.591   3.016   1.415  0.0620  0.0834  0.2602
 9461TIP3    H128347   5.593   2.927   1.451 -2.7385 -0.1241  0.0889
 9461TIP3    H228348   5.619   3.072   1.488  0.0313 -0.7733  0.9449
 9462TIP3   OH228349   6.901   4.786   2.115 -0.2250  0.2942 -0.2941
 9462TIP3    H128350   6.976   4.796   2.173 -0.6045  0.0181  0.2538
 9462TIP3    H228351   6.922   4.711   2.061  0.0146  0.3869 -0.3286
 9463TIP3   OH228352   6.134   1.405   5.621  0.0977 -0.0557 -0.5675
 9463TIP3    H128353   6.151   1.363   5.706 -1.2278 -1.8334 -1.1199
 9463TIP3    H228354   6.058   1.461   5.637  0.6303  0.6031 -0.3010
 9464TIP3   OH228355   4.399   0.941   5.627 -0.0828  0.2242  0.5163
 9464TIP3    H128356   4.399   0.899   5.542 -0.5645 -2.3512  1.7068
 9464TIP3    H228357   4.308   0.936   5.657 -0.4149  3.1474  0.3253
 9465TIP3   OH228358   2.553   3.646   4.790  0.6184  0.5473  0.4371
 9465TIP3    H128359   2.512   3.730   4.768  0.3562  0.2135 -0.3959
 9465TIP3    H228360   2.638   3.669   4.827  1.0606  1.1500 -0.9152
 9466TIP3   OH228361   2.283   4.783   2.674  0.0596 -0.1111  0.1782
 9466TIP3    H128362   2.379   4.780   2.678  0.0378 -0.0269  3.3106
 9466TIP3    H228363   2.263   4.867   2.634  1.3867  1.0485  1.7927
 9467TIP3   OH228364   7.141   1.844   4.691 -0.1475 -0.2022  0.3684
 9467TIP3    H128365   7.096   1.849   4.774 -0.1991 -1.2159  0.4137
 9467TIP3    H228366   7.110   1.763   4.651  0.2641  0.0068 -0.4072
 9468TIP3   OH228367   0.832   6.523   0.521  0.2197  0.6347  0.2058
 9468TIP3    H128368   0.870   6.573   0.593  0.3650  2.5656 -1.1553
 9468TIP3    H228369   0.810   6.588   0.454 -0.8123 -0.9822 -1.1157
 9469TIP3   OH228370   0.086   4.799   0.311  0.2339 -0.3053  0.3666
 9469TIP3    H128371   0.045   4.768   0.230 -0.5896  0.1307  0.5995
 9469TIP3    H228372   0.033   4.758   0.381 -1.1691  1.8956  0.6960
 9470TIP3   OH228373   0.646   2.774   0.948  0.4709  0.3464 -0.2668
 9470TIP3    H128374   0.697   2.821   1.014 -2.1329  2.1196  0.6496
 9470TIP3    H228375   0.618   2.693   0.993 -0.7929  1.2655  0.6772
 9471TIP3   OH228376   2.796   4.068   2.262  0.1430 -0.5945  0.4538
 9471TIP3    H128377   2.723   4.033   2.314 -0.4263 -0.3155 -0.1520
 9471TIP3    H228378   2.814   4.153   2.300 -1.4295  0.3819 -0.8661
 9472TIP3   OH228379   1.409   1.884   3.428  0.0650 -0.2177  0.1458
 9472TIP3    H128380   1.378   1.970   3.402  0.7146  0.2035  0.7257
 9472TIP3    H228381   1.504   1.894   3.438  0.1912 -1.0742 -0.0716
 9473TIP3   OH228382   2.980   4.769   1.851  0.0903  0.1096  0.1759
 9473TIP3    H128383   3.012   4.844   1.800 -0.4728  0.3735  0.2023
 9473TIP3    H228384   2.885   4.777   1.847  0.0262 -0.6761  0.0885
 9474TIP3   OH228385   1.030   4.476   2.161 -0.8630  0.2659 -0.5513
 9474TIP3    H128386   1.071   4.407   2.213 -0.5259  2.6702  2.7048
 9474TIP3    H228387   1.104   4.519   2.118 -0.9154 -0.4695 -1.3918
 9475TIP3   OH228388   6.386   4.668   0.702 -0.1439  0.2891 -0.3063
 9475TIP3    H128389   6.434   4.689   0.782 -2.7181  1.1314  1.1584
 9475TIP3    H228390   6.409   4.578   0.682  1.0297  0.2575  1.0475
 9476TIP3   OH228391   6.239   5.250   1.294  0.1960  0.4278 -0.2327
 9476TIP3    H128392   6.282   5.334   1.280 -0.2347  1.2111  2.4991
 9476TIP3    H228393   6.146   5.272   1.301  0.0914 -0.2157  0.6165
 9477TIP3   OH228394   6.870   2.380   1.983 -0.1054  0.1252 -0.1720
 9477TIP3    H128395   6.844   2.292   2.011  0.0997 -0.2758 -1.2000
 9477TIP3    H228396   6.950   2.367   1.932  0.1956  0.9656  0.0668
 9478TIP3   OH228397   0.263   1.540   1.606 -0.1489 -0.5002 -0.3810
 9478TIP3    H128398   0.264   1.477   1.533 -0.3301 -0.9155 -0.0261
 9478TIP3    H228399   0.213   1.614   1.572  1.0583 -0.0309 -1.2233
 9479TIP3   OH228400   2.144   2.211   3.607 -0.2930  0.1071 -0.4402
 9479TIP3    H128401   2.191   2.144   3.657  0.5314  0.8053 -0.2472
 9479TIP3    H228402   2.197   2.225   3.529 -0.6281  0.3075 -0.6364
 9480TIP3   OH228403   3.121   4.307   2.301  0.0181 -0.1866  0.1967
 9480TIP3    H128404   3.117   4.343   2.390 -1.1026  0.3898 -0.0666
 9480TIP3    H228405   3.139   4.382   2.245  1.8938 -0.7233  0.0108
 9481TIP3   OH228406   4.621   6.625   2.108  0.3570  0.0429 -0.3741
 9481TIP3    H128407   4.687   6.654   2.171  0.5513 -2.2528  0.5668
 9481TIP3    H228408   4.555   6.695   2.109  1.8095  1.4711  0.0857
 9482TIP3   OH228409   0.070   6.002   2.983 -0.2458 -0.2068  0.3416
 9482TIP3    H128410  -0.017   6.040   2.972 -0.5205 -1.1058 -0.8530
 9482TIP3    H228411   0.092   5.967   2.897  1.1435 -0.3444  0.7203
 9483TIP3   OH228412   3.882   6.385   2.646 -0.2613 -0.0759 -0.3557
 9483TIP3    H128413   3.866   6.334   2.726 -0.2731 -1.5437 -1.2536
 9483TIP3    H228414   3.850   6.329   2.576 -0.4228  1.2708 -1.3919
 9484TIP3   OH228415   1.012   1.497   5.479  0.3198  0.9042  0.2237
 9484TIP3    H128416   1.066   1.430   5.521  0.7972  1.4450  0.4927
 9484TIP3    H228417   0.922   1.467   5.492  0.5548 -0.1514 -0.4719
 9485TIP3   OH228418   5.510   1.344   1.295  0.1707 -0.5471 -0.4657
 9485TIP3    H128419   5.564   1.338   1.373 -0.4086 -2.1820 -0.1435
 9485TIP3    H228420   5.420   1.333   1.326 -0.1212 -0.5599 -1.2711
 9486TIP3   OH228421   4.000   5.491   4.136  0.9315 -0.3998 -0.4648
 9486TIP3    H128422   4.031   5.419   4.081  0.9412 -1.8272  1.3236
 9486TIP3    H228423   4.024   5.465   4.225 -1.5700  0.4814  0.5531
 9487TIP3   OH228424   0.795   2.725   4.300 -0.2313 -0.5311 -0.1125
 9487TIP3    H128425   0.886   2.751   4.311  0.1510 -1.9569  0.2780
 9487TIP3    H228426   0.794   2.672   4.221 -0.8487 -0.0394 -0.4480
 9488TIP3   OH228427   0.945   3.785   5.284 -0.6045 -0.1797 -0.3724
 9488TIP3    H128428   0.932   3.690   5.282 -0.0319 -0.3418  1.4696
 9488TIP3    H228429   1.039   3.795   5.297 -0.3056  0.7285 -2.7988
 9489TIP3   OH228430   1.318   3.444   1.254  0.2749 -0.0010 -0.1351
 9489TIP3    H128431   1.267   3.382   1.203 -0.0126  0.8109 -0.8669
 9489TIP3    H228432   1.281   3.439   1.342  0.2398 -0.8267 -0.1888
 9490TIP3   OH228433   0.513   2.060   3.551 -0.2261 -0.3970 -0.1387
 9490TIP3    H128434   0.526   1.966   3.547  1.0665 -0.3202  1.3006
 9490TIP3    H228435   0.580   2.091   3.612 -1.1137  1.3616  0.0073
 9491TIP3   OH228436   6.627   3.512   5.317 -0.4062 -0.6622  0.3105
 9491TIP3    H128437   6.640   3.454   5.241  0.9854 -1.0181  0.7851
 9491TIP3    H228438   6.715   3.527   5.350 -0.7504  1.6010  0.3302
 9492TIP3   OH228439   1.608   3.791   2.973 -0.4885  0.3030 -0.6370
 9492TIP3    H128440   1.525   3.834   2.954 -0.2008  0.9951 -0.3631
 9492TIP3    H228441   1.584   3.701   2.998 -1.1040  0.3379 -1.0800
 9493TIP3   OH228442   5.896   0.111   5.534 -0.3533  0.0463  0.3890
 9493TIP3    H128443   5.934   0.033   5.494 -1.0118 -0.5807  0.9474
 9493TIP3    H228444   5.941   0.120   5.618  0.7975  1.1716 -0.3246
 9494TIP3   OH228445   4.244   2.734   0.095 -0.2854 -0.2401  0.1871
 9494TIP3    H128446   4.238   2.671   0.023  2.1772  0.0052 -0.3206
 9494TIP3    H228447   4.336   2.729   0.124 -0.8276  0.7716  2.3132
 9495TIP3   OH228448   2.047   2.422   5.503 -0.0306  0.2641 -0.4631
 9495TIP3    H128449   2.016   2.332   5.512 -1.8731  1.0142  1.8043
 9495TIP3    H228450   2.117   2.430   5.568 -0.9483  0.8440  0.4886
 9496TIP3   OH228451   0.356   6.744   2.022 -0.0542 -0.3791  0.4352
 9496TIP3    H128452   0.450   6.764   2.029  0.0753 -0.1705 -1.3846
 9496TIP3    H228453   0.314   6.829   2.015 -0.0890 -0.5130 -1.4142
 9497TIP3   OH228454   6.348   2.721   5.660  0.5059 -0.1806  0.4181
 9497TIP3    H128455   6.312   2.803   5.625  0.1190  1.1418  3.5715
 9497TIP3    H228456   6.441   2.739   5.672  1.0022 -1.2599 -1.4833
 9498TIP3   OH228457   5.751   2.777   0.978 -0.4876  0.1141 -0.3264
 9498TIP3    H128458   5.690   2.829   0.925 -0.7950 -0.6525 -0.7425
 9498TIP3    H228459   5.772   2.833   1.052  0.1477  1.3173 -1.3695
 9499TIP3   OH228460   0.294   4.949   0.382 -0.1345 -0.1298  0.1461
 9499TIP3    H128461   0.263   5.029   0.339  0.3932 -0.5986 -1.1595
 9499TIP3    H228462   0.222   4.887   0.373  0.1151 -0.3450 -0.4133
 9500TIP3   OH228463   2.246   3.195   1.794 -0.2409 -0.4484 -0.0516
 9500TIP3    H128464   2.161   3.174   1.757 -1.3072  1.2897  1.2783
 9500TIP3    H228465   2.294   3.237   1.722 -0.6090 -1.1617 -0.7203
 9501TIP3   OH228466   2.554   6.237   5.640 -0.2856  0.0547  0.0192
 9501TIP3    H128467   2.511   6.284   5.711  1.2541  2.0214 -0.2643
 9501TIP3    H228468   2.610   6.173   5.683 -1.6556 -0.9085  0.4396
 9502TIP3   OH228469   5.461   2.311   2.655 -0.4444  0.3994  0.2433
 9502TIP3    H128470   5.369   2.290   2.667 -0.5887  0.1645 -1.1361
 9502TIP3    H228471   5.499   2.233   2.615 -0.4594  1.7479 -2.6280
 9503TIP3   OH228472   5.789   1.104   4.539 -0.6159 -0.0742  0.2211
 9503TIP3    H128473   5.714   1.110   4.598 -2.9639 -1.4964 -2.4176
 9503TIP3    H228474   5.785   1.016   4.502  2.4119 -0.2113 -0.0615
 9504TIP3   OH228475   1.703   5.425   5.350  0.0320 -0.0721  0.0711
 9504TIP3    H128476   1.686   5.359   5.416  1.5357  1.1646  1.8042
 9504TIP3    H228477   1.638   5.493   5.365  0.0740 -0.0082 -0.0320
 9505TIP3   OH228478   4.785   5.409   1.069  0.0979  0.1358  0.3977
 9505TIP3    H128479   4.745   5.372   1.147 -1.0719  1.2971  0.3797
 9505TIP3    H228480   4.879   5.414   1.090  0.0116 -0.9761  1.1235
 9506TIP3   OH228481   1.155   2.190   2.766  0.0543 -0.3044  0.2731
 9506TIP3    H128482   1.065   2.168   2.741 -0.5812  1.7207  0.5941
 9506TIP3    H228483   1.176   2.128   2.836 -0.3189 -2.1101 -1.1357
 9507TIP3   OH228484   6.266   5.264   5.499 -0.0945 -0.7513  0.1380
 9507TIP3    H128485   6.204   5.332   5.474  0.3918  0.0597  1.0710
 9507TIP3    H228486   6.349   5.310   5.512  0.4624 -1.6630 -0.1059
 9508TIP3   OH228487   1.971   5.698   5.591 -0.2637 -0.1944 -0.4281
 9508TIP3    H128488   2.066   5.705   5.582 -0.0742 -1.9163 -0.0495
 9508TIP3    H228489   1.938   5.783   5.562  1.3894  0.4774 -0.4535
 9509TIP3   OH228490   4.801   1.811   0.452 -0.0764  0.2493 -0.2986
 9509TIP3    H128491   4.742   1.736   0.455  0.5534 -0.2383  0.1365
 9509TIP3    H228492   4.747   1.886   0.478 -0.1931 -0.3989  1.4773
 9510TIP3   OH228493   3.079   3.620   0.599  0.0128 -0.1806 -0.4670
 9510TIP3    H128494   3.106   3.545   0.545 -2.1004 -1.1881 -0.2437
 9510TIP3    H228495   3.031   3.580   0.672 -1.0638  1.3949 -0.2712
 9511TIP3   OH228496   1.443   5.697   1.847  0.2254  0.3566 -0.2286
 9511TIP3    H128497   1.488   5.685   1.931  0.5425 -0.1007 -0.4576
 9511TIP3    H228498   1.450   5.612   1.804  1.4819  1.0249 -1.4085
 9512TIP3   OH228499   6.798   0.813   3.096 -0.5053  0.2387 -0.4063
 9512TIP3    H128500   6.861   0.752   3.056 -1.0709 -1.1786  0.7429
 9512TIP3    H228501   6.713   0.784   3.062 -0.9513 -0.7270  1.3949
 9513TIP3   OH228502   5.842   0.484   5.369  0.2694  0.0040  0.1061
 9513TIP3    H128503   5.920   0.476   5.423  0.9513 -0.4414 -0.9080
 9513TIP3    H228504   5.821   0.577   5.369  1.5645  0.3208 -0.6267
 9514TIP3   OH228505   1.795   3.562   4.028 -0.0538  0.4140 -0.1403
 9514TIP3    H128506   1.774   3.468   4.031 -0.9842  0.6304  1.9178
 9514TIP3    H228507   1.883   3.568   4.064 -0.2481  0.3641  0.3599
 9515TIP3   OH228508   2.719   1.897   3.838 -0.4454  0.6718 -0.3556
 9515TIP3    H128509   2.790   1.956   3.864 -1.0969  1.7869 -1.0088
 9515TIP3    H228510   2.653   1.908   3.907 -0.6767  0.9197 -0.6131
 9516TIP3   OH228511   5.904   6.219   5.856  0.1911 -0.3810 -0.1052
 9516TIP3    H128512   5.998   6.231   5.864  0.0155  1.4154 -0.4659
 9516TIP3    H228513   5.888   6.131   5.891  1.2606  1.2817  5.5007
 9517TIP3   OH228514   1.711   6.285   4.267 -0.5146 -0.2448 -0.0228
 9517TIP3    H128515   1.659   6.205   4.272  0.3417 -0.8464 -0.5846
 9517TIP3    H228516   1.646   6.356   4.261 -1.2741 -0.8875  0.4367
 9518TIP3   OH228517   2.853   6.502   4.962 -0.0942 -0.1426 -0.5913
 9518TIP3    H128518   2.894   6.501   5.048  0.0186 -0.2221 -0.6469
 9518TIP3    H228519   2.760   6.485   4.981 -0.2236  0.7368 -0.4012
 9519TIP3   OH228520   6.472   0.935   5.019 -0.2450 -0.7528  0.8889
 9519TIP3    H128521   6.505   0.955   5.106  0.6796  3.2922 -0.1706
 9519TIP3    H228522   6.551   0.922   4.966 -0.6132  0.4377  0.0026
 9520TIP3   OH228523   2.064   2.768   4.486  0.0215 -0.4900 -0.1516
 9520TIP3    H128524   2.010   2.818   4.547  0.6838  0.4322 -0.3071
 9520TIP3    H228525   2.001   2.729   4.425 -0.4347  1.4240 -0.9634
 9521TIP3   OH228526   1.545   5.330   5.849 -0.4712  0.2280 -0.1320
 9521TIP3    H128527   1.458   5.359   5.822 -1.4728 -2.0750  0.4382
 9521TIP3    H228528   1.538   5.313   5.943  0.6730  0.2399 -0.0233
 9522TIP3   OH228529   4.000   1.444   0.960  0.6324  0.3592  0.5490
 9522TIP3    H128530   3.926   1.488   1.001  0.1343 -0.4728  0.5729
 9522TIP3    H228531   3.991   1.352   0.987  2.1475  0.3953  1.2340
 9523TIP3   OH228532   7.149   1.654   3.111  0.3941  0.6185 -0.6664
 9523TIP3    H128533   7.149   1.559   3.103  0.0792  0.3237  1.8862
 9523TIP3    H228534   7.094   1.685   3.039 -0.9447 -1.2478 -0.5139
 9524TIP3   OH228535   4.711   3.556   0.888  0.0117  0.1996  0.4338
 9524TIP3    H128536   4.805   3.563   0.875 -0.1333  1.9621  0.0604
 9524TIP3    H228537   4.676   3.640   0.857 -2.1914 -1.9721 -3.9150
 9525TIP3   OH228538   4.898   5.961   0.063 -0.1945  0.7282 -0.0124
 9525TIP3    H128539   4.966   6.028   0.073  0.2858  0.1164  0.9662
 9525TIP3    H228540   4.828   5.989   0.122  0.2477  0.0957  0.8405
 9526TIP3   OH228541   5.546   5.423   0.699  0.2867  0.4054  0.0333
 9526TIP3    H128542   5.584   5.474   0.770 -2.5221  0.3778  1.6822
 9526TIP3    H228543   5.574   5.333   0.716  1.9914  0.7684 -0.6278
 9527TIP3   OH228544   4.364   5.928   0.714 -0.3337 -0.1007  0.0145
 9527TIP3    H128545   4.448   5.891   0.685  0.1537  0.6588  0.3987
 9527TIP3    H228546   4.373   6.022   0.698 -0.4641  0.2058  1.5782
 9528TIP3   OH228547   0.192   4.946   2.964  0.9629 -0.1506  0.1514
 9528TIP3    H128548   0.150   5.030   2.943  2.6531  0.4085 -1.1819
 9528TIP3    H228549   0.120   4.882   2.959 -0.5309  1.2454  1.9923
 9529TIP3   OH228550   3.452   5.306   4.338  0.1799  0.0897  0.5158
 9529TIP3    H128551   3.392   5.267   4.274  0.0761  0.7203  0.2185
 9529TIP3    H228552   3.536   5.308   4.292  0.3705 -0.5437  0.8335
 9530TIP3   OH228553   5.193   4.341   5.415 -0.2424  0.0849  0.1306
 9530TIP3    H128554   5.196   4.363   5.508 -0.1477  0.2552  0.0878
 9530TIP3    H228555   5.210   4.247   5.412 -1.8319 -0.2322  0.4065
 9531TIP3   OH228556   1.633   4.658   5.510  0.0644 -0.1063  0.3485
 9531TIP3    H128557   1.600   4.710   5.436  1.1285  0.7525  0.4566
 9531TIP3    H228558   1.691   4.594   5.470  0.2576  0.0429  0.3868
 9532TIP3   OH228559   6.098   2.644   4.548  0.0335 -0.6545  0.9788
 9532TIP3    H128560   6.182   2.652   4.593 -0.9147  0.9554  2.6165
 9532TIP3    H228561   6.037   2.692   4.604 -1.3666  0.9310 -1.7054
 9533TIP3   OH228562   2.126   3.355   5.619  0.0150 -0.0745  0.4113
 9533TIP3    H128563   2.202   3.412   5.620 -1.1241  1.5286  0.4851
 9533TIP3    H228564   2.056   3.407   5.658 -1.0544 -1.5998  0.6488
 9534TIP3   OH228565   0.638   2.242   4.847 -0.4873 -0.7173 -0.4552
 9534TIP3    H128566   0.570   2.310   4.843 -1.8176 -1.9181  0.6474
 9534TIP3    H228567   0.696   2.272   4.917 -1.0505 -0.6837  0.0120
 9535TIP3   OH228568   6.751   2.003   0.128  0.2484  0.5150  0.0713
 9535TIP3    H128569   6.741   1.954   0.210 -2.2972 -1.3472 -1.2340
 9535TIP3    H228570   6.713   2.089   0.147  0.0121  0.2277  0.9326
 9536TIP3   OH228571   4.075   4.819   1.376 -0.1791 -0.1512  0.3417
 9536TIP3    H128572   4.143   4.806   1.442  1.3558 -0.6049 -1.2506
 9536TIP3    H228573   4.017   4.744   1.386  0.4977 -0.6386  0.6618
 9537TIP3   OH228574   0.346   5.778   3.806  0.1755  0.0276  0.0922
 9537TIP3    H128575   0.375   5.847   3.747  0.2424  1.6229  1.8923
 9537TIP3    H228576   0.316   5.824   3.884 -0.7854 -1.9404  0.9552
 9538TIP3   OH228577   6.430   5.464   2.254  0.0707  0.2268  0.2379
 9538TIP3    H128578   6.340   5.496   2.265 -0.1505 -0.3892  0.2973
 9538TIP3    H228579   6.455   5.491   2.166 -1.2762 -2.1452 -0.9920
 9539TIP3   OH228580   2.565   2.426   2.613 -0.1016 -0.2102  0.6859
 9539TIP3    H128581   2.539   2.477   2.537 -0.7748 -1.0870  0.2972
 9539TIP3    H228582   2.536   2.337   2.592  0.6684 -0.6702  1.5095
 9540TIP3   OH228583   4.970   5.875   4.683  0.4674 -0.0743 -0.7092
 9540TIP3    H128584   5.032   5.827   4.738 -0.7624 -1.2046 -0.2607
 9540TIP3    H228585   5.006   5.964   4.679  0.1481  0.3305  2.6977
 9541TIP3   OH228586   5.757   3.009   2.852  0.2336 -0.0641 -0.2874
 9541TIP3    H128587   5.804   3.021   2.935 -1.1187  0.4239  0.4384
 9541TIP3    H228588   5.759   3.095   2.811 -0.2952  0.0434 -0.0956
 9542TIP3   OH228589   2.611   2.674   1.306  0.1353  0.0284  0.2816
 9542TIP3    H128590   2.631   2.656   1.214 -1.6300  0.5770 -0.2510
 9542TIP3    H228591   2.557   2.600   1.334  0.8336 -0.2433  0.9613
 9543TIP3   OH228592   1.034   0.961   1.611  0.2982 -0.0092  0.4877
 9543TIP3    H128593   1.016   0.868   1.620  1.0697 -0.3568 -1.2184
 9543TIP3    H228594   1.005   0.984   1.523 -0.2572  1.4760  1.0161
 9544TIP3   OH228595   5.141   2.668   3.248  0.4421  0.3030 -0.0842
 9544TIP3    H128596   5.144   2.723   3.170  0.1447  0.3140 -0.0897
 9544TIP3    H228597   5.132   2.730   3.321  0.0485  0.2619 -0.0946
 9545TIP3   OH228598   2.738   4.032   5.357 -0.1005 -0.2448  0.4859
 9545TIP3    H128599   2.804   4.049   5.290  0.0674 -2.3659  0.0214
 9545TIP3    H228600   2.667   4.093   5.337  0.9626  0.8572 -0.0841
 9546TIP3   OH228601   4.069   0.529   0.311  0.1290  0.1228  1.1132
 9546TIP3    H128602   4.087   0.439   0.285  2.9735  0.3211  2.0756
 9546TIP3    H228603   4.024   0.522   0.395 -0.8816 -0.3493  0.5639
 9547TIP3   OH228604   0.494   2.233   5.231  0.1293  0.3143  0.4031
 9547TIP3    H128605   0.420   2.174   5.217 -1.2474  1.5410  2.1032
 9547TIP3    H228606   0.498   2.246   5.326  2.3002  0.6001  0.3226
 9548TIP3   OH228607   5.858   4.764   5.348 -0.0873 -0.0108  0.2708
 9548TIP3    H128608   5.779   4.752   5.296  0.1587 -1.8791  0.2496
 9548TIP3    H228609   5.838   4.836   5.407 -0.8567  1.2562 -1.4569
 9549TIP3   OH228610   4.654   0.788   5.358  0.7954 -0.7819  0.4633
 9549TIP3    H128611   4.704   0.869   5.349 -2.0063  1.2935  1.8170
 9549TIP3    H228612   4.704   0.735   5.421  2.4849  0.0281 -0.1458
 9550TIP3   OH228613   1.165   2.186   3.579 -0.2850  0.2909  0.0068
 9550TIP3    H128614   1.151   2.201   3.672  0.3406 -0.5385  0.2467
 9550TIP3    H228615   1.252   2.224   3.561 -0.4629  0.5741 -0.2744
 9551TIP3   OH228616   4.295   4.423   3.962 -0.3019  0.1571  0.1569
 9551TIP3    H128617   4.289   4.479   3.884  1.3365  1.0759  0.6543
 9551TIP3    H228618   4.227   4.456   4.021 -0.0416  0.9318  0.0230
 9552TIP3   OH228619   2.211   4.700   0.093 -0.6204  0.3114  0.4913
 9552TIP3    H128620   2.217   4.795   0.094 -0.7055  0.3220 -0.0213
 9552TIP3    H228621   2.245   4.673   0.179  0.1391  0.7544  0.3376
 9553TIP3   OH228622   5.962   4.606   4.527 -0.1936 -0.0967 -0.0745
 9553TIP3    H128623   5.899   4.653   4.474 -1.3548 -0.7453  0.6899
 9553TIP3    H228624   6.022   4.673   4.559  1.2982  0.2008 -3.0876
 9554TIP3   OH228625   3.310   3.253   3.570 -0.2915 -0.1212  0.6356
 9554TIP3    H128626   3.242   3.263   3.503  0.5398 -1.1098 -0.3947
 9554TIP3    H228627   3.310   3.336   3.617  0.1276  1.2073 -1.5779
 9555TIP3   OH228628   5.489   2.128   4.486 -0.4073  0.3000  0.2853
 9555TIP3    H128629   5.580   2.153   4.501 -0.4518  1.7555 -1.5435
 9555TIP3    H228630   5.439   2.186   4.543 -0.2165 -1.8728  2.8809
 9556TIP3   OH228631   0.027   0.270   1.579 -0.6342  0.4999  0.1410
 9556TIP3    H128632   0.046   0.211   1.506  0.8733 -2.0112  2.3779
 9556TIP3    H228633  -0.062   0.247   1.606 -0.3541 -0.2007  0.4891
 9557TIP3   OH228634   1.368   0.551   2.490  0.5862  0.0953  0.4819
 9557TIP3    H128635   1.440   0.607   2.462  0.1381  0.4144 -0.0575
 9557TIP3    H228636   1.302   0.560   2.421 -0.3645  0.5487  1.4161
 9558TIP3   OH228637   6.303   3.694   2.057  0.1464  0.4568  0.0274
 9558TIP3    H128638   6.343   3.639   2.124  1.3064 -0.0428 -1.0244
 9558TIP3    H228639   6.270   3.770   2.104 -0.1179 -0.4296  1.3081
 9559TIP3   OH228640   1.710   2.551   0.451 -0.2270  0.3477  0.2861
 9559TIP3    H128641   1.674   2.471   0.490  2.4653 -1.0464  0.2065
 9559TIP3    H228642   1.635   2.594   0.410 -1.9625 -1.5987  1.2276
 9560TIP3   OH228643   1.551   3.403   0.457  0.2842 -0.1928  0.5656
 9560TIP3    H128644   1.592   3.461   0.394 -0.3546 -1.8350 -1.4535
 9560TIP3    H228645   1.457   3.418   0.446  0.1632 -0.1363  1.5272
 9561TIP3   OH228646   4.285   1.592   3.676  0.1027 -0.0167 -0.0672
 9561TIP3    H128647   4.256   1.673   3.717  1.4557  0.4509  0.0220
 9561TIP3    H228648   4.232   1.524   3.717  1.4082  0.4065  2.5862
 9562TIP3   OH228649   4.763   1.030   2.656  0.5164  1.0006  0.3069
 9562TIP3    H128650   4.803   0.967   2.596  0.4542  1.9171 -0.7360
 9562TIP3    H228651   4.798   1.007   2.742  0.4131 -0.4996 -0.0289
 9563TIP3   OH228652   6.301   4.232   0.267  0.0932 -0.1902 -0.8843
 9563TIP3    H128653   6.224   4.255   0.216 -0.3132 -0.7270 -0.5174
 9563TIP3    H228654   6.326   4.313   0.312 -1.0401 -0.3316  0.0255
 9564TIP3   OH228655   1.418   6.515   4.468  0.2003 -0.2369 -0.4567
 9564TIP3    H128656   1.495   6.484   4.516  0.0935 -0.2999 -0.3253
 9564TIP3    H228657   1.450   6.589   4.417  0.6026 -0.9404 -1.2516
 9565TIP3   OH228658   3.861   0.232   2.328 -0.1720 -0.0664  0.0437
 9565TIP3    H128659   3.772   0.244   2.293 -0.9278 -1.7778  1.2409
 9565TIP3    H228660   3.889   0.320   2.353 -0.7436  0.7881 -2.0897
 9566TIP3   OH228661   3.108   4.016   4.060 -0.2987  0.0760  0.6406
 9566TIP3    H128662   3.027   4.060   4.033 -0.2132  0.7475  1.4637
 9566TIP3    H228663   3.099   3.927   4.024  0.1487  1.1062 -2.2219
 9567TIP3   OH228664   3.920   2.489   3.197 -0.3503 -0.5089 -0.3544
 9567TIP3    H128665   3.957   2.463   3.113 -0.8450  0.3079 -0.8465
 9567TIP3    H228666   3.846   2.430   3.211 -1.2099  0.2924 -1.2589
 9568TIP3   OH228667   3.607   0.603   3.468  0.8687  0.0456  0.5771
 9568TIP3    H128668   3.581   0.514   3.442  2.1105 -0.7113  1.7802
 9568TIP3    H228669   3.578   0.658   3.395 -0.4729 -1.2466  0.0769
 9569TIP3   OH228670   4.540   3.221   3.573  0.1018 -0.3597 -0.0964
 9569TIP3    H128671   4.462   3.171   3.551 -0.8529  0.4883  1.2241
 9569TIP3    H228672   4.610   3.155   3.581 -0.4583 -1.1274 -1.2572
 9570TIP3   OH228673   5.625   2.696   3.168  0.0092 -0.6341 -0.3531
 9570TIP3    H128674   5.641   2.738   3.083  0.3044 -1.3459 -0.6525
 9570TIP3    H228675   5.543   2.736   3.199  1.1514  1.4685  0.1908
 9571TIP3   OH228676   0.246   4.926   0.946 -0.0898 -0.1998  0.3226
 9571TIP3    H128677   0.258   5.015   0.980  1.4726  0.0895 -0.8807
 9571TIP3    H228678   0.233   4.872   1.023 -0.9483  1.0475  1.0848
 9572TIP3   OH228679   2.521   1.383   0.291  0.3464 -0.0111  0.2127
 9572TIP3    H128680   2.581   1.316   0.325  0.8099  0.6022  0.6264
 9572TIP3    H228681   2.449   1.386   0.354 -0.6251 -1.4108 -0.7699
 9573TIP3   OH228682   1.293   1.748   0.499 -0.2697 -0.0791  0.4963
 9573TIP3    H128683   1.298   1.655   0.475 -1.2663  0.5408 -2.6392
 9573TIP3    H228684   1.364   1.789   0.450 -1.8945  1.2116 -0.9081
 9574TIP3   OH228685   3.183   0.429   3.633  0.4085 -0.6766 -0.1437
 9574TIP3    H128686   3.269   0.400   3.601  0.5197 -2.1060  1.3206
 9574TIP3    H228687   3.201   0.513   3.675  1.4418 -1.6561  1.4886
 9575TIP3   OH228688   2.221   1.838   2.522  0.7620  0.2687  0.2909
 9575TIP3    H128689   2.227   1.767   2.586  1.3320  0.4548  0.4472
 9575TIP3    H228690   2.196   1.915   2.573  2.0329  0.6103  0.4527
 9576TIP3   OH228691   6.002   2.004   2.791 -0.0668  0.6015 -0.4954
 9576TIP3    H128692   6.012   1.930   2.731 -0.4418  1.3701 -1.5288
 9576TIP3    H228693   6.026   1.968   2.876 -0.0960 -0.6767 -0.9940
 9577TIP3   OH228694   3.649   1.547   2.712 -0.0673  0.4106 -0.1085
 9577TIP3    H128695   3.646   1.553   2.617 -1.4709  1.8703 -0.0098
 9577TIP3    H228696   3.610   1.461   2.732  0.2395  0.0961 -0.8300
 9578TIP3   OH228697   4.063   0.849   1.042 -0.2472  0.6406  0.2874
 9578TIP3    H128698   4.020   0.869   0.959  0.1710 -2.1064 -0.7075
 9578TIP3    H228699   4.133   0.788   1.019 -1.4409 -1.9549  2.8356
 9579TIP3   OH228700   2.684   2.738   5.060 -0.1274  0.6339  0.0059
 9579TIP3    H128701   2.639   2.706   4.982 -0.0041 -2.3503  1.0666
 9579TIP3    H228702   2.616   2.781   5.112 -0.8513 -0.0821 -0.3353
 9580TIP3   OH228703   1.264   3.883   0.931 -0.5974  0.6075  0.9640
 9580TIP3    H128704   1.241   3.831   1.007 -1.3530  0.6894  0.8035
 9580TIP3    H228705   1.334   3.941   0.961  0.8013 -0.9803  0.9486
 9581TIP3   OH228706   1.360   2.203   1.356  0.3248 -0.2190  0.1776
 9581TIP3    H128707   1.451   2.174   1.358  0.5362  0.3205 -0.7767
 9581TIP3    H228708   1.311   2.134   1.400  1.2070 -0.4593  0.8053
 9582TIP3   OH228709   5.467   4.670   0.846 -0.2493  0.9867  0.0195
 9582TIP3    H128710   5.531   4.602   0.823  0.8942  1.8517  0.5189
 9582TIP3    H228711   5.406   4.627   0.906 -0.9673 -0.2227 -1.5076
 9583TIP3   OH228712   2.050   4.034   3.755  0.1675 -0.3935  0.3707
 9583TIP3    H128713   2.071   3.983   3.677  0.7548  0.4092 -0.0128
 9583TIP3    H228714   1.955   4.027   3.764 -0.2188  1.3099 -1.7235
 9584TIP3   OH228715   2.448   6.127   3.393  0.3954 -1.0273 -0.2819
 9584TIP3    H128716   2.384   6.184   3.436  0.8827  0.6583 -1.6596
 9584TIP3    H228717   2.533   6.163   3.419  0.7090 -0.9391 -1.3897
 9585TIP3   OH228718   1.380   3.308   3.280  0.0343 -0.2728  0.0784
 9585TIP3    H128719   1.353   3.221   3.253  0.9362 -0.2555 -1.0100
 9585TIP3    H228720   1.312   3.366   3.246  0.3442 -0.4108 -0.8295
 9586TIP3   OH228721   5.088   0.895   5.486  0.0145  0.4493 -0.4743
 9586TIP3    H128722   5.065   0.820   5.541  0.8740  0.4819 -0.0639
 9586TIP3    H228723   5.169   0.870   5.442  0.5806  1.3198  0.0416
 9587TIP3   OH228724   4.497   3.984   3.723  0.2927  0.2271  0.6351
 9587TIP3    H128725   4.440   4.060   3.710  0.1714 -0.2367 -2.0289
 9587TIP3    H228726   4.585   4.021   3.727  0.2883  0.5467 -1.1776
 9588TIP3   OH228727   0.860   0.814   2.979 -0.0584 -0.1478 -0.5075
 9588TIP3    H128728   0.900   0.736   3.018 -0.3577  0.5852  1.3406
 9588TIP3    H228729   0.924   0.843   2.914  1.1920 -0.5314  0.5074
 9589TIP3   OH228730   4.694   1.324   1.163  0.0024  0.4017  0.0618
 9589TIP3    H128731   4.600   1.320   1.147  0.1904 -2.2634 -1.0655
 9589TIP3    H228732   4.733   1.293   1.081  1.8042  0.5488  0.8180
 9590TIP3   OH228733   5.223   3.791   2.686  0.0727 -0.0805 -0.0322
 9590TIP3    H128734   5.209   3.708   2.732  0.2868  0.9262  1.9911
 9590TIP3    H228735   5.263   3.767   2.603  0.8142 -1.9758  0.8181
 9591TIP3   OH228736   6.233   3.156   5.816 -0.7896 -0.2237  0.6549
 9591TIP3    H128737   6.196   3.137   5.730  1.1506  1.4040 -0.6334
 9591TIP3    H228738   6.326   3.137   5.807 -0.2737  1.4239  1.8928
 9592TIP3   OH228739   7.030   2.697   3.537 -0.0968  0.2049 -0.5912
 9592TIP3    H128740   7.068   2.615   3.569 -1.0342 -0.5711 -1.4178
 9592TIP3    H228741   7.092   2.728   3.471  1.4058  1.3653  1.2622
 9593TIP3   OH228742   1.870   1.926   1.247 -0.0841  0.0218 -0.0237
 9593TIP3    H128743   1.854   1.941   1.154 -0.1863 -0.5337 -0.1005
 9593TIP3    H228744   1.966   1.920   1.255 -0.1129 -1.2208 -0.3173
 9594TIP3   OH228745   2.862   2.034   1.363 -0.2275 -0.3384 -0.1578
 9594TIP3    H128746   2.886   2.127   1.360  1.0043 -0.3074  3.9221
 9594TIP3    H228747   2.918   1.993   1.297  1.2140  1.5106 -0.1774
 9595TIP3   OH228748   2.296   0.149   1.043 -0.0253  0.5536  0.2451
 9595TIP3    H128749   2.375   0.182   1.001  0.9001 -0.2511  1.2757
 9595TIP3    H228750   2.328   0.085   1.107 -1.6378 -1.4028 -0.7892
 9596TIP3   OH228751   3.770   2.238   1.491 -0.4843  0.5833  0.3573
 9596TIP3    H128752   3.724   2.309   1.536  0.1336  1.2070  0.0256
 9596TIP3    H228753   3.707   2.204   1.428 -0.7463  0.9126  0.4416
 9597TIP3   OH228754   2.957   4.014   4.817  0.5021  0.5751  0.1397
 9597TIP3    H128755   3.051   4.030   4.811  0.5641  0.0431 -0.4476
 9597TIP3    H228756   2.917   4.082   4.762  0.8044 -1.5461 -2.9768
 9598TIP3   OH228757   2.388   6.258   0.990  0.3939  0.0180  0.6563
 9598TIP3    H128758   2.437   6.338   1.007  1.1755 -0.2035 -0.4718
 9598TIP3    H228759   2.298   6.288   0.978  0.6456  0.7121  0.4311
 9599TIP3   OH228760   2.881   4.097   0.627  0.0698  0.0514  0.6036
 9599TIP3    H128761   2.881   4.049   0.545  0.8661  2.2196 -0.7630
 9599TIP3    H228762   2.923   4.038   0.690  0.8152 -1.0909 -0.9143
 9600TIP3   OH228763   2.016   4.390   3.982  0.2818  0.2568 -0.0247
 9600TIP3    H128764   2.014   4.474   4.027 -3.2101  1.0472 -1.3105
 9600TIP3    H228765   1.992   4.326   4.049 -0.6967  0.8217  0.1744
 9601TIP3   OH228766   6.170   5.138   1.022 -0.2794  0.1233  0.1606
 9601TIP3    H128767   6.170   5.081   1.099 -0.5582 -0.6383 -0.3926
 9601TIP3    H228768   6.259   5.130   0.986 -0.4498 -0.3193 -0.1699
 9602TIP3   OH228769   5.560   6.680   2.350 -0.0943  0.1690  0.2282
 9602TIP3    H128770   5.608   6.610   2.394 -1.3451 -1.5768 -1.0516
 9602TIP3    H228771   5.473   6.642   2.332 -0.1741  1.3375 -2.2483
 9603TIP3   OH228772   5.806   5.057   0.885  0.0714  0.7130 -0.1243
 9603TIP3    H128773   5.782   4.965   0.873  0.1381  0.7828 -0.8451
 9603TIP3    H228774   5.781   5.099   0.802  1.4818  1.0328 -0.4171
 9604TIP3   OH228775   4.205   2.842   0.352  0.3708  0.2637 -0.1287
 9604TIP3    H128776   4.298   2.829   0.371  0.4801  0.1199 -0.7460
 9604TIP3    H228777   4.195   2.814   0.261 -0.0237  1.4697 -0.4698
 9605TIP3   OH228778   1.334   3.166   5.403 -0.6544  0.1363 -0.1982
 9605TIP3    H128779   1.292   3.239   5.357  1.1765  0.9036 -0.7145
 9605TIP3    H228780   1.344   3.197   5.493 -1.6164 -0.2604  0.0663
 9606TIP3   OH228781   3.400   5.887   2.911 -0.3545  0.3739  0.2428
 9606TIP3    H128782   3.436   5.927   2.991 -0.3827 -2.0027  1.5177
 9606TIP3    H228783   3.455   5.810   2.896 -2.2580 -0.9550 -0.2238
 9607TIP3   OH228784   3.646   0.774   0.709  0.0584  0.1968 -0.3220
 9607TIP3    H128785   3.580   0.713   0.676 -1.1179  2.2073 -2.0186
 9607TIP3    H228786   3.635   0.852   0.653  1.2928  2.0414  1.8414
 9608TIP3   OH228787   4.270   1.123   5.175  0.2680  0.3682  0.3020
 9608TIP3    H128788   4.272   1.151   5.084 -0.7121  0.8453  0.4170
 9608TIP3    H228789   4.349   1.161   5.213  0.0909  1.1470 -0.0772
 9609TIP3   OH228790   0.195   3.435   1.246 -0.1551 -0.2483  0.0522
 9609TIP3    H128791   0.193   3.445   1.341 -0.1794 -0.9882  0.1411
 9609TIP3    H228792   0.106   3.455   1.217  0.3757  2.2106 -0.0937
 9610TIP3   OH228793   6.117   3.545   5.128 -0.6398  0.1396  0.1333
 9610TIP3    H128794   6.189   3.569   5.187  1.2996 -0.6363 -1.7921
 9610TIP3    H228795   6.088   3.628   5.091  1.2282  0.2721 -1.1724
 9611TIP3   OH228796   2.460   2.197   5.158 -0.4823 -0.0177 -0.1015
 9611TIP3    H128797   2.460   2.283   5.117 -1.3165 -0.4892 -1.1367
 9611TIP3    H228798   2.431   2.214   5.248  0.1925  0.8793 -0.0458
 9612TIP3   OH228799   3.179   1.302   2.230 -0.4043 -0.2818  0.4060
 9612TIP3    H128800   3.161   1.312   2.137  2.7818 -0.1270 -0.3183
 9612TIP3    H228801   3.098   1.266   2.267 -1.7298 -0.4245 -2.4008
 9613TIP3   OH228802   0.561   0.387   1.354  0.5528  0.3558  0.4171
 9613TIP3    H128803   0.575   0.294   1.368 -2.2244 -0.1845  0.1494
 9613TIP3    H228804   0.594   0.403   1.266  4.0288  0.4556  1.5615
 9614TIP3   OH228805   0.857   5.504   4.211  0.4409  0.4301  0.4411
 9614TIP3    H128806   0.804   5.500   4.131  0.5312  1.6883  0.2980
 9614TIP3    H228807   0.935   5.553   4.185  1.0047 -0.1644  1.0118
 9615TIP3   OH228808   6.882   0.413   0.909 -0.8664  0.1629  0.1824
 9615TIP3    H128809   6.829   0.368   0.975 -0.2351  0.6897  1.0749
 9615TIP3    H228810   6.819   0.463   0.858 -1.4780 -1.0205 -0.2608
 9616TIP3   OH228811   5.905   3.825   3.843  0.2116 -0.1983  0.4817
 9616TIP3    H128812   5.924   3.918   3.827  0.4572 -0.4879 -1.0791
 9616TIP3    H228813   5.853   3.824   3.923 -0.5952  1.3732  0.0149
 9617TIP3   OH228814   1.879   6.225   1.154 -0.2147 -0.5604 -0.0285
 9617TIP3    H128815   1.785   6.221   1.169  0.1636 -0.2487  3.1598
 9617TIP3    H228816   1.918   6.197   1.237  2.5097 -0.1454 -1.0490
 9618TIP3   OH228817   2.449   1.327   1.921  0.2791  0.1319 -0.8729
 9618TIP3    H128818   2.423   1.358   2.007 -0.0467  1.9242 -1.5543
 9618TIP3    H228819   2.503   1.250   1.937 -2.0194 -1.2250  0.7819
 9619TIP3   OH228820   2.578   5.476   4.911  0.6306 -0.5686 -0.5402
 9619TIP3    H128821   2.583   5.434   4.825  3.6047  0.6881 -1.0694
 9619TIP3    H228822   2.667   5.471   4.946 -0.3984 -0.6692  2.3441
 9620TIP3   OH228823   4.192   6.745   4.453  0.3553 -0.3614 -0.5919
 9620TIP3    H128824   4.268   6.770   4.401 -0.7817  0.4750 -1.9057
 9620TIP3    H228825   4.124   6.807   4.428 -0.3988 -0.2365  1.5561
 9621TIP3   OH228826   1.824   1.416   2.284  0.3070  0.2630 -0.0177
 9621TIP3    H128827   1.825   1.427   2.379 -0.5179  0.6844 -0.0490
 9621TIP3    H228828   1.902   1.464   2.254  1.7154 -1.5439  0.5857
 9622TIP3   OH228829   1.807   6.039   5.219 -0.3750  0.1482 -0.3720
 9622TIP3    H128830   1.748   6.060   5.292  0.8498  1.7604  0.2262
 9622TIP3    H228831   1.759   5.974   5.167 -1.5396 -0.5823  1.5154
 9623TIP3   OH228832   2.588   3.447   5.527 -0.5869  0.2913 -0.1305
 9623TIP3    H128833   2.592   3.487   5.614  1.3209  0.7536 -0.3997
 9623TIP3    H228834   2.508   3.393   5.530  0.8212 -1.9324  2.8781
 9624TIP3   OH228835   6.510   0.987   5.286  0.8065  0.2481 -0.2125
 9624TIP3    H128836   6.422   0.990   5.324  0.5896 -0.8209 -0.6055
 9624TIP3    H228837   6.566   1.030   5.351  0.0674  0.5419  0.2353
 9625TIP3   OH228838   3.800   4.172   2.368  0.8048  0.2430  0.1656
 9625TIP3    H128839   3.724   4.114   2.361  0.6920  0.5231 -1.2074
 9625TIP3    H228840   3.777   4.234   2.438 -0.7589  1.0590 -1.0034
 9626TIP3   OH228841   4.539   0.935   3.558  0.0734  0.4037  0.2985
 9626TIP3    H128842   4.466   0.873   3.567  1.2758 -0.9575  1.0619
 9626TIP3    H228843   4.563   0.930   3.465 -1.4117  1.6344 -0.1986
 9627TIP3   OH228844   2.168   4.483   4.484  0.2966  0.2656  0.2415
 9627TIP3    H128845   2.203   4.400   4.453  1.3193  0.4054  0.9945
 9627TIP3    H228846   2.073   4.473   4.477  0.4282 -0.7336 -0.2396
 9628TIP3   OH228847   2.453   6.115   0.397  0.3740  0.2180 -0.2170
 9628TIP3    H128848   2.541   6.093   0.426  0.4186  1.1914  0.4215
 9628TIP3    H228849   2.402   6.125   0.477  0.4071  2.5544 -0.4367
 9629TIP3   OH228850   1.950   4.204   4.206  0.2890 -0.2488  0.1347
 9629TIP3    H128851   2.033   4.158   4.199  0.8328  0.5224  1.2386
 9629TIP3    H228852   1.898   4.152   4.268  0.1427 -0.4409 -0.1462
 9630TIP3   OH228853   2.968   2.741   4.884  0.5655 -0.2728 -0.6076
 9630TIP3    H128854   3.055   2.733   4.922  0.2322  1.1727  0.5572
 9630TIP3    H228855   2.926   2.811   4.934 -0.9456 -0.3044 -1.7459
 9631TIP3   OH228856   2.820   0.747   3.843 -0.1401  0.1448 -0.1178
 9631TIP3    H128857   2.817   0.658   3.877  2.5650  0.3699  0.9113
 9631TIP3    H228858   2.835   0.736   3.749 -0.4252 -0.4773 -0.0950
 9632TIP3   OH228859   6.690   5.807   5.094 -0.3956 -0.0135  0.3188
 9632TIP3    H128860   6.767   5.782   5.145  0.6192 -0.2015 -1.2168
 9632TIP3    H228861   6.726   5.841   5.012 -1.9551 -0.3062 -0.5251
 9633TIP3   OH228862   6.836   5.530   4.045  0.1643 -0.0671  0.0282
 9633TIP3    H128863   6.925   5.561   4.031 -0.0792  1.6661  1.7980
 9633TIP3    H228864   6.816   5.478   3.967  3.1147 -1.5969  0.1499
 9634TIP3   OH228865   1.960   2.418   3.780 -0.4535  0.3079 -0.0688
 9634TIP3    H128866   1.872   2.395   3.809  0.5503 -2.3284  1.2398
 9634TIP3    H228867   1.972   2.370   3.699  0.2974 -0.6585  0.5943
 9635TIP3   OH228868   4.737   3.689   1.160 -0.1275  0.6433  0.4924
 9635TIP3    H128869   4.695   3.604   1.145  3.1223 -0.6025 -3.0318
 9635TIP3    H228870   4.816   3.668   1.210  1.5829  1.2246 -1.8348
 9636TIP3   OH228871   1.422   1.188   0.860  0.3886  0.4379  0.2597
 9636TIP3    H128872   1.462   1.115   0.907 -1.6184 -1.3139 -0.5696
 9636TIP3    H228873   1.454   1.179   0.770 -1.3103 -0.6576 -0.2862
 9637TIP3   OH228874   0.476   2.233   5.805  0.3597 -0.3087  0.5991
 9637TIP3    H128875   0.427   2.314   5.818  0.5892 -0.0190 -0.2866
 9637TIP3    H228876   0.450   2.178   5.879  0.7587  0.8279  1.6343
 9638TIP3   OH228877   0.689   0.504   4.961  0.0377  0.0147  0.1324
 9638TIP3    H128878   0.728   0.581   5.003  0.2919  1.0814 -1.9288
 9638TIP3    H228879   0.748   0.432   4.983 -0.7629  0.0978  2.9914
 9639TIP3   OH228880   7.014   2.464   0.476 -0.4689  0.4649  0.5703
 9639TIP3    H128881   6.935   2.447   0.425 -0.4145  0.7499  0.3911
 9639TIP3    H228882   7.083   2.478   0.411 -0.0591 -0.7386  0.7187
 9640TIP3   OH228883   1.983   3.790   4.485 -0.1228  0.4935 -0.7842
 9640TIP3    H128884   1.888   3.786   4.474 -0.0649 -0.3693 -1.0999
 9640TIP3    H228885   1.996   3.832   4.570 -0.7803  0.7492 -0.8032
 9641TIP3   OH228886   5.365   4.455   1.020 -0.3702  0.3665 -0.0035
 9641TIP3    H128887   5.299   4.520   1.043 -0.5760  0.4046 -0.6743
 9641TIP3    H228888   5.360   4.390   1.089 -0.2910  0.9684  0.5814
 9642TIP3   OH228889   3.648   2.392   3.868  0.1701 -0.3542 -0.6927
 9642TIP3    H128890   3.586   2.435   3.927  2.0632 -1.8448  2.6649
 9642TIP3    H228891   3.610   2.306   3.853 -0.1947 -0.0571 -1.5501
 9643TIP3   OH228892   3.411   5.610   1.671  0.4800  0.1103 -0.3025
 9643TIP3    H128893   3.499   5.609   1.634  0.9405  0.8362  0.7077
 9643TIP3    H228894   3.360   5.553   1.614  1.9340 -1.4845 -0.0948
 9644TIP3   OH228895   3.198   2.653   5.825  0.4413 -0.0827  0.0736
 9644TIP3    H128896   3.267   2.719   5.818 -0.1794  0.5169 -0.5306
 9644TIP3    H228897   3.184   2.624   5.735  1.1871 -1.5730  0.3954
 9645TIP3   OH228898   2.182   6.345   3.813 -0.0688  0.2251 -0.2202
 9645TIP3    H128899   2.099   6.371   3.852 -0.7756  0.6418 -1.9132
 9645TIP3    H228900   2.220   6.427   3.782  0.5752 -0.0702 -0.2340
 9646TIP3   OH228901   3.558   4.601   4.729  0.1392 -0.0251  0.2111
 9646TIP3    H128902   3.626   4.668   4.722  0.0473 -0.0384 -1.1607
 9646TIP3    H228903   3.597   4.523   4.691  0.2793 -0.8114  1.8873
 9647TIP3   OH228904   2.258   0.905   2.342 -0.2473  0.2844 -0.0044
 9647TIP3    H128905   2.192   0.850   2.298 -2.3660  1.3114  1.7168
 9647TIP3    H228906   2.280   0.972   2.278 -0.6854 -0.2338 -0.7112
 9648TIP3   OH228907   0.345   5.500   2.270 -0.4077  0.2468 -0.4855
 9648TIP3    H128908   0.439   5.485   2.265 -0.6122 -1.6216  0.3445
 9648TIP3    H228909   0.306   5.420   2.235 -1.6727  0.1139  1.0809
 9649TIP3   OH228910   1.158   0.801   5.720 -0.4688  0.0455  0.7529
 9649TIP3    H128911   1.127   0.879   5.674  0.0709 -0.4143 -0.4324
 9649TIP3    H228912   1.096   0.789   5.792 -0.3699  1.7459  1.1680
 9650TIP3   OH228913   5.514   1.092   5.463 -0.2823 -0.4731 -0.2211
 9650TIP3    H128914   5.514   1.060   5.554  0.0400  1.9215  0.6849
 9650TIP3    H228915   5.451   1.163   5.463  2.4137  2.0881 -0.8688
 9651TIP3   OH228916   3.755   6.503   1.620 -0.3603  0.4418  0.1265
 9651TIP3    H128917   3.666   6.538   1.616  0.1561  2.1167  1.8427
 9651TIP3    H228918   3.806   6.562   1.565 -0.5452 -1.7078 -2.5869
 9652TIP3   OH228919   5.540   3.223   2.515  0.0284 -0.4330  0.4683
 9652TIP3    H128920   5.592   3.213   2.595 -0.0861 -0.0465  0.5913
 9652TIP3    H228921   5.454   3.251   2.545 -0.5173 -1.8452  0.3229
 9653TIP3   OH228922   5.325   3.061   1.344  0.3198  0.0474  0.2129
 9653TIP3    H128923   5.421   3.057   1.352  0.2075  0.2277  2.0110
 9653TIP3    H228924   5.303   3.150   1.371 -0.3529  0.1384 -0.5854
 9654TIP3   OH228925   6.893   1.044   1.621  0.0281  0.1205  0.6162
 9654TIP3    H128926   6.985   1.073   1.618 -0.7957  2.9527  0.4395
 9654TIP3    H228927   6.852   1.099   1.687 -1.6359 -0.9653  0.5545
 9655TIP3   OH228928   4.359   1.439   3.966  0.3929 -0.5427 -0.3889
 9655TIP3    H128929   4.361   1.482   4.051 -0.8014 -0.2772 -0.4776
 9655TIP3    H228930   4.405   1.356   3.980  0.3687 -0.4206  0.4563
 9656TIP3   OH228931   2.479   0.843   0.829 -0.1184 -0.3474  0.5083
 9656TIP3    H128932   2.531   0.774   0.790  0.8134  0.8328 -0.4163
 9656TIP3    H228933   2.388   0.813   0.821  0.2687 -1.4660  0.1810
 9657TIP3   OH228934   5.427   5.470   2.685  0.5006 -0.7547 -0.2947
 9657TIP3    H128935   5.506   5.489   2.735 -1.0085  0.2019  1.8703
 9657TIP3    H228936   5.373   5.416   2.744 -1.6950  1.0893 -0.4506
 9658TIP3   OH228937   2.412   3.598   4.563 -0.1197 -0.1181  0.2510
 9658TIP3    H128938   2.391   3.687   4.590  0.1035 -0.3203  1.1321
 9658TIP3    H228939   2.441   3.554   4.644  1.7406 -0.4076 -0.5109
 9659TIP3   OH228940   0.852   0.072   4.099 -0.3267  0.0595 -0.0206
 9659TIP3    H128941   0.849   0.092   4.005 -1.2994 -1.0151 -0.2359
 9659TIP3    H228942   0.761   0.071   4.127 -0.3814 -3.2241  0.1108
 9660TIP3   OH228943   4.288   5.818   4.713 -0.4968  0.4915 -0.0221
 9660TIP3    H128944   4.330   5.734   4.694 -1.6898 -0.1093 -0.1140
 9660TIP3    H228945   4.345   5.859   4.779  0.4689 -0.0693 -0.4812
 9661TIP3   OH228946   5.823   2.730   4.093 -0.2574  0.1310 -0.3808
 9661TIP3    H128947   5.909   2.744   4.054 -0.3678  0.1470 -0.6199
 9661TIP3    H228948   5.763   2.727   4.018 -0.3932 -0.4089 -0.2485
 9662TIP3   OH228949   4.650   1.386   3.192 -0.4335 -0.3144 -0.5924
 9662TIP3    H128950   4.619   1.472   3.165 -1.9702 -0.3300  0.9782
 9662TIP3    H228951   4.732   1.403   3.239 -1.9866  0.6281  1.9243
 9663TIP3   OH228952   4.301   4.488   2.138 -0.5852  0.1810 -0.2332
 9663TIP3    H128953   4.228   4.505   2.198 -0.2982 -0.1838  0.2199
 9663TIP3    H228954   4.340   4.406   2.170 -0.9918 -0.5146 -1.4530
 9664TIP3   OH228955   6.355   0.256   1.692  0.0555 -0.7542  0.3053
 9664TIP3    H128956   6.321   0.308   1.619  1.6930 -0.6974 -0.4565
 9664TIP3    H228957   6.276   0.223   1.737 -1.0247 -1.6926 -2.1116
 9665TIP3   OH228958   3.531   2.259   3.647  0.3639 -0.4208  0.2961
 9665TIP3    H128959   3.473   2.320   3.691  0.1260  0.0154 -0.5900
 9665TIP3    H228960   3.487   2.174   3.653 -0.3777 -0.0941 -0.3719
 9666TIP3   OH228961   0.523   3.087   0.636 -0.0179 -0.1168  0.4815
 9666TIP3    H128962   0.493   3.075   0.726  1.4270  0.5715  1.1033
 9666TIP3    H228963   0.477   3.020   0.585 -1.8489  0.3276  1.4865
 9667TIP3   OH228964   5.024   1.461   4.060 -0.5759 -0.1789  0.0254
 9667TIP3    H128965   5.055   1.394   4.122 -1.2804 -0.0495  0.5297
 9667TIP3    H228966   5.095   1.524   4.055 -0.9513  0.3974  1.5829
 9668TIP3   OH228967   6.215   1.629   2.361 -0.0612  0.1664 -0.3340
 9668TIP3    H128968   6.195   1.600   2.449 -1.0934  0.7336 -0.3689
 9668TIP3    H228969   6.294   1.580   2.337  1.7046  1.7335  1.7865
 9669TIP3   OH228970   6.501   2.460   1.079 -0.2027 -0.4508  0.0559
 9669TIP3    H128971   6.548   2.385   1.116 -1.1071 -0.6518  0.8497
 9669TIP3    H228972   6.564   2.502   1.022  1.4544  0.1392  2.2078
 9670TIP3   OH228973   3.553   0.979   0.536  0.4849  0.0522  0.6766
 9670TIP3    H128974   3.563   1.004   0.444  0.4139  2.3660  1.2384
 9670TIP3    H228975   3.460   0.997   0.555  1.0267  1.9639  1.7835
 9671TIP3   OH228976   2.966   3.535   2.370  0.0977 -0.4988 -0.0021
 9671TIP3    H128977   2.946   3.583   2.289 -0.6662 -0.9657 -0.1046
 9671TIP3    H228978   2.995   3.449   2.340 -1.9881 -1.3486  0.2030
 9672TIP3   OH228979   3.619   5.054   5.856 -0.4354  0.3702 -0.2259
 9672TIP3    H128980   3.597   5.055   5.763  0.0361  2.9358 -0.3950
 9672TIP3    H228981   3.586   5.138   5.889  2.5805  1.1795  1.0862
 9673TIP3   OH228982   7.202   4.509   3.564  0.1207 -0.7624  0.4238
 9673TIP3    H128983   7.169   4.458   3.638  1.3696  0.7429  2.0915
 9673TIP3    H228984   7.128   4.562   3.536 -0.5003 -1.7047  0.2310
 9674TIP3   OH228985   4.007   1.647   2.065 -0.0776  0.4025 -0.0159
 9674TIP3    H128986   3.966   1.669   2.148 -2.2882 -2.4204 -0.1768
 9674TIP3    H228987   4.091   1.609   2.089 -0.3628  0.3250  0.8968
 9675TIP3   OH228988   3.274   0.015   4.447  0.5446  0.1557  0.0006
 9675TIP3    H128989   3.348   0.006   4.386 -0.2860 -0.7757 -0.9023
 9675TIP3    H228990   3.218   0.082   4.407  1.1900  1.3461  1.0193
 9676TIP3   OH228991   1.683   0.066   5.365  0.1510  0.5330 -0.5734
 9676TIP3    H128992   1.744   0.021   5.306 -1.1371 -0.1360 -1.4463
 9676TIP3    H228993   1.607   0.085   5.311 -1.3272 -0.6037  0.9843
 9677TIP3   OH228994   5.820   5.291   2.516 -0.4185  0.2338 -0.0289
 9677TIP3    H128995   5.769   5.253   2.587  0.3672  1.4112  1.2271
 9677TIP3    H228996   5.756   5.340   2.464 -0.8732  0.1137  0.4111
 9678TIP3   OH228997   2.637   0.200   5.644  0.0242  0.0294  0.4293
 9678TIP3    H128998   2.695   0.266   5.606 -1.2548  1.2319  0.4771
 9678TIP3    H228999   2.594   0.161   5.568  0.2257 -0.2256  0.4455
 9679TIP3   OH229000   3.740   3.339   0.258  0.4157 -0.2909 -0.5620
 9679TIP3    H129001   3.786   3.303   0.182 -1.1725  1.6441 -2.5826
 9679TIP3    H229002   3.648   3.343   0.231 -0.6862 -1.9338  2.4763
 9680TIP3   OH229003   4.025   3.100   4.188 -0.4177  0.4769  0.1679
 9680TIP3    H129004   3.956   3.121   4.124 -0.0207 -0.3134 -0.5313
 9680TIP3    H229005   3.987   3.030   4.241 -0.3266  0.3397  0.0558
 9681TIP3   OH229006   6.101   3.650   4.610 -0.5669 -0.6934  0.3325
 9681TIP3    H129007   6.125   3.561   4.636  0.9863 -0.5183 -0.4328
 9681TIP3    H229008   6.124   3.655   4.518 -0.2481  0.6337  0.4666
 9682TIP3   OH229009   6.199   1.986   5.333  0.1041 -0.2996  0.8752
 9682TIP3    H129010   6.179   2.070   5.374 -2.3806 -0.3094 -0.0893
 9682TIP3    H229011   6.137   1.925   5.372  1.2565 -1.4942  0.9006
 9683TIP3   OH229012   1.584   2.462   1.282 -0.0515 -0.2672 -0.3107
 9683TIP3    H129013   1.510   2.458   1.221  0.3557  2.1604 -1.0897
 9683TIP3    H229014   1.661   2.447   1.227  0.1491 -1.2242  0.2118
 9684TIP3   OH229015   0.992   5.296   1.191 -0.3495 -0.0141 -0.0792
 9684TIP3    H129016   0.912   5.259   1.153 -0.7122  2.2807 -1.7193
 9684TIP3    H229017   1.040   5.332   1.117  2.2332 -1.2032  0.8720
 9685TIP3   OH229018   5.090   6.038   2.060 -0.0251  0.2749 -0.2898
 9685TIP3    H129019   5.030   6.111   2.043  1.0625  1.4941  0.8514
 9685TIP3    H229020   5.166   6.055   2.004  0.2293  0.0012 -0.0313
 9686TIP3   OH229021   4.380   3.232   0.035 -0.2551 -0.2718 -0.1002
 9686TIP3    H129022   4.465   3.276   0.032  0.0768 -0.7735 -4.4131
 9686TIP3    H229023   4.401   3.139   0.027 -1.1657 -0.3596 -1.7350
 9687TIP3   OH229024   6.230   5.064   0.324 -0.0336  0.0932 -0.1701
 9687TIP3    H129025   6.236   5.044   0.231 -0.6597  0.5489 -0.3102
 9687TIP3    H229026   6.202   4.982   0.365  0.0145 -0.0421 -0.4064
 9688TIP3   OH229027   1.250   2.168   5.868 -0.3484 -0.1452 -0.2629
 9688TIP3    H129028   1.280   2.258   5.884 -1.1060  0.1005 -0.1590
 9688TIP3    H229029   1.234   2.165   5.774  0.1561 -0.3225 -0.3412
 9689TIP3   OH229030   4.258   4.102   4.859  0.6913  0.4943 -0.3634
 9689TIP3    H129031   4.332   4.141   4.905  0.9366 -1.0723  0.6539
 9689TIP3    H229032   4.218   4.042   4.922 -2.0825  1.9731 -0.5389
 9690TIP3   OH229033   2.330   0.024   1.961 -0.0407 -0.1734 -0.2942
 9690TIP3    H129034   2.395  -0.028   1.914  0.5726 -1.3177  1.7101
 9690TIP3    H229035   2.353   0.115   1.942  2.9126 -0.4823  1.2044
 9691TIP3   OH229036   7.232   3.793   2.667 -0.1208 -0.0717 -0.3941
 9691TIP3    H129037   7.203   3.844   2.743  0.0431  0.3353 -0.6047
 9691TIP3    H229038   7.164   3.726   2.656 -1.9357  1.8996 -1.9208
 9692TIP3   OH229039   3.128   5.350   4.280 -0.0725 -0.0527 -0.1780
 9692TIP3    H129040   3.092   5.374   4.194  1.2935 -0.2383 -0.8269
 9692TIP3    H229041   3.173   5.429   4.309  0.8757 -0.5046 -0.4003
 9693TIP3   OH229042   4.769   3.775   4.849  0.4835  0.2271  0.0165
 9693TIP3    H129043   4.724   3.858   4.835  0.2900  0.3650  1.3855
 9693TIP3    H229044   4.707   3.709   4.816  0.0003  0.5250  0.3249
 9694TIP3   OH229045   3.938   6.334   0.494 -0.2684 -0.5766 -0.4779
 9694TIP3    H129046   3.844   6.331   0.480 -0.2831 -1.9542 -0.2252
 9694TIP3    H229047   3.949   6.388   0.573 -0.7678  0.3044 -1.0009
 9695TIP3   OH229048   1.988   6.253   2.837  0.2620  0.2396  0.2157
 9695TIP3    H129049   2.014   6.165   2.864 -1.2240 -0.4488 -0.4771
 9695TIP3    H229050   2.053   6.277   2.771 -0.0739 -0.9114 -0.5729
 9696TIP3   OH229051   5.366   4.110   1.452  0.0519  0.0476  0.4575
 9696TIP3    H129052   5.406   4.113   1.538 -0.0736 -1.2928  0.5837
 9696TIP3    H229053   5.315   4.191   1.446  0.4651  0.3852  1.4369
 9697TIP3   OH229054   0.179   2.614   2.883  0.2689  0.2965 -0.6990
 9697TIP3    H129055   0.166   2.702   2.919  1.3543  0.0233  0.4298
 9697TIP3    H229056   0.274   2.601   2.884  0.0697 -2.0642  2.2110
 9698TIP3   OH229057   0.366   3.873   4.460  0.3403  0.2330  0.1216
 9698TIP3    H129058   0.282   3.919   4.455  0.1273  0.2375  2.7673
 9698TIP3    H229059   0.343   3.784   4.487  1.0471 -0.4503 -1.4140
 9699TIP3   OH229060   3.407   4.444   0.836  0.3958  0.3510 -0.0526
 9699TIP3    H129061   3.443   4.523   0.877 -1.8320  1.2017  0.3823
 9699TIP3    H229062   3.369   4.395   0.909 -1.0274  0.4584 -0.6822
 9700TIP3   OH229063   1.384   5.110   1.910 -0.0759  0.0995 -0.0435
 9700TIP3    H129064   1.451   5.045   1.932  0.9507  0.3526 -2.1118
 9700TIP3    H229065   1.411   5.189   1.956  0.3865 -0.1166  0.0638
 9701TIP3   OH229066   4.440   3.858   1.021 -0.2454  0.2445 -0.2653
 9701TIP3    H129067   4.431   3.779   1.075 -1.4225  0.8010  0.4073
 9701TIP3    H229068   4.505   3.835   0.955 -1.0814 -1.5292 -0.5286
 9702TIP3   OH229069   5.826   2.988   1.173 -0.6176 -0.1732  0.2044
 9702TIP3    H129070   5.862   3.051   1.111 -1.7892 -0.0315 -0.3599
 9702TIP3    H229071   5.744   3.027   1.203 -0.2304 -0.3831  1.6195
 9703TIP3   OH229072   0.004   4.403   4.023  0.0605  0.1621  0.1350
 9703TIP3    H129073  -0.037   4.473   4.075 -0.2096  0.4593 -0.4696
 9703TIP3    H229074   0.085   4.383   4.070  0.1753  0.9323  0.2784
 9704TIP3   OH229075   3.263   4.719   3.744 -0.0964  0.4842 -0.0438
 9704TIP3    H129076   3.350   4.711   3.782  0.0512 -0.8057 -0.6120
 9704TIP3    H229077   3.229   4.802   3.778  0.1266 -0.4444  2.6885
 9705TIP3   OH229078   1.983   1.876   4.163 -0.7303  0.3147  0.2332
 9705TIP3    H129079   2.012   1.854   4.251 -2.6525  0.1888  0.8886
 9705TIP3    H229080   2.062   1.875   4.110  0.3598 -0.3279  1.8142
 9706TIP3   OH229081   1.398   3.356   2.542  0.4964 -0.1501  0.2380
 9706TIP3    H129082   1.347   3.317   2.471 -2.5266  0.0256  2.1174
 9706TIP3    H229083   1.428   3.439   2.506 -0.2177 -0.4443 -1.1266
 9707TIP3   OH229084   1.989   2.912   0.185  0.3588 -0.1729  0.6021
 9707TIP3    H129085   1.951   2.844   0.241 -1.1036  0.5850  0.5695
 9707TIP3    H229086   1.976   2.879   0.096 -0.6902  0.3030  0.5703
 9708TIP3   OH229087   2.528   1.653   3.908 -0.4958 -0.1590 -0.0271
 9708TIP3    H129088   2.532   1.733   3.961 -0.8849  0.0761 -0.3468
 9708TIP3    H229089   2.619   1.623   3.902 -0.4381 -0.1341  0.6873
 9709TIP3   OH229090   6.606   5.244   3.799 -0.6806  0.5597  0.5532
 9709TIP3    H129091   6.692   5.285   3.798 -0.6255  0.4704  1.0763
 9709TIP3    H229092   6.584   5.230   3.707  0.0171  0.2586  0.4323
 9710TIP3   OH229093   0.350   2.346   3.080 -0.5784  0.3182  0.1775
 9710TIP3    H129094   0.376   2.428   3.038 -0.5237 -0.3671 -1.1750
 9710TIP3    H229095   0.359   2.363   3.174  1.5970  1.1372 -0.1315
 9711TIP3   OH229096   1.763   3.626   5.509  0.4324 -0.0413  0.8287
 9711TIP3    H129097   1.787   3.534   5.521 -1.5079 -1.0186 -1.8331
 9711TIP3    H229098   1.693   3.641   5.572 -1.4815 -1.4786 -0.8027
 9712TIP3   OH229099   5.929   5.600   0.394 -0.4420  0.1560 -0.3607
 9712TIP3    H129100   5.961   5.690   0.397 -0.6786  0.3095 -1.6991
 9712TIP3    H229101   5.997   5.549   0.437 -0.3042  0.9753  0.4084
 9713TIP3   OH229102   4.496   2.612   5.779  0.4170 -0.4102  0.1609
 9713TIP3    H129103   4.406   2.582   5.791 -0.0274  0.1517 -1.4255
 9713TIP3    H229104   4.506   2.616   5.683  0.9254  2.9555  0.2524
 9714TIP3   OH229105   0.195   5.134   3.211 -0.1725 -0.7436  0.8505
 9714TIP3    H129106   0.123   5.191   3.237  0.5866  1.5196 -1.4737
 9714TIP3    H229107   0.180   5.118   3.118  0.7558 -2.7206  0.9955
 9715TIP3   OH229108   7.127   5.463   3.738 -0.4641 -0.4647 -0.3474
 9715TIP3    H129109   7.106   5.513   3.817 -0.0145 -0.5564 -0.1708
 9715TIP3    H229110   7.184   5.392   3.768 -1.4874 -1.3841 -0.5124
 9716TIP3   OH229111   5.242   3.320   3.376 -0.5877  0.3120  0.9127
 9716TIP3    H129112   5.212   3.403   3.340  0.6302  0.4274  0.1235
 9716TIP3    H229113   5.309   3.344   3.440  2.0562 -0.0981 -1.5188
 9717TIP3   OH229114   1.848   0.532   2.144 -0.3463 -0.2620  0.1228
 9717TIP3    H129115   1.858   0.535   2.239 -1.8097 -0.8120  0.3264
 9717TIP3    H229116   1.935   0.551   2.109  0.3412 -0.6547  1.5754
 9718TIP3   OH229117   1.248   2.374   1.953 -0.0187  0.2933 -0.2676
 9718TIP3    H129118   1.155   2.393   1.945  0.0288  0.4280 -0.4869
 9718TIP3    H229119   1.257   2.337   2.041 -0.3505 -0.1323 -0.4057
 9719TIP3   OH229120   6.762   3.208   2.267 -0.8663 -0.4466  0.1180
 9719TIP3    H129121   6.726   3.286   2.224 -1.2563 -0.9473 -0.4768
 9719TIP3    H229122   6.703   3.191   2.340  1.1523  1.8721  2.4892
 9720TIP3   OH229123   0.519   4.553   4.374  0.0778  0.7474 -0.1840
 9720TIP3    H129124   0.462   4.571   4.450  1.0649 -0.3217  0.8498
 9720TIP3    H229125   0.529   4.458   4.373  0.3888  0.7743 -1.4540
 9721TIP3   OH229126   4.133   2.808   3.366  0.5537  0.5384  0.1935
 9721TIP3    H129127   4.171   2.800   3.279  0.1865 -0.5234  0.1128
 9721TIP3    H229128   4.100   2.720   3.386  2.0440  0.3242  2.0422
 9722TIP3   OH229129   1.136   6.165   2.199 -0.2142 -0.1819  0.2675
 9722TIP3    H129130   1.050   6.124   2.193 -0.3390  0.0100  0.7022
 9722TIP3    H229131   1.158   6.189   2.109 -0.0769 -1.3131 -0.0223
 9723TIP3   OH229132   2.832   0.062   1.613 -0.4052  0.1017 -0.7047
 9723TIP3    H129133   2.893   0.022   1.674 -1.2172 -1.1632 -0.6997
 9723TIP3    H229134   2.873   0.145   1.589  1.2465 -0.6670 -0.6224
 9724TIP3   OH229135   0.531   3.366   2.223  0.3625  0.7191  0.1258
 9724TIP3    H129136   0.584   3.367   2.303 -1.0068 -0.4495  1.1251
 9724TIP3    H229137   0.502   3.457   2.213  1.2178  1.0473  0.4775
 9725TIP3   OH229138   6.913   5.210   4.515  0.0821 -0.6219 -0.1815
 9725TIP3    H129139   6.889   5.198   4.607  0.4365 -2.1124 -0.2648
 9725TIP3    H229140   6.999   5.167   4.506  1.7368  2.4456 -0.4504
 9726TIP3   OH229141   6.405   5.728   3.637 -0.2989  0.1883  0.6806
 9726TIP3    H129142   6.448   5.661   3.583  2.0230 -0.2564  2.8704
 9726TIP3    H229143   6.406   5.806   3.583  0.5586 -0.5909 -0.4835
 9727TIP3   OH229144   4.613   3.463   1.446  0.1752 -0.3456  0.0067
 9727TIP3    H129145   4.619   3.439   1.354  0.3281  2.5732 -0.8617
 9727TIP3    H229146   4.699   3.502   1.466  0.0706 -0.7343  1.3576
 9728TIP3   OH229147   6.977   4.318   5.401 -0.0484 -0.2011  0.3908
 9728TIP3    H129148   7.009   4.228   5.413  1.1379  0.3784  1.9484
 9728TIP3    H229149   6.895   4.320   5.450  0.1137 -0.3377  0.6696
 9729TIP3   OH229150   6.630   4.222   1.292 -0.0687 -0.0954 -1.0218
 9729TIP3    H129151   6.568   4.223   1.364 -0.9940 -1.3262 -1.7545
 9729TIP3    H229152   6.688   4.297   1.308 -1.1757  0.5358  0.1623
 9730TIP3   OH229153   1.144   4.272   3.040 -0.5482  0.2775 -0.2643
 9730TIP3    H129154   1.076   4.331   3.008 -1.2783 -1.1062 -1.3701
 9730TIP3    H229155   1.200   4.257   2.964 -0.0270  0.0334  0.1682
 9731TIP3   OH229156   0.570   1.370   1.363 -0.1054 -0.1336 -0.5566
 9731TIP3    H129157   0.584   1.449   1.414 -0.0139  0.5749 -1.6546
 9731TIP3    H229158   0.643   1.312   1.386  0.7878  0.7814 -1.0263
 9732TIP3   OH229159   5.240   1.980   4.260  0.0897  0.1951 -0.1235
 9732TIP3    H129160   5.192   1.937   4.190 -0.8266  1.5202 -0.3431
 9732TIP3    H229161   5.180   2.047   4.293  0.7767  0.0915  1.4386
 9733TIP3   OH229162   4.551   1.909   0.049 -0.3326 -0.2253 -0.3897
 9733TIP3    H129163   4.566   1.986  -0.005 -0.8938  0.4771  0.4242
 9733TIP3    H229164   4.637   1.869   0.058  0.1654  0.8851  0.0256
 9734TIP3   OH229165   2.775   5.153   2.600  0.3670  0.2764 -0.0295
 9734TIP3    H129166   2.846   5.212   2.626  2.2983 -2.2684  0.9203
 9734TIP3    H229167   2.773   5.159   2.504  1.9035  0.4017 -0.0838
 9735TIP3   OH229168   2.793   1.006   4.849  0.1406 -0.1457 -0.0441
 9735TIP3    H129169   2.722   0.977   4.906 -1.1659  2.1063 -0.3903
 9735TIP3    H229170   2.834   1.078   4.897  1.3013 -0.4874 -0.4783
 9736TIP3   OH229171   1.970   2.339   2.325  0.1261  0.5581  0.1146
 9736TIP3    H129172   1.900   2.294   2.278  1.4130 -1.0878 -0.2682
 9736TIP3    H229173   2.010   2.396   2.260 -0.2866  0.8626  0.1193
 9737TIP3   OH229174   4.405   3.325   2.639 -0.0253 -0.5297  0.0086
 9737TIP3    H129175   4.472   3.330   2.572 -0.1489 -1.0044 -0.1539
 9737TIP3    H229176   4.404   3.412   2.679  0.3930 -0.3971 -0.2675
 9738TIP3   OH229177   0.443   2.145  -0.010 -0.1288 -0.3057 -0.0143
 9738TIP3    H129178   0.477   2.197   0.064 -0.8074  1.2064 -0.7219
 9738TIP3    H229179   0.371   2.095   0.028  0.9911 -1.3321  0.8431
 9739TIP3   OH229180   1.227   4.722   0.080  0.2914 -0.1899 -0.0404
 9739TIP3    H129181   1.232   4.792   0.145 -0.5122  0.4325 -0.6290
 9739TIP3    H229182   1.297   4.662   0.104  2.3046  1.7835 -0.6572
 9740TIP3   OH229183   3.858   2.404   4.458  0.2357  0.1947 -0.2764
 9740TIP3    H129184   3.866   2.312   4.483 -0.4858  0.5376  1.3588
 9740TIP3    H229185   3.767   2.415   4.433  0.3029  0.4687 -0.4032
 9741TIP3   OH229186   4.521   0.185   2.616  1.0247  0.6049 -0.1932
 9741TIP3    H129187   4.510   0.191   2.711  1.1727  1.0424 -0.1991
 9741TIP3    H229188   4.537   0.093   2.599 -1.6542  0.0448 -0.0998
 9742TIP3   OH229189   3.423   6.085   1.080  0.2519 -0.4725  0.3097
 9742TIP3    H129190   3.440   6.169   1.039  1.4380 -0.4678  0.7903
 9742TIP3    H229191   3.360   6.104   1.149 -1.2295 -0.3700 -0.9979
 9743TIP3   OH229192   2.675   6.078   5.421 -0.4180  0.2587  0.3477
 9743TIP3    H129193   2.729   6.047   5.494 -0.1653  3.2650  1.5654
 9743TIP3    H229194   2.729   6.063   5.343  0.7754  0.1333  1.1697
 9744TIP3   OH229195   6.587   6.333   3.907  0.5639 -0.0527 -0.2670
 9744TIP3    H129196   6.559   6.330   3.816 -1.1355  1.2972  0.1399
 9744TIP3    H229197   6.624   6.421   3.918  0.2161  0.0100  0.4707
 9745TIP3   OH229198   6.755   1.651   3.996 -0.6322  0.6718 -0.3868
 9745TIP3    H129199   6.751   1.707   3.918 -1.1844 -0.3540 -1.1208
 9745TIP3    H229200   6.673   1.601   3.995 -1.1335  1.3750  1.4508
 9746TIP3   OH229201   6.278   1.300   3.222  0.4536  0.2407  0.4065
 9746TIP3    H129202   6.338   1.352   3.274 -0.2639  0.7040  0.7807
 9746TIP3    H229203   6.203   1.285   3.279  1.1011 -2.2100  0.7560
 9747TIP3   OH229204   2.915   6.113   3.597  0.3483  0.6410 -0.3717
 9747TIP3    H129205   2.896   6.053   3.670 -1.6553  1.3374 -0.2663
 9747TIP3    H229206   2.949   6.192   3.639  1.1076  0.3194 -0.3640
 9748TIP3   OH229207   1.529   4.700   3.388 -0.7317  0.0792  0.2662
 9748TIP3    H129208   1.443   4.742   3.394 -0.3199  1.6114 -2.5160
 9748TIP3    H229209   1.521   4.642   3.312  0.2396 -1.0364  0.9885
 9749TIP3   OH229210   6.998   0.966   3.910  0.3799 -0.1440 -0.0801
 9749TIP3    H129211   7.005   1.005   3.823 -2.7318  1.8999  0.4134
 9749TIP3    H229212   7.072   1.001   3.959  0.1556  1.6219 -0.9380
   7.20465   6.79263   5.88257   0.00000   0.00000  -2.40156   0.00000  -2.40156  -3.39630
