* SET NIONTYPES = 1
* SET NPOSTOT = 52
* SET NNEGTOT = 48
* SET NIONTOT = 100
*  DATE:     6/13/26     13:44: 3      CREATED BY USER: charmm-gui
*
       100  EXT
         1         1  SOD       SOD            26.3524306799        4.6501505086       24.4863463121  IONS      1               1.0000000000
         2         2  SOD       SOD             0.8574368602      -26.3086244577      -23.7990479066  IONS      2               1.0000000000
         3         3  SOD       SOD            13.3709313988       17.3262600988       13.8700045939  IONS      3               1.0000000000
         4         4  SOD       SOD            18.2676362354       19.5578304752      -27.2782643904  IONS      4               1.0000000000
         5         5  SOD       SOD            -5.3045604899       15.8864441380       35.5956254804  IONS      5               1.0000000000
         6         6  SOD       SOD            23.4013951468       10.6642171113       37.7110011309  IONS      6               1.0000000000
         7         7  SOD       SOD            10.1411739535      -11.2781467189      -14.6585035723  IONS      7               1.0000000000
         8         8  SOD       SOD             1.5750045143      -15.2206205465       27.3693846118  IONS      8               1.0000000000
         9         9  SOD       SOD           -33.1944720221       42.4617831004       16.9731551716  IONS      9               1.0000000000
        10        10  SOD       SOD             7.1744627715      -20.6428576373      -34.9335885780  IONS      10              1.0000000000
        11        11  SOD       SOD           -24.7014303174        0.6496129297       -3.3411398525  IONS      11              1.0000000000
        12        12  SOD       SOD           -11.4518120872      -29.3268290861      -35.4107731572  IONS      12              1.0000000000
        13        13  SOD       SOD            14.6920071279        9.6664188191      -30.5893227135  IONS      13              1.0000000000
        14        14  SOD       SOD           -33.1287173794       31.7842018038        2.2087913190  IONS      14              1.0000000000
        15        15  SOD       SOD           -26.9620015101       15.5069312417       25.2833696683  IONS      15              1.0000000000
        16        16  SOD       SOD            12.4475329665      -27.0276466809        0.9170753538  IONS      16              1.0000000000
        17        17  SOD       SOD            27.0516076446       32.2472197245        1.2397652773  IONS      17              1.0000000000
        18        18  SOD       SOD           -20.0922292344      -30.4235283233      -11.3676020058  IONS      18              1.0000000000
        19        19  SOD       SOD           -35.9053715043        7.9513701165       16.1535542686  IONS      19              1.0000000000
        20        20  SOD       SOD            36.3751960115       -5.7724313884       35.6825691913  IONS      20              1.0000000000
        21        21  SOD       SOD            37.1705086204        3.1032384356        8.9094211614  IONS      21              1.0000000000
        22        22  SOD       SOD             5.9382867259        6.5978992962        5.0891204033  IONS      22              1.0000000000
        23        23  SOD       SOD            12.7520683875       19.9645473269        2.9237228131  IONS      23              1.0000000000
        24        24  SOD       SOD            12.1738866489      -42.6530053036       -8.1318683884  IONS      24              1.0000000000
        25        25  SOD       SOD             1.5606634092      -27.1217044428        5.6811143859  IONS      25              1.0000000000
        26        26  SOD       SOD           -20.1479607687      -39.5652544932      -15.1926587546  IONS      26              1.0000000000
        27        27  SOD       SOD             1.5081885548       26.4479150859       -1.4829274346  IONS      27              1.0000000000
        28        28  SOD       SOD            14.8661506678       33.9856487071        2.2249794672  IONS      28              1.0000000000
        29        29  SOD       SOD            17.8661495767        3.4808143172       17.6174100109  IONS      29              1.0000000000
        30        30  SOD       SOD            -6.0662209448        4.9064331193      -19.2329418465  IONS      30              1.0000000000
        31        31  SOD       SOD           -27.0163321498      -29.5802514010      -18.9116580191  IONS      31              1.0000000000
        32        32  SOD       SOD            -0.5525165615      -11.0630244148      -42.1743730346  IONS      32              1.0000000000
        33        33  SOD       SOD            -3.1174746767        1.1764760108      -43.6286875816  IONS      33              1.0000000000
        34        34  SOD       SOD            10.9795365849       18.9869210377      -36.8342162096  IONS      34              1.0000000000
        35        35  SOD       SOD            -3.2821834287       -1.4891283339        8.3533890085  IONS      35              1.0000000000
        36        36  SOD       SOD            16.1041705520        7.9219064258       42.3833394590  IONS      36              1.0000000000
        37        37  SOD       SOD            38.6533115428       -9.1837969820       25.4650661039  IONS      37              1.0000000000
        38        38  SOD       SOD           -13.8230247993       34.7758628088       20.9615612325  IONS      38              1.0000000000
        39        39  SOD       SOD            27.8115836090       14.1309821677       32.9771478651  IONS      39              1.0000000000
        40        40  SOD       SOD            36.4915151944       -6.8703509813       21.2824124984  IONS      40              1.0000000000
        41        41  SOD       SOD            30.3037112946       10.8960571288       -2.4415990042  IONS      41              1.0000000000
        42        42  SOD       SOD           -33.8840946893       -1.8759501552       35.8100126618  IONS      42              1.0000000000
        43        43  SOD       SOD             1.9145801806      -34.4276671444       11.9533558242  IONS      43              1.0000000000
        44        44  SOD       SOD            23.9530882174        1.2106815070      -25.0403517985  IONS      44              1.0000000000
        45        45  SOD       SOD           -40.0442334151      -12.4686256874       33.0928191438  IONS      45              1.0000000000
        46        46  SOD       SOD           -31.5172109080       -7.6832680183      -28.5860818702  IONS      46              1.0000000000
        47        47  SOD       SOD           -25.9753208690       21.2719595583        7.6988456622  IONS      47              1.0000000000
        48        48  SOD       SOD            41.7099773643       -3.7613655003        6.4535237329  IONS      48              1.0000000000
        49        49  SOD       SOD            -7.4934131948        3.4227870966       38.9591184695  IONS      49              1.0000000000
        50        50  SOD       SOD           -21.2719662863       35.9710210483       -6.1827989236  IONS      50              1.0000000000
        51        51  SOD       SOD             7.6342398255       -0.4536696488      -33.6966291447  IONS      51              1.0000000000
        52        52  SOD       SOD            37.9000064121      -12.9552117020      -12.4813432817  IONS      52              1.0000000000
        53        53  CLA       CLA           -37.6593194234       37.5731631211       -0.3800347522  IONS      53             -1.0000000000
        54        54  CLA       CLA            15.8813670170        4.0581103589      -30.4514424113  IONS      54             -1.0000000000
        55        55  CLA       CLA            12.7189686167      -37.9166823772       -2.6317147995  IONS      55             -1.0000000000
        56        56  CLA       CLA           -10.5486866205        0.3522823680      -43.8319698840  IONS      56             -1.0000000000
        57        57  CLA       CLA           -30.7856490954       -4.6744824553      -17.7804721823  IONS      57             -1.0000000000
        58        58  CLA       CLA             0.6486645394      -15.6770427750       35.7112450978  IONS      58             -1.0000000000
        59        59  CLA       CLA            39.9943442518        0.2428014589       27.8637257588  IONS      59             -1.0000000000
        60        60  CLA       CLA           -36.0317532909       -1.9968987362      -35.8014766643  IONS      60             -1.0000000000
        61        61  CLA       CLA           -41.6105357254       10.5976149667       -3.8559727550  IONS      61             -1.0000000000
        62        62  CLA       CLA            34.4563425736      -10.5840377655       26.3375475113  IONS      62             -1.0000000000
        63        63  CLA       CLA           -22.1468153282       29.7358258880        7.8032303373  IONS      63             -1.0000000000
        64        64  CLA       CLA           -32.4765708294        5.9755109006       21.1075479253  IONS      64             -1.0000000000
        65        65  CLA       CLA            -4.2348428344      -41.5623754371      -28.9194459787  IONS      65             -1.0000000000
        66        66  CLA       CLA             5.0594781249       22.7970465365        0.8657897082  IONS      66             -1.0000000000
        67        67  CLA       CLA            14.3423860958      -29.5856919553      -33.4648068635  IONS      67             -1.0000000000
        68        68  CLA       CLA             7.4664259099       -6.5624031006      -17.4548643986  IONS      68             -1.0000000000
        69        69  CLA       CLA           -20.0214285270      -19.5218873792        7.5296509012  IONS      69             -1.0000000000
        70        70  CLA       CLA             8.2589748367       12.7667341487       19.2562247764  IONS      70             -1.0000000000
        71        71  CLA       CLA            -2.9857108680       -9.4483955039      -43.5808941261  IONS      71             -1.0000000000
        72        72  CLA       CLA           -24.9649928988       -1.1289838627       26.7353276633  IONS      72             -1.0000000000
        73        73  CLA       CLA           -19.6173988908      -29.5235402279      -22.1115935443  IONS      73             -1.0000000000
        74        74  CLA       CLA           -24.3836087313        9.2190596412      -10.7742426343  IONS      74             -1.0000000000
        75        75  CLA       CLA           -44.1391869448      -20.4836481147       22.5480817531  IONS      75             -1.0000000000
        76        76  CLA       CLA            17.4999309197      -22.3917764322       -1.0104927528  IONS      76             -1.0000000000
        77        77  CLA       CLA             2.7453192050       10.0823723238       -7.6043425678  IONS      77             -1.0000000000
        78        78  CLA       CLA            21.8161157669      -27.7534388516      -32.2865102024  IONS      78             -1.0000000000
        79        79  CLA       CLA             3.8439829543      -30.8358239403      -11.7531854766  IONS      79             -1.0000000000
        80        80  CLA       CLA             1.7880927788       10.3793139473      -42.0987810149  IONS      80             -1.0000000000
        81        81  CLA       CLA           -25.0648864242       12.0852780774        6.0797374276  IONS      81             -1.0000000000
        82        82  CLA       CLA            17.3034935743       34.3616130894       -8.6271238122  IONS      82             -1.0000000000
        83        83  CLA       CLA           -32.5627570832       -8.5415371566      -32.9314026440  IONS      83             -1.0000000000
        84        84  CLA       CLA           -40.6998419090        5.6748343976      -33.0799608768  IONS      84             -1.0000000000
        85        85  CLA       CLA            25.7681024198        1.1805413032      -12.3306075589  IONS      85             -1.0000000000
        86        86  CLA       CLA             7.3826437006      -39.3122458443       11.5037798102  IONS      86             -1.0000000000
        87        87  CLA       CLA            40.4547061164        4.2054321028        3.2957969110  IONS      87             -1.0000000000
        88        88  CLA       CLA           -21.2931436881      -18.2534019378      -28.6758848647  IONS      88             -1.0000000000
        89        89  CLA       CLA           -14.4150167376      -26.8629129190      -23.6181217033  IONS      89             -1.0000000000
        90        90  CLA       CLA            16.8716989697       16.2334656156      -31.8199346090  IONS      90             -1.0000000000
        91        91  CLA       CLA           -32.2698002809       -7.9943715988       29.1703727798  IONS      91             -1.0000000000
        92        92  CLA       CLA            19.6147410686       12.4020015138       -7.8072755378  IONS      92             -1.0000000000
        93        93  CLA       CLA           -30.2082557736       12.1035196858      -17.7895696004  IONS      93             -1.0000000000
        94        94  CLA       CLA            29.5669475076       16.6059786513       20.6378489041  IONS      94             -1.0000000000
        95        95  CLA       CLA           -21.9251648779       -6.0226678801      -36.6904332365  IONS      95             -1.0000000000
        96        96  CLA       CLA             1.1334268255        0.3073609601        8.8852650727  IONS      96             -1.0000000000
        97        97  CLA       CLA           -39.3595288028       -9.1951354340       -0.4675944321  IONS      97             -1.0000000000
        98        98  CLA       CLA            12.9495448944      -16.8656042071        7.6974126516  IONS      98             -1.0000000000
        99        99  CLA       CLA             7.1274777484       36.4301990413       20.5891345143  IONS      99             -1.0000000000
       100       100  CLA       CLA            15.6159464229       22.6475482144       -0.4355627751  IONS      100            -1.0000000000
