Generated by CHARMM-GUI FF-Converter
44389
    1GLY      N    1   2.127   4.005   4.805
    1GLY    HT1    2   2.036   3.998   4.754
    1GLY    HT2    3   2.160   4.105   4.799
    1GLY    HT3    4   2.113   3.982   4.906
    1GLY     CA    5   2.226   3.920   4.742
    1GLY    HA1    6   2.226   3.938   4.636
    1GLY    HA2    7   2.198   3.820   4.770
    1GLY      C    8   2.367   3.944   4.794
    1GLY      O    9   2.392   4.042   4.864
    2PRO      N   10   2.476   3.864   4.759
    2PRO     CD   11   2.448   3.736   4.718
    2PRO    HD1   12   2.423   3.739   4.609
    2PRO    HD2   13   2.367   3.687   4.776
    2PRO     CA   14   2.613   3.889   4.801
    2PRO     HA   15   2.612   3.909   4.908
    2PRO     CB   16   2.686   3.759   4.766
    2PRO    HB1   17   2.754   3.727   4.847
    2PRO    HB2   18   2.746   3.770   4.672
    2PRO     CG   19   2.576   3.661   4.740
    2PRO    HG1   20   2.603   3.594   4.654
    2PRO    HG2   21   2.565   3.596   4.830
    2PRO      C   22   2.677   4.008   4.730
    2PRO      O   23   2.632   4.046   4.621
    3GLY      N   24   2.771   4.071   4.809
    3GLY     HN   25   2.800   4.030   4.894
    3GLY     CA   26   2.845   4.181   4.750
    3GLY    HA1   27   2.918   4.213   4.823
    3GLY    HA2   28   2.775   4.259   4.722
    3GLY      C   29   2.922   4.141   4.625
    3GLY      O   30   2.937   4.022   4.596
    4ASP      N   31   2.960   4.242   4.549
    4ASP     HN   32   2.933   4.336   4.564
    4ASP     CA   33   3.048   4.216   4.436
    4ASP     HA   34   2.994   4.145   4.377
    4ASP     CB   35   3.070   4.344   4.355
    4ASP    HB1   36   3.152   4.334   4.280
    4ASP    HB2   37   3.099   4.427   4.423
    4ASP     CG   38   2.946   4.388   4.279
    4ASP    OD1   39   2.856   4.304   4.255
    4ASP    OD2   40   2.938   4.507   4.242
    4ASP      C   41   3.183   4.160   4.483
    4ASP      O   42   3.231   4.195   4.591
    5PRO      N   43   3.243   4.086   4.412
    5PRO     CD   44   3.197   4.044   4.291
    5PRO    HD1   45   3.196   4.129   4.219
    5PRO    HD2   46   3.096   3.995   4.296
    5PRO     CA   47   3.379   4.046   4.446
    5PRO     HA   48   3.376   3.991   4.539
    5PRO     CB   49   3.422   3.960   4.327
    5PRO    HB1   50   3.464   3.862   4.362
    5PRO    HB2   51   3.499   4.010   4.265
    5PRO     CG   52   3.297   3.942   4.246
    5PRO    HG1   53   3.317   3.949   4.137
    5PRO    HG2   54   3.256   3.840   4.267
    5PRO      C   55   3.473   4.165   4.464
    5PRO      O   56   3.449   4.272   4.408
    6GLY      N   57   3.567   4.132   4.558
    6GLY     HN   58   3.581   4.040   4.593
    6GLY     CA   59   3.669   4.234   4.578
    6GLY    HA1   60   3.740   4.194   4.649
    6GLY    HA2   61   3.622   4.325   4.611
    6GLY      C   62   3.747   4.266   4.451
    6GLY      O   63   3.738   4.193   4.352
    7SER      N   64   3.826   4.363   4.474
    7SER     HN   65   3.830   4.416   4.558
    7SER     CA   66   3.915   4.396   4.364
    7SER     HA   67   3.861   4.394   4.270
    7SER     CB   68   3.971   4.538   4.382
    7SER    HB1   69   4.041   4.565   4.298
    7SER    HB2   70   4.030   4.543   4.476
    7SER     OG   71   3.867   4.633   4.388
    7SER    HG1   72   3.839   4.644   4.296
    7SER      C   73   4.030   4.296   4.353
    7SER      O   74   4.064   4.229   4.450
    8GLY      N   75   4.085   4.289   4.230
    8GLY     HN   76   4.056   4.343   4.151
    8GLY     CA   77   4.199   4.200   4.215
    8GLY    HA1   78   4.221   4.196   4.109
    8GLY    HA2   79   4.173   4.102   4.255
    8GLY      C   80   4.324   4.250   4.284
    8GLY      O   81   4.330   4.365   4.328
    9ASN      N   82   4.417   4.162   4.294
    9ASN     HN   83   4.405   4.071   4.255
    9ASN     CA   84   4.549   4.198   4.346
    9ASN     HA   85   4.524   4.242   4.441
    9ASN     CB   86   4.635   4.073   4.364
    9ASN    HB1   87   4.710   4.060   4.284
    9ASN    HB2   88   4.567   3.984   4.359
    9ASN     CG   89   4.699   4.066   4.501
    9ASN    OD1   90   4.643   4.114   4.600
    9ASN    ND2   91   4.817   4.006   4.509
    9ASN   HD21   92   4.854   3.991   4.600
    9ASN   HD22   93   4.858   3.970   4.425
    9ASN      C   94   4.619   4.298   4.255
    9ASN      O   95   4.602   4.295   4.133
   10PRO      N   96   4.698   4.377   4.319
   10PRO     CD   97   4.717   4.393   4.454
   10PRO    HD1   98   4.779   4.310   4.493
   10PRO    HD2   99   4.621   4.402   4.510
   10PRO     CA  100   4.779   4.464   4.233
   10PRO     HA  101   4.713   4.521   4.169
   10PRO     CB  102   4.856   4.551   4.332
   10PRO    HB1  103   4.845   4.658   4.304
   10PRO    HB2  104   4.965   4.526   4.334
   10PRO     CG  105   4.795   4.521   4.465
   10PRO    HG1  106   4.871   4.515   4.545
   10PRO    HG2  107   4.725   4.604   4.492
   10PRO      C  108   4.874   4.385   4.143
   10PRO      O  109   4.907   4.270   4.173
   11GLY      N  110   4.903   4.441   4.023
   11GLY     HN  111   4.867   4.531   3.999
   11GLY     CA  112   4.996   4.376   3.931
   11GLY    HA1  113   5.006   4.440   3.845
   11GLY    HA2  114   4.957   4.278   3.908
   11GLY      C  115   5.134   4.359   3.990
   11GLY      O  116   5.164   4.412   4.097
   12SER      N  117   5.216   4.295   3.923
   12SER     HN  118   5.190   4.246   3.840
   12SER     CA  119   5.356   4.279   3.961
   12SER     HA  120   5.362   4.261   4.067
   12SER     CB  121   5.418   4.160   3.888
   12SER    HB1  122   5.524   4.143   3.917
   12SER    HB2  123   5.418   4.181   3.778
   12SER     OG  124   5.342   4.043   3.908
   12SER    HG1  125   5.379   3.997   3.986
   12SER      C  126   5.436   4.406   3.930
   12SER      O  127   5.402   4.480   3.838
   13GLY      N  128   5.533   4.437   4.008
   13GLY     HN  129   5.554   4.379   4.086
   13GLY     CA  130   5.623   4.548   3.982
   13GLY    HA1  131   5.693   4.553   4.064
   13GLY    HA2  132   5.564   4.638   3.971
   13GLY      C  133   5.705   4.529   3.856
   13GLY      O  134   5.714   4.419   3.802
   14ASP      N  135   5.754   4.610   3.800
   14ASP     HN  136   5.742   4.702   3.834
   14ASP     CA  137   5.842   4.612   3.683
   14ASP     HA  138   5.788   4.561   3.605
   14ASP     CB  139   5.866   4.756   3.637
   14ASP    HB1  140   5.945   4.758   3.558
   14ASP    HB2  141   5.901   4.819   3.721
   14ASP     CG  142   5.744   4.820   3.574
   14ASP    OD1  143   5.652   4.747   3.531
   14ASP    OD2  144   5.738   4.944   3.569
   14ASP      C  145   5.975   4.543   3.713
   14ASP      O  146   6.024   4.549   3.826
   15PRO      N  147   6.018   4.432   3.626
   15PRO     CD  148   5.945   4.398   3.510
   15PRO    HD1  149   5.956   4.480   3.435
   15PRO    HD2  150   5.837   4.378   3.533
   15PRO     CA  151   6.143   4.359   3.645
   15PRO     HA  152   6.138   4.306   3.739
   15PRO     CB  153   6.150   4.268   3.522
   15PRO    HB1  154   6.185   4.167   3.549
   15PRO    HB2  155   6.221   4.311   3.447
   15PRO     CG  156   6.012   4.272   3.464
   15PRO    HG1  157   6.013   4.262   3.353
   15PRO    HG2  158   5.956   4.186   3.508
   15PRO      C  159   6.265   4.451   3.652
   15PRO    OT1  160   6.246   4.575   3.641
   15PRO    OT2  161   6.378   4.398   3.668
   16SOD    SOD  162   0.501   3.527   4.334
   17SOD    SOD  163   4.799   1.650   0.886
   18SOD    SOD  164   5.405   4.614   0.512
   19SOD    SOD  165   5.316   5.723   4.936
   20SOD    SOD  166   6.960   7.315   3.845
   21SOD    SOD  167   6.871   4.262   4.097
   22SOD    SOD  168   5.494   1.796   6.822
   23SOD    SOD  169   7.094   6.785   4.943
   24SOD    SOD  170   1.890   5.629   7.015
   25SOD    SOD  171   4.845   0.823   7.406
   26SOD    SOD  172   5.829   6.492   3.789
   27SOD    SOD  173   4.041   3.855   6.777
   28SOD    SOD  174   1.223   2.680   4.672
   29SOD    SOD  175   2.965   3.879   7.887
   30SOD    SOD  176   5.927   7.932   3.383
   31SOD    SOD  177  -0.622   3.195   3.206
   32SOD    SOD  178   3.077   1.067   6.672
   33SOD    SOD  179   0.981   5.310   3.740
   34SOD    SOD  180   1.983   0.944   5.008
   35SOD    SOD  181   2.714   8.404   5.994
   36SOD    SOD  182   2.612   2.743   4.270
   37SOD    SOD  183   2.643   8.306   4.663
   38SOD    SOD  184   2.589   1.957   1.160
   39SOD    SOD  185   6.183   5.395   7.738
   40SOD    SOD  186   4.773   7.566   3.090
   41SOD    SOD  187   8.804   5.350   5.599
   42SOD    SOD  188   3.840   6.827   7.949
   43SOD    SOD  189   4.638   0.211   4.872
   44SOD    SOD  190   5.628   2.323   3.289
   45SOD    SOD  191   8.662   5.518   5.246
   46SOD    SOD  192   4.739   0.274   3.095
   47SOD    SOD  193   7.086   2.325   4.233
   48SOD    SOD  194   6.177   0.390   4.097
   49SOD    SOD  195   3.226   4.482   5.162
   50SOD    SOD  196   0.075   2.247   4.079
   51SOD    SOD  197   2.320   1.773   1.900
   52SOD    SOD  198   2.658  -0.096   5.184
   53SOD    SOD  199   8.349   5.292   4.047
   54SOD    SOD  200   4.736   2.517   5.298
   55SOD    SOD  201   5.026   6.172   0.838
   56SOD    SOD  202   2.522   1.612   7.378
   57SOD    SOD  203   4.023   5.835   3.357
   58SOD    SOD  204   6.257   7.410   2.490
   59SOD    SOD  205   7.435   6.154   5.604
   60CLA    CLA  206   0.396   1.609   4.899
   61CLA    CLA  207   7.852   4.833   2.294
   62CLA    CLA  208   4.514   0.863   7.757
   63CLA    CLA  209   0.831   5.601   3.816
   64CLA    CLA  210   1.001   1.420   5.899
   65CLA    CLA  211   4.762   0.121   5.073
   66CLA    CLA  212   5.845   3.423   8.428
   67CLA    CLA  213   2.637   1.021   7.427
   68CLA    CLA  214   4.584   6.848   4.495
   69CLA    CLA  215   5.296   1.329   0.580
   70CLA    CLA  216   4.331   6.963   3.439
   71CLA    CLA  217   4.330   0.219   3.512
   72CLA    CLA  218   3.182   5.069   0.538
   73CLA    CLA  219   3.685   1.319   4.062
   74CLA    CLA  220   6.552   7.544   3.751
   75CLA    CLA  221   0.554   3.177   4.523
   76CLA    CLA  222   3.726   1.615   3.174
   77CLA    CLA  223   4.352   4.463   7.464
   78CLA    CLA  224   3.951   5.104   4.379
   79CLA    CLA  225   1.729   1.590   6.885
   80CLA    CLA  226   3.216   2.985   1.386
   81CLA    CLA  227   8.780   5.710   5.116
   82CLA    CLA  228   6.763   7.448   4.371
   83CLA    CLA  229   6.833   6.396   4.398
   84CLA    CLA  230   5.386   2.590   3.036
   85CLA    CLA  231   2.148   7.423   5.467
   86CLA    CLA  232   0.718   2.048   7.185
   87CLA    CLA  233   1.136   6.302   6.745
   88CLA    CLA  234   2.278   5.459   6.557
   89CLA    CLA  235   5.564   0.396   4.920
   90CLA    CLA  236   0.144   4.751   2.290
   91CLA    CLA  237   3.089   0.453   2.471
   92CLA    CLA  238   6.262   5.093   5.494
   93CLA    CLA  239   3.330   4.139   5.484
   94CLA    CLA  240   3.793   7.602   7.065
   95CLA    CLA  241   8.346   4.649   3.767
   96CLA    CLA  242   3.138   5.444   1.601
   97CLA    CLA  243   8.283   5.753   3.569
   98CLA    CLA  244   2.466   1.384   4.774
   99CLA    CLA  245   6.892   0.294   3.356
  100CLA    CLA  246   3.907   5.239   8.139
  101CLA    CLA  247   5.306   2.930   1.061
  102TIP3   OH2  248   3.280   0.380   2.243
  102TIP3    H1  249   3.269   0.285   2.257
  102TIP3    H2  250   3.222   0.414   2.317
  103TIP3   OH2  251   2.951   0.753   2.350
  103TIP3    H1  252   2.987   0.744   2.261
  103TIP3    H2  253   3.021   0.709   2.403
  104TIP3   OH2  254   3.275   0.054   2.260
  104TIP3    H1  255   3.182   0.082   2.264
  104TIP3    H2  256   3.278   0.026   2.167
  105TIP3   OH2  257   2.732   0.266   2.509
  105TIP3    H1  258   2.716   0.213   2.590
  105TIP3    H2  259   2.819   0.306   2.528
  106TIP3   OH2  260   3.082   0.499   2.032
  106TIP3    H1  261   3.082   0.429   1.965
  106TIP3    H2  262   3.145   0.463   2.097
  107TIP3   OH2  263   3.151   0.172   2.586
  107TIP3    H1  264   3.080   0.181   2.653
  107TIP3    H2  265   3.143   0.260   2.544
  108TIP3   OH2  266   3.188  -0.161   2.419
  108TIP3    H1  267   3.253  -0.234   2.406
  108TIP3    H2  268   3.218  -0.096   2.353
  109TIP3   OH2  269   3.367  -0.364   2.416
  109TIP3    H1  270   3.338  -0.444   2.465
  109TIP3    H2  271   3.463  -0.363   2.436
  110TIP3   OH2  272   2.573   0.649   2.274
  110TIP3    H1  273   2.590   0.554   2.276
  110TIP3    H2  274   2.620   0.680   2.354
  111TIP3   OH2  275   4.232  -0.174   1.485
  111TIP3    H1  276   4.277  -0.195   1.570
  111TIP3    H2  277   4.194  -0.261   1.464
  112TIP3   OH2  278   4.502   0.131   1.199
  112TIP3    H1  279   4.526   0.073   1.273
  112TIP3    H2  280   4.538   0.216   1.233
  113TIP3   OH2  281   4.185   0.591   1.180
  113TIP3    H1  282   4.231   0.520   1.132
  113TIP3    H2  283   4.180   0.557   1.270
  114TIP3   OH2  284   4.096   0.065   1.533
  114TIP3    H1  285   4.128  -0.022   1.501
  114TIP3    H2  286   4.183   0.104   1.555
  115TIP3   OH2  287   3.940  -0.033   1.742
  115TIP3    H1  288   3.884   0.031   1.790
  115TIP3    H2  289   3.994   0.026   1.685
  116TIP3   OH2  290   3.770   0.160   1.839
  116TIP3    H1  291   3.754   0.254   1.814
  116TIP3    H2  292   3.697   0.149   1.905
  117TIP3   OH2  293   4.605   0.367   1.325
  117TIP3    H1  294   4.518   0.364   1.370
  117TIP3    H2  295   4.601   0.455   1.281
  118TIP3   OH2  296   4.287   0.402   1.001
  118TIP3    H1  297   4.340   0.321   0.985
  118TIP3    H2  298   4.340   0.468   0.952
  119TIP3   OH2  299   4.831   0.313   1.706
  119TIP3    H1  300   4.826   0.233   1.649
  119TIP3    H2  301   4.813   0.384   1.642
  120TIP3   OH2  302   4.724  -0.213   1.848
  120TIP3    H1  303   4.702  -0.129   1.892
  120TIP3    H2  304   4.671  -0.208   1.767
  121TIP3   OH2  305   3.886   0.216   1.425
  121TIP3    H1  306   3.823   0.147   1.453
  121TIP3    H2  307   3.971   0.177   1.456
  122TIP3   OH2  308   4.369   0.363   1.452
  122TIP3    H1  309   4.355   0.445   1.503
  122TIP3    H2  310   4.348   0.293   1.518
  123TIP3   OH2  311   3.978   0.276   1.997
  123TIP3    H1  312   3.920   0.338   2.047
  123TIP3    H2  313   3.911   0.227   1.946
  124TIP3   OH2  314   3.722  -0.148   2.081
  124TIP3    H1  315   3.738  -0.069   2.137
  124TIP3    H2  316   3.628  -0.161   2.095
  125TIP3   OH2  317   4.092   0.240   1.119
  125TIP3    H1  318   4.169   0.297   1.104
  125TIP3    H2  319   4.025   0.302   1.151
  126TIP3   OH2  320   3.776   0.440   2.092
  126TIP3    H1  321   3.739   0.447   2.001
  126TIP3    H2  322   3.695   0.419   2.144
  127TIP3   OH2  323   5.065   0.625   1.720
  127TIP3    H1  324   5.069   0.531   1.743
  127TIP3    H2  325   4.984   0.652   1.769
  128TIP3   OH2  326   4.173   0.410   1.856
  128TIP3    H1  327   4.170   0.502   1.889
  128TIP3    H2  328   4.102   0.369   1.910
  129TIP3   OH2  329   4.961  -0.263   1.990
  129TIP3    H1  330   4.879  -0.238   1.943
  129TIP3    H2  331   4.964  -0.358   1.973
  130TIP3   OH2  332   3.575   0.165   2.026
  130TIP3    H1  333   3.615   0.154   2.114
  130TIP3    H2  334   3.488   0.125   2.035
  131TIP3   OH2  335   4.722  -0.475   1.936
  131TIP3    H1  336   4.697  -0.444   2.024
  131TIP3    H2  337   4.715  -0.391   1.885
  132TIP3   OH2  338   4.445  -0.221   2.133
  132TIP3    H1  339   4.418  -0.303   2.181
  132TIP3    H2  340   4.539  -0.215   2.160
  133TIP3   OH2  341   4.397  -0.252   1.704
  133TIP3    H1  342   4.474  -0.296   1.661
  133TIP3    H2  343   4.393  -0.303   1.787
  134TIP3   OH2  344   4.767   0.973   1.824
  134TIP3    H1  345   4.765   1.001   1.731
  134TIP3    H2  346   4.847   1.020   1.856
  135TIP3   OH2  347   3.725   0.076   2.249
  135TIP3    H1  348   3.804   0.109   2.297
  135TIP3    H2  349   3.658   0.081   2.319
  136TIP3   OH2  350   4.152  -0.591   1.855
  136TIP3    H1  351   4.102  -0.565   1.775
  136TIP3    H2  352   4.217  -0.519   1.862
  137TIP3   OH2  353   4.804   0.107   1.535
  137TIP3    H1  354   4.847   0.158   1.461
  137TIP3    H2  355   4.713   0.095   1.503
  138TIP3   OH2  356   4.290   0.148   1.879
  138TIP3    H1  357   4.319   0.123   1.968
  138TIP3    H2  358   4.254   0.238   1.893
  139TIP3   OH2  359   4.198  -0.111   2.192
  139TIP3    H1  360   4.142  -0.159   2.129
  139TIP3    H2  361   4.287  -0.139   2.163
  140TIP3   OH2  362   4.449   0.401   1.776
  140TIP3    H1  363   4.353   0.403   1.792
  140TIP3    H2  364   4.481   0.454   1.852
  141TIP3   OH2  365   5.088   0.344   1.778
  141TIP3    H1  366   4.990   0.339   1.771
  141TIP3    H2  367   5.116   0.315   1.688
  142TIP3   OH2  368   4.570  -0.004   1.443
  142TIP3    H1  369   4.487  -0.031   1.483
  142TIP3    H2  370   4.614  -0.089   1.429
  143TIP3   OH2  371   3.963   0.502   1.649
  143TIP3    H1  372   4.008   0.573   1.599
  143TIP3    H2  373   4.038   0.464   1.699
  144TIP3   OH2  374   4.349   0.130   1.616
  144TIP3    H1  375   4.323   0.128   1.712
  144TIP3    H2  376   4.445   0.123   1.625
  145TIP3   OH2  377   4.593   0.659   1.657
  145TIP3    H1  378   4.511   0.605   1.653
  145TIP3    H2  379   4.576   0.725   1.586
  146TIP3   OH2  380   3.438   0.384   1.798
  146TIP3    H1  381   3.461   0.297   1.832
  146TIP3    H2  382   3.428   0.436   1.879
  147TIP3   OH2  383   4.381  -0.414   1.927
  147TIP3    H1  384   4.366  -0.344   1.993
  147TIP3    H2  385   4.415  -0.484   1.986
  148TIP3   OH2  386   4.616   0.635   1.251
  148TIP3    H1  387   4.573   0.682   1.176
  148TIP3    H2  388   4.710   0.660   1.234
  149TIP3   OH2  389   3.390   0.680   2.226
  149TIP3    H1  390   3.473   0.681   2.278
  149TIP3    H2  391   3.360   0.588   2.239
  150TIP3   OH2  392   3.865   0.627   2.278
  150TIP3    H1  393   3.961   0.610   2.283
  150TIP3    H2  394   3.839   0.563   2.209
  151TIP3   OH2  395   4.511   0.534   2.006
  151TIP3    H1  396   4.502   0.468   2.078
  151TIP3    H2  397   4.585   0.589   2.039
  152TIP3   OH2  398   3.513   0.068   2.425
  152TIP3    H1  399   3.525  -0.028   2.440
  152TIP3    H2  400   3.424   0.072   2.386
  153TIP3   OH2  401   4.127   0.163   2.205
  153TIP3    H1  402   4.083   0.181   2.120
  153TIP3    H2  403   4.155   0.070   2.196
  154TIP3   OH2  404   4.611   0.174   1.805
  154TIP3    H1  405   4.688   0.229   1.780
  154TIP3    H2  406   4.540   0.242   1.801
  155TIP3   OH2  407   3.639  -0.206   2.425
  155TIP3    H1  408   3.726  -0.234   2.393
  155TIP3    H2  409   3.665  -0.160   2.508
  156TIP3   OH2  410   3.961  -0.281   2.070
  156TIP3    H1  411   3.878  -0.229   2.066
  156TIP3    H2  412   4.012  -0.246   1.993
  157TIP3   OH2  413   4.492   0.096   2.208
  157TIP3    H1  414   4.564   0.057   2.157
  157TIP3    H2  415   4.479   0.029   2.278
  158TIP3   OH2  416   4.057  -0.495   2.195
  158TIP3    H1  417   4.003  -0.541   2.129
  158TIP3    H2  418   4.036  -0.403   2.165
  159TIP3   OH2  419   4.131  -0.176   1.890
  159TIP3    H1  420   4.194  -0.205   1.823
  159TIP3    H2  421   4.070  -0.123   1.836
  160TIP3   OH2  422   4.696  -0.230   2.241
  160TIP3    H1  423   4.729  -0.287   2.316
  160TIP3    H2  424   4.776  -0.179   2.219
  161TIP3   OH2  425   4.747   0.035   1.996
  161TIP3    H1  426   4.690   0.086   1.935
  161TIP3    H2  427   4.835   0.050   1.956
  162TIP3   OH2  428   3.936  -0.373   2.429
  162TIP3    H1  429   3.899  -0.451   2.471
  162TIP3    H2  430   3.996  -0.411   2.363
  163TIP3   OH2  431   4.340  -0.450   2.226
  163TIP3    H1  432   4.370  -0.483   2.313
  163TIP3    H2  433   4.243  -0.463   2.234
  164TIP3   OH2  434   4.867   0.738   1.231
  164TIP3    H1  435   4.900   0.769   1.317
  164TIP3    H2  436   4.937   0.769   1.170
  165TIP3   OH2  437   4.902   0.750   1.508
  165TIP3    H1  438   4.857   0.664   1.499
  165TIP3    H2  439   4.976   0.724   1.566
  166TIP3   OH2  440   4.947   0.423   2.072
  166TIP3    H1  441   4.873   0.435   2.135
  166TIP3    H2  442   4.988   0.511   2.073
  167TIP3   OH2  443   4.960   0.226   1.351
  167TIP3    H1  444   5.023   0.182   1.290
  167TIP3    H2  445   4.945   0.309   1.300
  168TIP3   OH2  446   4.770   0.501   1.514
  168TIP3    H1  447   4.699   0.547   1.562
  168TIP3    H2  448   4.721   0.455   1.443
  169TIP3   OH2  449   5.004   0.080   1.892
  169TIP3    H1  450   5.076   0.014   1.883
  169TIP3    H2  451   5.032   0.149   1.830
  170TIP3   OH2  452   5.189  -0.131   1.920
  170TIP3    H1  453   5.113  -0.184   1.952
  170TIP3    H2  454   5.263  -0.192   1.931
  171TIP3   OH2  455   3.560  -0.586   2.491
  171TIP3    H1  456   3.627  -0.601   2.422
  171TIP3    H2  457   3.606  -0.614   2.572
  172TIP3   OH2  458   4.441   0.587   0.875
  172TIP3    H1  459   4.514   0.534   0.836
  172TIP3    H2  460   4.491   0.662   0.910
  173TIP3   OH2  461   3.555   0.391   2.253
  173TIP3    H1  462   3.459   0.383   2.237
  173TIP3    H2  463   3.558   0.394   2.349
  174TIP3   OH2  464   3.744   0.428   1.802
  174TIP3    H1  465   3.678   0.492   1.767
  174TIP3    H2  466   3.823   0.461   1.754
  175TIP3   OH2  467   4.173   0.675   1.934
  175TIP3    H1  468   4.213   0.673   2.023
  175TIP3    H2  469   4.238   0.729   1.885
  176TIP3   OH2  470   4.354   0.831   1.799
  176TIP3    H1  471   4.427   0.779   1.762
  176TIP3    H2  472   4.404   0.889   1.861
  177TIP3   OH2  473   3.422   0.705   1.824
  177TIP3    H1  474   3.326   0.722   1.808
  177TIP3    H2  475   3.431   0.745   1.912
  178TIP3   OH2  476   3.651   0.666   1.684
  178TIP3    H1  477   3.565   0.678   1.732
  178TIP3    H2  478   3.628   0.699   1.595
  179TIP3   OH2  479   4.073   0.695   1.478
  179TIP3    H1  480   3.998   0.714   1.417
  179TIP3    H2  481   4.082   0.781   1.524
  180TIP3   OH2  482   4.339   0.630   1.530
  180TIP3    H1  483   4.245   0.651   1.514
  180TIP3    H2  484   4.384   0.706   1.490
  181TIP3   OH2  485   4.544   0.824   1.443
  181TIP3    H1  486   4.530   0.908   1.394
  181TIP3    H2  487   4.571   0.763   1.370
  182TIP3   OH2  488   3.361   0.494   1.560
  182TIP3    H1  489   3.386   0.463   1.650
  182TIP3    H2  490   3.340   0.410   1.516
  183TIP3   OH2  491   3.793   0.476   1.428
  183TIP3    H1  492   3.823   0.384   1.409
  183TIP3    H2  493   3.836   0.489   1.515
  184TIP3   OH2  494   4.820   0.703   1.823
  184TIP3    H1  495   4.742   0.674   1.773
  184TIP3    H2  496   4.803   0.799   1.830
  185TIP3   OH2  497   5.545   0.424   1.308
  185TIP3    H1  498   5.532   0.521   1.298
  185TIP3    H2  499   5.478   0.406   1.377
  186TIP3   OH2  500   5.757   0.526   1.493
  186TIP3    H1  501   5.695   0.595   1.524
  186TIP3    H2  502   5.696   0.465   1.448
  187TIP3   OH2  503   5.561   0.712   1.573
  187TIP3    H1  504   5.527   0.716   1.482
  187TIP3    H2  505   5.480   0.691   1.625
  188TIP3   OH2  506   5.158   0.249   1.537
  188TIP3    H1  507   5.084   0.229   1.476
  188TIP3    H2  508   5.184   0.161   1.570
  189TIP3   OH2  509   4.999   0.434   1.180
  189TIP3    H1  510   5.095   0.443   1.175
  189TIP3    H2  511   4.973   0.520   1.217
  190TIP3   OH2  512   5.931   0.722   1.306
  190TIP3    H1  513   5.954   0.809   1.344
  190TIP3    H2  514   5.948   0.666   1.385
  191TIP3   OH2  515   5.353   0.434   1.501
  191TIP3    H1  516   5.408   0.421   1.582
  191TIP3    H2  517   5.285   0.364   1.515
  192TIP3   OH2  518   6.541   1.240   1.330
  192TIP3    H1  519   6.518   1.246   1.235
  192TIP3    H2  520   6.630   1.276   1.331
  193TIP3   OH2  521   5.496   0.381   1.731
  193TIP3    H1  522   5.586   0.377   1.766
  193TIP3    H2  523   5.443   0.363   1.811
  194TIP3   OH2  524   5.232   0.034   1.681
  194TIP3    H1  525   5.296   0.054   1.752
  194TIP3    H2  526   5.219  -0.061   1.693
  195TIP3   OH2  527   5.723   0.788   1.150
  195TIP3    H1  528   5.755   0.846   1.078
  195TIP3    H2  529   5.803   0.779   1.205
  196TIP3   OH2  530   5.208   0.605   1.308
  196TIP3    H1  531   5.257   0.546   1.369
  196TIP3    H2  532   5.228   0.691   1.348
  197TIP3   OH2  533   5.187   0.932   1.721
  197TIP3    H1  534   5.274   0.935   1.767
  197TIP3    H2  535   5.174   0.836   1.716
  198TIP3   OH2  536   5.660   0.878   1.770
  198TIP3    H1  537   5.756   0.870   1.765
  198TIP3    H2  538   5.632   0.821   1.696
  199TIP3   OH2  539   6.269   0.826   1.517
  199TIP3    H1  540   6.270   0.740   1.564
  199TIP3    H2  541   6.358   0.860   1.531
  200TIP3   OH2  542   5.309   0.344   1.936
  200TIP3    H1  543   5.331   0.249   1.930
  200TIP3    H2  544   5.224   0.347   1.886
  201TIP3   OH2  545   5.910   0.420   1.711
  201TIP3    H1  546   5.901   0.462   1.623
  201TIP3    H2  547   5.914   0.327   1.686
  202TIP3   OH2  548   5.400   0.090   1.911
  202TIP3    H1  549   5.420  -0.006   1.903
  202TIP3    H2  550   5.451   0.113   1.992
  203TIP3   OH2  551   4.742   0.721   0.786
  203TIP3    H1  552   4.734   0.668   0.706
  203TIP3    H2  553   4.781   0.655   0.852
  204TIP3   OH2  554   4.884   0.582   0.966
  204TIP3    H1  555   4.904   0.490   0.991
  204TIP3    H2  556   4.952   0.630   1.017
  205TIP3   OH2  557   5.341   0.671   1.737
  205TIP3    H1  558   5.252   0.634   1.721
  205TIP3    H2  559   5.362   0.637   1.825
  206TIP3   OH2  560   5.517   0.695   1.294
  206TIP3    H1  561   5.469   0.771   1.254
  206TIP3    H2  562   5.603   0.716   1.250
  207TIP3   OH2  563   5.964   0.959   1.439
  207TIP3    H1  564   6.008   0.951   1.526
  207TIP3    H2  565   6.030   1.012   1.389
  208TIP3   OH2  566   6.129   1.112   1.284
  208TIP3    H1  567   6.201   1.065   1.236
  208TIP3    H2  568   6.183   1.163   1.349
  209TIP3   OH2  569   5.194   0.935   1.323
  209TIP3    H1  570   5.106   0.973   1.300
  209TIP3    H2  571   5.219   0.994   1.396
  210TIP3   OH2  572   5.430   0.925   1.180
  210TIP3    H1  573   5.341   0.938   1.218
  210TIP3    H2  574   5.418   0.959   1.089
  211TIP3   OH2  575   5.825   0.947   0.950
  211TIP3    H1  576   5.768   1.002   0.896
  211TIP3    H2  577   5.871   1.015   1.005
  212TIP3   OH2  578   5.102   0.731   1.077
  212TIP3    H1  579   5.152   0.704   1.156
  212TIP3    H2  580   5.164   0.708   1.005
  213TIP3   OH2  581   0.825   2.246   2.481
  213TIP3    H1  582   0.792   2.293   2.403
  213TIP3    H2  583   0.896   2.305   2.511
  214TIP3   OH2  584   1.024   1.722   2.758
  214TIP3    H1  585   0.973   1.719   2.842
  214TIP3    H2  586   1.063   1.812   2.764
  215TIP3   OH2  587   2.357   1.683   1.355
  215TIP3    H1  588   2.345   1.654   1.448
  215TIP3    H2  589   2.385   1.776   1.373
  216TIP3   OH2  590   2.004   2.089   1.342
  216TIP3    H1  591   2.096   2.073   1.320
  216TIP3    H2  592   2.011   2.135   1.428
  217TIP3   OH2  593   2.992   0.953   1.711
  217TIP3    H1  594   3.004   1.034   1.763
  217TIP3    H2  595   3.024   0.980   1.623
  218TIP3   OH2  596   3.038   1.172   1.865
  218TIP3    H1  597   2.948   1.208   1.852
  218TIP3    H2  598   3.054   1.193   1.959
  219TIP3   OH2  599   2.436   1.924   1.458
  219TIP3    H1  600   2.354   1.924   1.513
  219TIP3    H2  601   2.441   2.020   1.433
  220TIP3   OH2  602   2.680   1.849   1.828
  220TIP3    H1  603   2.684   1.775   1.763
  220TIP3    H2  604   2.664   1.925   1.768
  221TIP3   OH2  605   2.872   1.471   1.672
  221TIP3    H1  606   2.792   1.528   1.680
  221TIP3    H2  607   2.903   1.499   1.584
  222TIP3   OH2  608   2.571   1.349   1.979
  222TIP3    H1  609   2.568   1.420   2.047
  222TIP3    H2  610   2.480   1.354   1.941
  223TIP3   OH2  611   2.212   1.923   1.605
  223TIP3    H1  612   2.195   2.016   1.635
  223TIP3    H2  613   2.162   1.872   1.670
  224TIP3   OH2  614   1.809   1.829   2.151
  224TIP3    H1  615   1.773   1.899   2.210
  224TIP3    H2  616   1.725   1.798   2.114
  225TIP3   OH2  617   1.619   2.009   2.246
  225TIP3    H1  618   1.598   2.006   2.151
  225TIP3    H2  619   1.532   1.991   2.286
  226TIP3   OH2  620   2.914   2.181   1.879
  226TIP3    H1  621   2.914   2.087   1.903
  226TIP3    H2  622   2.830   2.211   1.922
  227TIP3   OH2  623   2.004   1.970   2.014
  227TIP3    H1  624   2.000   2.061   2.052
  227TIP3    H2  625   1.929   1.928   2.061
  228TIP3   OH2  626   2.803   1.306   2.146
  228TIP3    H1  627   2.725   1.306   2.089
  228TIP3    H2  628   2.825   1.210   2.145
  229TIP3   OH2  629   2.568   1.081   2.061
  229TIP3    H1  630   2.518   1.071   2.145
  229TIP3    H2  631   2.549   1.172   2.035
  230TIP3   OH2  632   2.281   1.314   2.315
  230TIP3    H1  633   2.264   1.236   2.373
  230TIP3    H2  634   2.377   1.327   2.333
  231TIP3   OH2  635   2.314   1.322   1.896
  231TIP3    H1  636   2.317   1.254   1.826
  231TIP3    H2  637   2.264   1.273   1.965
  232TIP3   OH2  638   2.608   2.531   1.974
  232TIP3    H1  639   2.605   2.560   1.880
  232TIP3    H2  640   2.688   2.579   2.005
  233TIP3   OH2  641   1.592   1.643   2.391
  233TIP3    H1  642   1.656   1.670   2.460
  233TIP3    H2  643   1.509   1.639   2.440
  234TIP3   OH2  644   2.658   1.643   1.655
  234TIP3    H1  645   2.673   1.681   1.566
  234TIP3    H2  646   2.568   1.606   1.646
  235TIP3   OH2  647   2.151   1.722   2.045
  235TIP3    H1  648   2.156   1.686   2.135
  235TIP3    H2  649   2.090   1.797   2.056
  236TIP3   OH2  650   2.042   1.447   2.335
  236TIP3    H1  651   1.990   1.384   2.284
  236TIP3    H2  652   2.133   1.412   2.321
  237TIP3   OH2  653   2.269   1.995   1.923
  237TIP3    H1  654   2.175   2.008   1.948
  237TIP3    H2  655   2.313   2.041   1.998
  238TIP3   OH2  656   2.930   1.890   1.918
  238TIP3    H1  657   2.832   1.890   1.909
  238TIP3    H2  658   2.955   1.862   1.827
  239TIP3   OH2  659   2.406   1.531   1.641
  239TIP3    H1  660   2.327   1.491   1.600
  239TIP3    H2  661   2.461   1.449   1.645
  240TIP3   OH2  662   1.832   2.050   1.785
  240TIP3    H1  663   1.859   2.129   1.735
  240TIP3    H2  664   1.899   2.046   1.855
  241TIP3   OH2  665   2.177   1.669   1.748
  241TIP3    H1  666   2.118   1.606   1.795
  241TIP3    H2  667   2.225   1.608   1.689
  242TIP3   OH2  668   2.437   2.217   1.802
  242TIP3    H1  669   2.352   2.169   1.799
  242TIP3    H2  670   2.422   2.287   1.734
  243TIP3   OH2  671   2.207   1.168   2.097
  243TIP3    H1  672   2.238   1.221   2.174
  243TIP3    H2  673   2.258   1.086   2.109
  244TIP3   OH2  674   2.836   1.046   2.057
  244TIP3    H1  675   2.738   1.041   2.063
  244TIP3    H2  676   2.851   1.013   1.968
  245TIP3   OH2  677   2.469   2.181   1.400
  245TIP3    H1  678   2.428   2.232   1.326
  245TIP3    H2  679   2.562   2.213   1.391
  246TIP3   OH2  680   1.239   2.247   2.380
  246TIP3    H1  681   1.323   2.251   2.432
  246TIP3    H2  682   1.229   2.151   2.372
  247TIP3   OH2  683   1.706   2.185   2.437
  247TIP3    H1  684   1.802   2.176   2.438
  247TIP3    H2  685   1.681   2.124   2.365
  248TIP3   OH2  686   2.364   2.086   2.158
  248TIP3    H1  687   2.349   2.024   2.234
  248TIP3    H2  688   2.434   2.145   2.194
  249TIP3   OH2  689   1.370   1.631   2.590
  249TIP3    H1  690   1.412   1.543   2.586
  249TIP3    H2  691   1.279   1.606   2.567
  250TIP3   OH2  692   1.966   1.721   2.356
  250TIP3    H1  693   1.911   1.735   2.276
  250TIP3    H2  694   1.994   1.627   2.347
  251TIP3   OH2  695   2.515   1.764   2.022
  251TIP3    H1  696   2.589   1.780   1.958
  251TIP3    H2  697   2.541   1.829   2.091
  252TIP3   OH2  698   1.484   1.383   2.584
  252TIP3    H1  699   1.553   1.330   2.542
  252TIP3    H2  700   1.522   1.403   2.672
  253TIP3   OH2  701   2.336   1.646   2.356
  253TIP3    H1  702   2.432   1.635   2.345
  253TIP3    H2  703   2.320   1.585   2.430
  254TIP3   OH2  704   2.545   1.325   2.413
  254TIP3    H1  705   2.585   1.237   2.429
  254TIP3    H2  706   2.619   1.372   2.372
  255TIP3   OH2  707   2.608   1.550   2.163
  255TIP3    H1  708   2.558   1.618   2.115
  255TIP3    H2  709   2.698   1.566   2.126
  256TIP3   OH2  710   1.827   1.136   2.593
  256TIP3    H1  711   1.753   1.123   2.656
  256TIP3    H2  712   1.818   1.057   2.534
  257TIP3   OH2  713   2.203   1.090   2.458
  257TIP3    H1  714   2.233   1.088   2.551
  257TIP3    H2  715   2.115   1.052   2.465
  258TIP3   OH2  716   2.433   1.052   2.294
  258TIP3    H1  717   2.365   1.041   2.363
  258TIP3    H2  718   2.512   1.015   2.341
  259TIP3   OH2  719   2.650   0.985   2.447
  259TIP3    H1  720   2.672   0.891   2.461
  259TIP3    H2  721   2.658   1.021   2.538
  260TIP3   OH2  722   2.242   0.806   2.647
  260TIP3    H1  723   2.224   0.729   2.588
  260TIP3    H2  724   2.156   0.853   2.650
  261TIP3   OH2  725   2.716   2.278   1.368
  261TIP3    H1  726   2.732   2.324   1.452
  261TIP3    H2  727   2.765   2.336   1.308
  262TIP3   OH2  728   2.732   2.308   1.648
  262TIP3    H1  729   2.706   2.214   1.649
  262TIP3    H2  730   2.816   2.303   1.697
  263TIP3   OH2  731   2.773   1.982   2.212
  263TIP3    H1  732   2.711   1.994   2.287
  263TIP3    H2  733   2.824   2.066   2.217
  264TIP3   OH2  734   2.751   1.751   1.422
  264TIP3    H1  735   2.827   1.690   1.414
  264TIP3    H2  736   2.788   1.833   1.384
  265TIP3   OH2  737   2.612   2.054   1.663
  265TIP3    H1  738   2.546   2.109   1.712
  265TIP3    H2  739   2.560   2.020   1.588
  266TIP3   OH2  740   2.835   1.647   2.041
  266TIP3    H1  741   2.904   1.576   2.033
  266TIP3    H2  742   2.873   1.717   1.985
  267TIP3   OH2  743   3.013   1.446   2.053
  267TIP3    H1  744   2.941   1.392   2.092
  267TIP3    H2  745   3.091   1.390   2.075
  268TIP3   OH2  746   2.749   1.073   1.579
  268TIP3    H1  747   2.820   1.125   1.537
  268TIP3    H2  748   2.741   1.120   1.663
  269TIP3   OH2  749   2.777   1.250   1.805
  269TIP3    H1  750   2.698   1.283   1.852
  269TIP3    H2  751   2.804   1.328   1.753
  270TIP3   OH2  752   3.237   0.863   2.364
  270TIP3    H1  753   3.288   0.788   2.330
  270TIP3    H2  754   3.196   0.899   2.284
  271TIP3   OH2  755   3.099   0.991   2.163
  271TIP3    H1  756   3.015   1.021   2.203
  271TIP3    H2  757   3.065   0.915   2.111
  272TIP3   OH2  758   2.239   2.187   0.999
  272TIP3    H1  759   2.296   2.178   0.920
  272TIP3    H2  760   2.291   2.246   1.056
  273TIP3   OH2  761   1.375   1.963   2.400
  273TIP3    H1  762   1.382   1.872   2.358
  273TIP3    H2  763   1.400   1.944   2.493
  274TIP3   OH2  764   1.605   1.978   1.965
  274TIP3    H1  765   1.509   1.992   1.946
  274TIP3    H2  766   1.647   2.049   1.913
  275TIP3   OH2  767   2.014   2.233   2.084
  275TIP3    H1  768   2.054   2.234   2.174
  275TIP3    H2  769   2.080   2.287   2.035
  276TIP3   OH2  770   2.199   2.385   1.953
  276TIP3    H1  771   2.276   2.349   1.907
  276TIP3    H2  772   2.245   2.446   2.016
  277TIP3   OH2  773   3.003   0.756   2.060
  277TIP3    H1  774   2.907   0.744   2.062
  277TIP3    H2  775   3.036   0.662   2.060
  278TIP3   OH2  776   1.285   2.261   1.982
  278TIP3    H1  777   1.215   2.253   1.915
  278TIP3    H2  778   1.239   2.293   2.061
  279TIP3   OH2  779   1.494   2.235   1.812
  279TIP3    H1  780   1.434   2.246   1.890
  279TIP3    H2  781   1.427   2.229   1.743
  280TIP3   OH2  782   1.921   2.258   1.622
  280TIP3    H1  783   1.843   2.276   1.564
  280TIP3    H2  784   1.929   2.344   1.668
  281TIP3   OH2  785   2.182   2.185   1.670
  281TIP3    H1  786   2.090   2.217   1.662
  281TIP3    H2  787   2.233   2.262   1.638
  282TIP3   OH2  788   2.370   2.374   1.591
  282TIP3    H1  789   2.362   2.465   1.554
  282TIP3    H2  790   2.410   2.327   1.516
  283TIP3   OH2  791   2.724   0.724   2.496
  283TIP3    H1  792   2.753   0.681   2.579
  283TIP3    H2  793   2.809   0.726   2.446
  284TIP3   OH2  794   2.663   2.262   1.971
  284TIP3    H1  795   2.584   2.238   1.918
  284TIP3    H2  796   2.650   2.359   1.978
  285TIP3   OH2  797   3.932   1.633   0.735
  285TIP3    H1  798   3.897   1.723   0.716
  285TIP3    H2  799   3.862   1.579   0.696
  286TIP3   OH2  800   3.931   1.638   1.126
  286TIP3    H1  801   3.969   1.616   1.214
  286TIP3    H2  802   3.895   1.553   1.097
  287TIP3   OH2  803   3.224   1.525   1.495
  287TIP3    H1  804   3.256   1.454   1.555
  287TIP3    H2  805   3.302   1.582   1.492
  288TIP3   OH2  806   4.182   1.936   0.806
  288TIP3    H1  807   4.160   1.874   0.876
  288TIP3    H2  808   4.208   2.016   0.855
  289TIP3   OH2  809   3.201   1.935   1.205
  289TIP3    H1  810   3.198   1.838   1.206
  289TIP3    H2  811   3.298   1.950   1.201
  290TIP3   OH2  812   2.992   1.459   1.182
  290TIP3    H1  813   3.054   1.386   1.208
  290TIP3    H2  814   3.053   1.524   1.142
  291TIP3   OH2  815   3.828   2.401   0.821
  291TIP3    H1  816   3.867   2.328   0.768
  291TIP3    H2  817   3.820   2.359   0.908
  292TIP3   OH2  818   3.728   1.861   1.168
  292TIP3    H1  819   3.773   1.785   1.127
  292TIP3    H2  820   3.809   1.911   1.195
  293TIP3   OH2  821   4.734   1.204   1.140
  293TIP3    H1  822   4.779   1.269   1.199
  293TIP3    H2  823   4.801   1.195   1.067
  294TIP3   OH2  824   4.144   1.358   1.195
  294TIP3    H1  825   4.187   1.274   1.218
  294TIP3    H2  826   4.113   1.339   1.105
  295TIP3   OH2  827   3.483   1.014   1.188
  295TIP3    H1  828   3.456   1.081   1.123
  295TIP3    H2  829   3.422   0.941   1.169
  296TIP3   OH2  830   4.167   1.110   0.779
  296TIP3    H1  831   4.239   1.099   0.847
  296TIP3    H2  832   4.218   1.149   0.706
  297TIP3   OH2  833   3.121   1.230   1.261
  297TIP3    H1  834   3.208   1.212   1.302
  297TIP3    H2  835   3.104   1.146   1.214
  298TIP3   OH2  836   3.565   1.441   1.072
  298TIP3    H1  837   3.660   1.416   1.085
  298TIP3    H2  838   3.526   1.357   1.042
  299TIP3   OH2  839   4.811   1.394   1.330
  299TIP3    H1  840   4.726   1.443   1.323
  299TIP3    H2  841   4.839   1.419   1.419
  300TIP3   OH2  842   3.482   1.016   1.603
  300TIP3    H1  843   3.421   1.062   1.543
  300TIP3    H2  844   3.430   1.019   1.686
  301TIP3   OH2  845   3.801   1.846   0.613
  301TIP3    H1  846   3.799   1.857   0.517
  301TIP3    H2  847   3.766   1.934   0.642
  302TIP3   OH2  848   3.582   1.782   1.389
  302TIP3    H1  849   3.525   1.853   1.425
  302TIP3    H2  850   3.628   1.829   1.316
  303TIP3   OH2  851   4.364   1.124   0.961
  303TIP3    H1  852   4.364   1.065   1.037
  303TIP3    H2  853   4.450   1.168   0.967
  304TIP3   OH2  854   3.352   1.140   1.390
  304TIP3    H1  855   3.410   1.215   1.416
  304TIP3    H2  856   3.414   1.092   1.330
  305TIP3   OH2  857   3.413   1.979   1.488
  305TIP3    H1  858   3.390   2.069   1.455
  305TIP3    H2  859   3.334   1.962   1.544
  306TIP3   OH2  860   4.246   2.182   0.961
  306TIP3    H1  861   4.157   2.173   1.003
  306TIP3    H2  862   4.237   2.269   0.918
  307TIP3   OH2  863   4.539   1.083   1.329
  307TIP3    H1  864   4.448   1.102   1.302
  307TIP3    H2  865   4.591   1.118   1.254
  308TIP3   OH2  866   3.829   0.727   1.321
  308TIP3    H1  867   3.815   0.633   1.350
  308TIP3    H2  868   3.756   0.770   1.371
  309TIP3   OH2  869   3.940   2.226   0.635
  309TIP3    H1  870   3.989   2.142   0.616
  309TIP3    H2  871   4.005   2.291   0.598
  310TIP3   OH2  872   4.079   2.004   0.556
  310TIP3    H1  873   4.082   1.926   0.498
  310TIP3    H2  874   4.121   1.970   0.638
  311TIP3   OH2  875   4.469   2.087   1.312
  311TIP3    H1  876   4.460   2.010   1.252
  311TIP3    H2  877   4.449   2.162   1.253
  312TIP3   OH2  878   3.770   1.479   0.567
  312TIP3    H1  879   3.694   1.535   0.542
  312TIP3    H2  880   3.815   1.466   0.481
  313TIP3   OH2  881   4.120   1.577   0.545
  313TIP3    H1  882   4.063   1.597   0.622
  313TIP3    H2  883   4.203   1.551   0.590
  314TIP3   OH2  884   4.339   1.605   1.463
  314TIP3    H1  885   4.341   1.688   1.515
  314TIP3    H2  886   4.253   1.615   1.417
  315TIP3   OH2  887   3.347   1.567   0.962
  315TIP3    H1  888   3.329   1.512   0.884
  315TIP3    H2  889   3.428   1.525   0.998
  316TIP3   OH2  890   3.470   1.975   1.107
  316TIP3    H1  891   3.457   1.949   1.014
  316TIP3    H2  892   3.560   1.941   1.126
  317TIP3   OH2  893   3.469   1.547   1.310
  317TIP3    H1  894   3.513   1.521   1.226
  317TIP3    H2  895   3.517   1.630   1.334
  318TIP3   OH2  896   4.008   2.175   1.090
  318TIP3    H1  897   3.992   2.258   1.139
  318TIP3    H2  898   3.988   2.106   1.156
  319TIP3   OH2  899   3.619   2.093   1.636
  319TIP3    H1  900   3.558   2.155   1.683
  319TIP3    H2  901   3.554   2.041   1.585
  320TIP3   OH2  902   3.968   1.424   0.373
  320TIP3    H1  903   4.024   1.489   0.421
  320TIP3    H2  904   3.987   1.447   0.280
  321TIP3   OH2  905   3.373   1.652   1.738
  321TIP3    H1  906   3.380   1.739   1.781
  321TIP3    H2  907   3.280   1.629   1.758
  322TIP3   OH2  908   3.696   2.102   0.650
  322TIP3    H1  909   3.779   2.155   0.652
  322TIP3    H2  910   3.639   2.157   0.594
  323TIP3   OH2  911   3.412   2.256   1.723
  323TIP3    H1  912   3.375   2.266   1.633
  323TIP3    H2  913   3.331   2.237   1.776
  324TIP3   OH2  914   4.264   2.041  -0.040
  324TIP3    H1  915   4.279   2.136  -0.058
  324TIP3    H2  916   4.355   2.006  -0.046
  325TIP3   OH2  917   2.989   1.785   1.675
  325TIP3    H1  918   2.954   1.747   1.593
  325TIP3    H2  919   3.036   1.707   1.714
  326TIP3   OH2  920   2.846   1.991   1.297
  326TIP3    H1  921   2.943   1.983   1.295
  326TIP3    H2  922   2.839   2.069   1.356
  327TIP3   OH2  923   4.706   2.440   1.364
  327TIP3    H1  924   4.704   2.344   1.382
  327TIP3    H2  925   4.623   2.468   1.408
  328TIP3   OH2  926   3.813   2.223   1.492
  328TIP3    H1  927   3.810   2.316   1.525
  328TIP3    H2  928   3.743   2.182   1.548
  329TIP3   OH2  929   3.577   2.349   0.447
  329TIP3    H1  930   3.537   2.338   0.358
  329TIP3    H2  931   3.546   2.437   0.473
  330TIP3   OH2  932   3.025   2.220   0.835
  330TIP3    H1  933   3.073   2.206   0.920
  330TIP3    H2  934   2.984   2.131   0.822
  331TIP3   OH2  935   3.765   2.250   0.095
  331TIP3    H1  936   3.825   2.193   0.043
  331TIP3    H2  937   3.812   2.255   0.180
  332TIP3   OH2  938   3.833   2.307   0.362
  332TIP3    H1  939   3.742   2.313   0.399
  332TIP3    H2  940   3.882   2.270   0.437
  333TIP3   OH2  941   4.596   1.565   1.641
  333TIP3    H1  942   4.508   1.575   1.603
  333TIP3    H2  943   4.612   1.469   1.630
  334TIP3   OH2  944   3.193   1.974   1.652
  334TIP3    H1  945   3.243   1.965   1.735
  334TIP3    H2  946   3.119   1.912   1.666
  335TIP3   OH2  947   3.602   0.814   1.452
  335TIP3    H1  948   3.511   0.785   1.431
  335TIP3    H2  949   3.580   0.892   1.507
  336TIP3   OH2  950   4.130   0.911   1.639
  336TIP3    H1  951   4.199   0.887   1.704
  336TIP3    H2  952   4.047   0.894   1.689
  337TIP3   OH2  953   4.361   1.346   1.558
  337TIP3    H1  954   4.312   1.339   1.643
  337TIP3    H2  955   4.335   1.434   1.525
  338TIP3   OH2  956   4.045   1.488   0.118
  338TIP3    H1  957   4.017   1.454   0.031
  338TIP3    H2  958   4.124   1.539   0.093
  339TIP3   OH2  959   3.530   1.329   1.464
  339TIP3    H1  960   3.491   1.351   1.551
  339TIP3    H2  961   3.511   1.411   1.413
  340TIP3   OH2  962   3.417   1.229   0.962
  340TIP3    H1  963   3.365   1.146   0.961
  340TIP3    H2  964   3.486   1.203   0.900
  341TIP3   OH2  965   3.899   1.283   0.710
  341TIP3    H1  966   3.855   1.355   0.660
  341TIP3    H2  967   3.956   1.244   0.640
  342TIP3   OH2  968   4.074   1.560   1.785
  342TIP3    H1  969   4.052   1.489   1.849
  342TIP3    H2  970   4.167   1.578   1.810
  343TIP3   OH2  971   4.053   1.310   0.941
  343TIP3    H1  972   3.991   1.337   0.870
  343TIP3    H2  973   4.090   1.231   0.897
  344TIP3   OH2  974   3.341   1.342   1.673
  344TIP3    H1  975   3.383   1.401   1.737
  344TIP3    H2  976   3.331   1.260   1.725
  345TIP3   OH2  977   4.063   1.556   1.360
  345TIP3    H1  978   4.099   1.485   1.302
  345TIP3    H2  979   4.034   1.502   1.436
  346TIP3   OH2  980   3.740   1.016   1.046
  346TIP3    H1  981   3.672   1.021   1.117
  346TIP3    H2  982   3.822   1.010   1.099
  347TIP3   OH2  983   4.235   1.098   1.245
  347TIP3    H1  984   4.201   1.113   1.337
  347TIP3    H2  985   4.166   1.040   1.210
  348TIP3   OH2  986   4.404   2.788   1.461
  348TIP3    H1  987   4.402   2.814   1.367
  348TIP3    H2  988   4.485   2.834   1.491
  349TIP3   OH2  989   3.357   1.899   1.877
  349TIP3    H1  990   3.438   1.928   1.924
  349TIP3    H2  991   3.294   1.900   1.952
  350TIP3   OH2  992   3.819   1.351   1.133
  350TIP3    H1  993   3.897   1.317   1.087
  350TIP3    H2  994   3.826   1.309   1.221
  351TIP3   OH2  995   3.796   1.258   1.419
  351TIP3    H1  996   3.708   1.295   1.439
  351TIP3    H2  997   3.856   1.315   1.472
  352TIP3   OH2  998   3.527   1.626   0.534
  352TIP3    H1  999   3.432   1.627   0.520
  352TIP3    H2 1000   3.531   1.667   0.624
  353TIP3   OH2 1001   4.440   1.868   1.145
  353TIP3    H1 1002   4.475   1.902   1.061
  353TIP3    H2 1003   4.354   1.828   1.118
  354TIP3   OH2 1004   3.923   1.954   1.520
  354TIP3    H1 1005   3.967   1.944   1.606
  354TIP3    H2 1006   3.892   2.046   1.523
  355TIP3   OH2 1007   4.053   1.194   0.500
  355TIP3    H1 1008   4.150   1.205   0.500
  355TIP3    H2 1009   4.024   1.269   0.443
  356TIP3   OH2 1010   3.222   1.654   1.192
  356TIP3    H1 1011   3.266   1.632   1.107
  356TIP3    H2 1012   3.284   1.612   1.255
  357TIP3   OH2 1013   3.653   1.782   0.343
  357TIP3    H1 1014   3.625   1.874   0.364
  357TIP3    H2 1015   3.619   1.733   0.421
  358TIP3   OH2 1016   3.110   1.585   1.814
  358TIP3    H1 1017   3.138   1.574   1.907
  358TIP3    H2 1018   3.049   1.510   1.804
  359TIP3   OH2 1019   3.837   1.701   1.824
  359TIP3    H1 1020   3.778   1.637   1.782
  359TIP3    H2 1021   3.925   1.666   1.798
  360TIP3   OH2 1022   4.088   2.211   1.417
  360TIP3    H1 1023   3.991   2.217   1.429
  360TIP3    H2 1024   4.118   2.267   1.493
  361TIP3   OH2 1025   4.486   1.294   0.322
  361TIP3    H1 1026   4.443   1.234   0.258
  361TIP3    H2 1027   4.472   1.380   0.275
  362TIP3   OH2 1028   4.718   2.148   1.404
  362TIP3    H1 1029   4.620   2.143   1.395
  362TIP3    H2 1030   4.744   2.120   1.313
  363TIP3   OH2 1031   4.210   2.108   0.227
  363TIP3    H1 1032   4.165   2.039   0.279
  363TIP3    H2 1033   4.213   2.068   0.138
  364TIP3   OH2 1034   4.197   1.740   1.058
  364TIP3    H1 1035   4.103   1.719   1.076
  364TIP3    H2 1036   4.225   1.658   1.014
  365TIP3   OH2 1037   3.329   1.971   0.817
  365TIP3    H1 1038   3.332   2.054   0.764
  365TIP3    H2 1039   3.234   1.960   0.828
  366TIP3   OH2 1040   3.456   1.734   0.768
  366TIP3    H1 1041   3.426   1.826   0.781
  366TIP3    H2 1042   3.425   1.692   0.849
  367TIP3   OH2 1043   3.598   2.308   1.287
  367TIP3    H1 1044   3.640   2.381   1.236
  367TIP3    H2 1045   3.675   2.274   1.336
  368TIP3   OH2 1046   3.248   2.207   0.669
  368TIP3    H1 1047   3.165   2.224   0.717
  368TIP3    H2 1048   3.286   2.298   0.670
  369TIP3   OH2 1049   3.977   1.944   1.252
  369TIP3    H1 1050   3.965   1.942   1.350
  369TIP3    H2 1051   4.062   1.899   1.243
  370TIP3   OH2 1052   3.972   1.856   0.124
  370TIP3    H1 1053   4.008   1.825   0.209
  370TIP3    H2 1054   3.897   1.793   0.110
  371TIP3   OH2 1055   4.231   2.472   1.293
  371TIP3    H1 1056   4.148   2.421   1.287
  371TIP3    H2 1057   4.216   2.539   1.223
  372TIP3   OH2 1058   4.299   2.317  -0.057
  372TIP3    H1 1059   4.348   2.396  -0.088
  372TIP3    H2 1060   4.219   2.360  -0.021
  373TIP3   OH2 1061   3.314   1.090   1.815
  373TIP3    H1 1062   3.221   1.104   1.839
  373TIP3    H2 1063   3.345   1.033   1.888
  374TIP3   OH2 1064   4.119   1.783   0.362
  374TIP3    H1 1065   4.113   1.709   0.426
  374TIP3    H2 1066   4.214   1.776   0.337
  375TIP3   OH2 1067   3.028   2.169   1.447
  375TIP3    H1 1068   3.093   2.113   1.494
  375TIP3    H2 1069   3.049   2.256   1.486
  376TIP3   OH2 1070   3.276   1.824   0.420
  376TIP3    H1 1071   3.341   1.830   0.491
  376TIP3    H2 1072   3.261   1.920   0.404
  377TIP3   OH2 1073   4.157   1.148   1.501
  377TIP3    H1 1074   4.233   1.190   1.544
  377TIP3    H2 1075   4.144   1.068   1.556
  378TIP3   OH2 1076   4.027   0.902   0.645
  378TIP3    H1 1077   3.974   0.938   0.570
  378TIP3    H2 1078   4.074   0.982   0.676
  379TIP3   OH2 1079   3.536   2.020   0.378
  379TIP3    H1 1080   3.451   2.060   0.405
  379TIP3    H2 1081   3.536   2.038   0.282
  380TIP3   OH2 1082   3.704   1.099   0.770
  380TIP3    H1 1083   3.775   1.166   0.756
  380TIP3    H2 1084   3.722   1.069   0.860
  381TIP3   OH2 1085   3.994   1.397   1.571
  381TIP3    H1 1086   4.018   1.452   1.649
  381TIP3    H2 1087   4.046   1.317   1.587
  382TIP3   OH2 1088   3.899   0.839   0.878
  382TIP3    H1 1089   3.886   0.923   0.924
  382TIP3    H2 1090   3.945   0.867   0.796
  383TIP3   OH2 1091   3.273   2.094   0.419
  383TIP3    H1 1092   3.249   2.166   0.357
  383TIP3    H2 1093   3.259   2.138   0.506
  384TIP3   OH2 1094   4.626   1.298   1.550
  384TIP3    H1 1095   4.528   1.301   1.560
  384TIP3    H2 1096   4.634   1.237   1.476
  385TIP3   OH2 1097   4.282   1.493   0.940
  385TIP3    H1 1098   4.207   1.433   0.955
  385TIP3    H2 1099   4.356   1.447   0.986
  386TIP3   OH2 1100   4.254   2.452   0.887
  386TIP3    H1 1101   4.210   2.499   0.812
  386TIP3    H2 1102   4.348   2.474   0.868
  387TIP3   OH2 1103   3.330   0.750   1.480
  387TIP3    H1 1104   3.330   0.697   1.398
  387TIP3    H2 1105   3.333   0.676   1.545
  388TIP3   OH2 1106   2.910   1.974   0.785
  388TIP3    H1 1107   2.816   1.983   0.761
  388TIP3    H2 1108   2.944   1.928   0.704
  389TIP3   OH2 1109   3.026   2.479   1.887
  389TIP3    H1 1110   3.114   2.486   1.932
  389TIP3    H2 1111   3.019   2.384   1.876
  390TIP3   OH2 1112   3.499   2.438   1.917
  390TIP3    H1 1113   3.595   2.428   1.924
  390TIP3    H2 1114   3.479   2.376   1.844
  391TIP3   OH2 1115   3.490   2.023   0.105
  391TIP3    H1 1116   3.434   1.945   0.097
  391TIP3    H2 1117   3.530   2.022   0.016
  392TIP3   OH2 1118   4.145   2.350   1.647
  392TIP3    H1 1119   4.138   2.282   1.717
  392TIP3    H2 1120   4.221   2.403   1.678
  393TIP3   OH2 1121   3.937   2.072  -0.035
  393TIP3    H1 1122   3.944   1.993   0.024
  393TIP3    H2 1123   4.025   2.071  -0.075
  394TIP3   OH2 1124   3.158   1.889   2.072
  394TIP3    H1 1125   3.176   1.793   2.082
  394TIP3    H2 1126   3.072   1.889   2.025
  395TIP3   OH2 1127   3.761   1.977   1.845
  395TIP3    H1 1128   3.722   1.998   1.758
  395TIP3    H2 1129   3.794   1.885   1.832
  396TIP3   OH2 1130   3.749   1.692   0.097
  396TIP3    H1 1131   3.713   1.723   0.184
  396TIP3    H2 1132   3.667   1.678   0.047
  397TIP3   OH2 1133   4.251   1.987   1.449
  397TIP3    H1 1134   4.329   2.027   1.407
  397TIP3    H2 1135   4.185   2.058   1.436
  398TIP3   OH2 1136   3.275   1.621   2.051
  398TIP3    H1 1137   3.352   1.566   2.031
  398TIP3    H2 1138   3.300   1.654   2.140
  399TIP3   OH2 1139   3.601   1.498   1.705
  399TIP3    H1 1140   3.530   1.565   1.712
  399TIP3    H2 1141   3.657   1.536   1.633
  400TIP3   OH2 1142   4.124   1.907   1.845
  400TIP3    H1 1143   4.208   1.880   1.805
  400TIP3    H2 1144   4.118   1.846   1.921
  401TIP3   OH2 1145   4.270   1.576  -0.033
  401TIP3    H1 1146   4.289   1.536  -0.120
  401TIP3    H2 1147   4.265   1.670  -0.054
  402TIP3   OH2 1148   3.734   1.298   1.837
  402TIP3    H1 1149   3.737   1.218   1.781
  402TIP3    H2 1150   3.687   1.362   1.779
  403TIP3   OH2 1151   3.741   1.084   1.647
  403TIP3    H1 1152   3.768   1.125   1.562
  403TIP3    H2 1153   3.647   1.064   1.631
  404TIP3   OH2 1154   3.756   1.612   1.516
  404TIP3    H1 1155   3.845   1.632   1.484
  404TIP3    H2 1156   3.702   1.681   1.473
  405TIP3   OH2 1157   4.338   1.581   1.896
  405TIP3    H1 1158   4.388   1.502   1.923
  405TIP3    H2 1159   4.409   1.640   1.867
  406TIP3   OH2 1160   4.384   1.833   1.629
  406TIP3    H1 1161   4.325   1.891   1.574
  406TIP3    H2 1162   4.471   1.858   1.591
  407TIP3   OH2 1163   3.609   1.403   2.067
  407TIP3    H1 1164   3.542   1.334   2.089
  407TIP3    H2 1165   3.645   1.370   1.983
  408TIP3   OH2 1166   3.869   0.842   1.716
  408TIP3    H1 1167   3.818   0.924   1.695
  408TIP3    H2 1168   3.799   0.773   1.708
  409TIP3   OH2 1169   3.995   1.345   1.932
  409TIP3    H1 1170   3.982   1.331   2.027
  409TIP3    H2 1171   3.904   1.323   1.901
  410TIP3   OH2 1172   4.228   1.290   1.784
  410TIP3    H1 1173   4.155   1.296   1.849
  410TIP3    H2 1174   4.304   1.265   1.841
  411TIP3   OH2 1175   4.460   1.239   1.931
  411TIP3    H1 1176   4.474   1.144   1.950
  411TIP3    H2 1177   4.454   1.277   2.021
  412TIP3   OH2 1178   3.450   1.182   2.125
  412TIP3    H1 1179   3.451   1.088   2.097
  412TIP3    H2 1180   3.490   1.173   2.215
  413TIP3   OH2 1181   3.962   0.855   1.974
  413TIP3    H1 1182   4.027   0.782   1.969
  413TIP3    H2 1183   3.921   0.849   1.886
  414TIP3   OH2 1184   4.028   1.070   2.132
  414TIP3    H1 1185   4.005   0.998   2.070
  414TIP3    H2 1186   3.948   1.127   2.127
  415TIP3   OH2 1187   3.238   2.284   0.227
  415TIP3    H1 1188   3.333   2.297   0.205
  415TIP3    H2 1189   3.195   2.342   0.162
  416TIP3   OH2 1190   2.656   2.273   0.857
  416TIP3    H1 1191   2.570   2.245   0.824
  416TIP3    H2 1192   2.680   2.205   0.921
  417TIP3   OH2 1193   2.738   2.110   1.083
  417TIP3    H1 1194   2.798   2.068   1.148
  417TIP3    H2 1195   2.779   2.199   1.085
  418TIP3   OH2 1196   4.509   2.540   0.851
  418TIP3    H1 1197   4.535   2.574   0.939
  418TIP3    H2 1198   4.578   2.577   0.793
  419TIP3   OH2 1199   4.533   2.562   1.133
  419TIP3    H1 1200   4.492   2.473   1.132
  419TIP3    H2 1201   4.614   2.543   1.184
  420TIP3   OH2 1202   4.581   2.238   1.706
  420TIP3    H1 1203   4.510   2.249   1.772
  420TIP3    H2 1204   4.625   2.326   1.709
  421TIP3   OH2 1205   4.393   1.755   0.314
  421TIP3    H1 1206   4.458   1.822   0.285
  421TIP3    H2 1207   4.438   1.720   0.394
  422TIP3   OH2 1208   4.518   1.630   0.523
  422TIP3    H1 1209   4.454   1.583   0.581
  422TIP3    H2 1210   4.585   1.660   0.587
  423TIP3   OH2 1211   4.597   1.997   0.942
  423TIP3    H1 1212   4.647   2.003   0.859
  423TIP3    H2 1213   4.545   2.078   0.934
  424TIP3   OH2 1214   4.408   2.308   1.154
  424TIP3    H1 1215   4.340   2.356   1.207
  424TIP3    H2 1216   4.354   2.269   1.082
  425TIP3   OH2 1217   4.443   1.523   0.174
  425TIP3    H1 1218   4.382   1.536   0.099
  425TIP3    H2 1219   4.424   1.604   0.227
  426TIP3   OH2 1220   4.323   1.176   0.123
  426TIP3    H1 1221   4.288   1.254   0.079
  426TIP3    H2 1222   4.240   1.126   0.143
  427TIP3   OH2 1223   4.345   1.480   0.673
  427TIP3    H1 1224   4.343   1.383   0.655
  427TIP3    H2 1225   4.326   1.484   0.769
  428TIP3   OH2 1226   2.966   1.581   1.433
  428TIP3    H1 1227   2.964   1.539   1.344
  428TIP3    H2 1228   3.062   1.569   1.453
  429TIP3   OH2 1229   4.632   1.902   1.531
  429TIP3    H1 1230   4.702   1.835   1.517
  429TIP3    H2 1231   4.658   1.973   1.470
  430TIP3   OH2 1232   4.806   1.692   1.526
  430TIP3    H1 1233   4.734   1.648   1.577
  430TIP3    H2 1234   4.881   1.633   1.549
  431TIP3   OH2 1235   4.334   1.215   0.563
  431TIP3    H1 1236   4.379   1.130   0.583
  431TIP3    H2 1237   4.387   1.244   0.486
  432TIP3   OH2 1238   4.524   1.385   1.056
  432TIP3    H1 1239   4.597   1.319   1.067
  432TIP3    H2 1240   4.531   1.434   1.140
  433TIP3   OH2 1241   4.557   1.537   1.289
  433TIP3    H1 1242   4.482   1.533   1.352
  433TIP3    H2 1243   4.556   1.632   1.270
  434TIP3   OH2 1244   3.186   1.244   2.108
  434TIP3    H1 1245   3.284   1.237   2.112
  434TIP3    H2 1246   3.163   1.154   2.141
  435TIP3   OH2 1247   5.017   1.104   1.849
  435TIP3    H1 1248   5.079   1.040   1.808
  435TIP3    H2 1249   4.988   1.156   1.771
  436TIP3   OH2 1250   4.453   0.979   0.614
  436TIP3    H1 1251   4.493   0.963   0.703
  436TIP3    H2 1252   4.397   0.898   0.608
  437TIP3   OH2 1253   3.158   0.953   1.455
  437TIP3    H1 1254   3.223   0.887   1.491
  437TIP3    H2 1255   3.214   1.032   1.449
  438TIP3   OH2 1256   2.963   1.219   1.492
  438TIP3    H1 1257   3.011   1.229   1.408
  438TIP3    H2 1258   2.996   1.293   1.545
  439TIP3   OH2 1259   4.885   1.238   1.653
  439TIP3    H1 1260   4.803   1.282   1.682
  439TIP3    H2 1261   4.848   1.167   1.597
  440TIP3   OH2 1262   4.093   2.407   0.508
  440TIP3    H1 1263   4.145   2.400   0.425
  440TIP3    H2 1264   4.141   2.475   0.557
  441TIP3   OH2 1265   3.162   0.777   1.825
  441TIP3    H1 1266   3.116   0.768   1.910
  441TIP3    H2 1267   3.096   0.829   1.775
  442TIP3   OH2 1268   3.191   2.210   1.884
  442TIP3    H1 1269   3.096   2.189   1.876
  442TIP3    H2 1270   3.206   2.202   1.980
  443TIP3   OH2 1271   3.370   2.247   1.433
  443TIP3    H1 1272   3.323   2.325   1.397
  443TIP3    H2 1273   3.457   2.262   1.390
  444TIP3   OH2 1274   3.808   2.489   1.571
  444TIP3    H1 1275   3.849   2.488   1.661
  444TIP3    H2 1276   3.875   2.542   1.522
  445TIP3   OH2 1277   3.990   2.645   1.438
  445TIP3    H1 1278   4.062   2.596   1.396
  445TIP3    H2 1279   4.042   2.703   1.499
  446TIP3   OH2 1280   4.785   1.001   1.534
  446TIP3    H1 1281   4.695   0.981   1.503
  446TIP3    H2 1282   4.826   0.911   1.530
  447TIP3   OH2 1283   3.044   2.499   1.474
  447TIP3    H1 1284   2.952   2.526   1.451
  447TIP3    H2 1285   3.065   2.568   1.541
  448TIP3   OH2 1286   3.276   2.479   1.321
  448TIP3    H1 1287   3.192   2.496   1.370
  448TIP3    H2 1288   3.258   2.522   1.235
  449TIP3   OH2 1289   3.705   2.506   1.120
  449TIP3    H1 1290   3.637   2.527   1.053
  449TIP3    H2 1291   3.718   2.594   1.162
  450TIP3   OH2 1292   3.976   2.444   1.169
  450TIP3    H1 1293   3.882   2.465   1.152
  450TIP3    H2 1294   4.021   2.519   1.127
  451TIP3   OH2 1295   4.177   2.636   1.081
  451TIP3    H1 1296   4.165   2.722   1.035
  451TIP3    H2 1297   4.206   2.578   1.007
  452TIP3   OH2 1298   2.945   2.287   1.192
  452TIP3    H1 1299   2.972   2.270   1.284
  452TIP3    H2 1300   3.022   2.249   1.145
  453TIP3   OH2 1301   3.155   2.168   1.068
  453TIP3    H1 1302   3.171   2.084   1.117
  453TIP3    H2 1303   3.245   2.207   1.067
  454TIP3   OH2 1304   3.418   2.260   1.073
  454TIP3    H1 1305   3.452   2.169   1.065
  454TIP3    H2 1306   3.466   2.288   1.154
  455TIP3   OH2 1307   3.985   0.927   1.160
  455TIP3    H1 1308   3.949   0.854   1.213
  455TIP3    H2 1309   4.056   0.882   1.109
  456TIP3   OH2 1310   4.505   0.797   1.065
  456TIP3    H1 1311   4.541   0.852   0.992
  456TIP3    H2 1312   4.409   0.816   1.057
  457TIP3   OH2 1313   4.589   0.929   0.847
  457TIP3    H1 1314   4.654   0.859   0.821
  457TIP3    H2 1315   4.642   1.010   0.827
  458TIP3   OH2 1316   3.696   0.679   1.073
  458TIP3    H1 1317   3.728   0.763   1.037
  458TIP3    H2 1318   3.722   0.688   1.166
  459TIP3   OH2 1319   4.226   0.817   1.036
  459TIP3    H1 1320   4.226   0.780   0.947
  459TIP3    H2 1321   4.212   0.735   1.091
  460TIP3   OH2 1322   4.287   0.772   0.639
  460TIP3    H1 1323   4.213   0.808   0.586
  460TIP3    H2 1324   4.246   0.707   0.696
  461TIP3   OH2 1325   3.508   2.290   0.176
  461TIP3    H1 1326   3.599   2.304   0.142
  461TIP3    H2 1327   3.499   2.196   0.148
  462TIP3   OH2 1328   4.239   2.376   0.274
  462TIP3    H1 1329   4.233   2.278   0.263
  462TIP3    H2 1330   4.191   2.407   0.194
  463TIP3   OH2 1331   3.447   0.908   2.059
  463TIP3    H1 1332   3.409   0.839   2.117
  463TIP3    H2 1333   3.541   0.906   2.090
  464TIP3   OH2 1334   3.697   0.902   2.178
  464TIP3    H1 1335   3.784   0.875   2.146
  464TIP3    H2 1336   3.680   0.834   2.246
  465TIP3   OH2 1337   4.525   0.969   1.966
  465TIP3    H1 1338   4.542   0.939   2.058
  465TIP3    H2 1339   4.615   0.964   1.928
  466TIP3   OH2 1340   4.457   2.517   1.460
  466TIP3    H1 1341   4.378   2.490   1.408
  466TIP3    H2 1342   4.440   2.614   1.466
  467TIP3   OH2 1343   5.688   1.912   0.253
  467TIP3    H1 1344   5.667   1.995   0.205
  467TIP3    H2 1345   5.622   1.852   0.218
  468TIP3   OH2 1346   5.733   1.902   0.609
  468TIP3    H1 1347   5.755   1.866   0.697
  468TIP3    H2 1348   5.691   1.827   0.565
  469TIP3   OH2 1349   4.990   1.753   0.977
  469TIP3    H1 1350   5.040   1.703   1.045
  469TIP3    H2 1351   5.060   1.816   0.950
  470TIP3   OH2 1352   5.978   2.203   0.290
  470TIP3    H1 1353   5.949   2.136   0.353
  470TIP3    H2 1354   6.007   2.275   0.349
  471TIP3   OH2 1355   4.996   2.192   0.690
  471TIP3    H1 1356   4.992   2.095   0.689
  471TIP3    H2 1357   5.092   2.206   0.687
  472TIP3   OH2 1358   4.689   1.417   0.473
  472TIP3    H1 1359   4.635   1.497   0.482
  472TIP3    H2 1360   4.622   1.355   0.440
  473TIP3   OH2 1361   4.764   1.689   0.655
  473TIP3    H1 1362   4.824   1.617   0.626
  473TIP3    H2 1363   4.800   1.764   0.605
  474TIP3   OH2 1364   5.625   2.660   0.310
  474TIP3    H1 1365   5.663   2.582   0.266
  474TIP3    H2 1366   5.608   2.626   0.399
  475TIP3   OH2 1367   5.523   2.120   0.655
  475TIP3    H1 1368   5.564   2.047   0.607
  475TIP3    H2 1369   5.605   2.167   0.683
  476TIP3   OH2 1370   5.940   1.628   0.682
  476TIP3    H1 1371   5.968   1.540   0.717
  476TIP3    H2 1372   5.883   1.598   0.610
  477TIP3   OH2 1373   4.906   1.476   0.790
  477TIP3    H1 1374   4.998   1.455   0.819
  477TIP3    H2 1375   4.902   1.409   0.717
  478TIP3   OH2 1376   5.340   1.656   0.569
  478TIP3    H1 1377   5.438   1.654   0.574
  478TIP3    H2 1378   5.323   1.560   0.561
  479TIP3   OH2 1379   6.582   1.617   0.863
  479TIP3    H1 1380   6.529   1.684   0.820
  479TIP3    H2 1381   6.658   1.669   0.897
  480TIP3   OH2 1382   5.270   1.274   1.081
  480TIP3    H1 1383   5.214   1.305   1.008
  480TIP3    H2 1384   5.213   1.293   1.159
  481TIP3   OH2 1385   5.628   2.127   0.084
  481TIP3    H1 1386   5.578   2.095   0.006
  481TIP3    H2 1387   5.570   2.200   0.114
  482TIP3   OH2 1388   5.378   2.034   0.874
  482TIP3    H1 1389   5.321   2.106   0.910
  482TIP3    H2 1390   5.425   2.081   0.801
  483TIP3   OH2 1391   5.152   1.378   0.851
  483TIP3    H1 1392   5.221   1.445   0.875
  483TIP3    H2 1393   5.187   1.353   0.762
  484TIP3   OH2 1394   5.211   2.233   0.975
  484TIP3    H1 1395   5.191   2.324   0.943
  484TIP3    H2 1396   5.131   2.219   1.030
  485TIP3   OH2 1397   4.596   1.925   0.218
  485TIP3    H1 1398   4.561   1.947   0.130
  485TIP3    H2 1399   4.629   2.013   0.249
  486TIP3   OH2 1400   6.041   2.444   0.453
  486TIP3    H1 1401   5.952   2.433   0.494
  486TIP3    H2 1402   6.029   2.530   0.407
  487TIP3   OH2 1403   5.735   2.471   0.141
  487TIP3    H1 1404   5.783   2.387   0.121
  487TIP3    H2 1405   5.798   2.534   0.100
  488TIP3   OH2 1406   5.872   2.252   0.042
  488TIP3    H1 1407   5.796   2.191   0.050
  488TIP3    H2 1408   5.925   2.227   0.121
  489TIP3   OH2 1409   6.267   2.349   0.798
  489TIP3    H1 1410   6.252   2.272   0.740
  489TIP3    H2 1411   6.248   2.424   0.737
  490TIP3   OH2 1412   6.464   2.006   0.664
  490TIP3    H1 1413   6.373   2.047   0.658
  490TIP3    H2 1414   6.490   2.010   0.570
  491TIP3   OH2 1415   6.127   1.869   0.951
  491TIP3    H1 1416   6.124   1.949   1.006
  491TIP3    H2 1417   6.041   1.873   0.906
  492TIP3   OH2 1418   5.143   1.815   0.447
  492TIP3    H1 1419   5.106   1.764   0.372
  492TIP3    H2 1420   5.216   1.756   0.477
  493TIP3   OH2 1421   5.265   2.235   0.591
  493TIP3    H1 1422   5.251   2.202   0.501
  493TIP3    H2 1423   5.355   2.201   0.611
  494TIP3   OH2 1424   5.251   1.798   0.798
  494TIP3    H1 1425   5.292   1.762   0.716
  494TIP3    H2 1426   5.307   1.877   0.817
  495TIP3   OH2 1427   5.802   2.433   0.576
  495TIP3    H1 1428   5.787   2.512   0.631
  495TIP3    H2 1429   5.784   2.359   0.639
  496TIP3   OH2 1430   5.414   2.343   1.127
  496TIP3    H1 1431   5.352   2.406   1.170
  496TIP3    H2 1432   5.350   2.292   1.072
  497TIP3   OH2 1433   5.170   1.905   1.230
  497TIP3    H1 1434   5.175   1.994   1.271
  497TIP3    H2 1435   5.074   1.890   1.229
  498TIP3   OH2 1436   5.487   2.356   0.133
  498TIP3    H1 1437   5.571   2.405   0.143
  498TIP3    H2 1438   5.431   2.419   0.085
  499TIP3   OH2 1439   5.211   2.509   1.214
  499TIP3    H1 1440   5.178   2.535   1.126
  499TIP3    H2 1441   5.128   2.491   1.263
  500TIP3   OH2 1442   5.009   1.675   0.238
  500TIP3    H1 1443   4.933   1.712   0.188
  500TIP3    H2 1444   4.979   1.586   0.259
  501TIP3   OH2 1445   4.782   2.045   1.161
  501TIP3    H1 1446   4.721   2.021   1.090
  501TIP3    H2 1447   4.819   1.959   1.190
  502TIP3   OH2 1448   4.650   2.244   0.790
  502TIP3    H1 1449   4.746   2.245   0.778
  502TIP3    H2 1450   4.639   2.322   0.847
  503TIP3   OH2 1451   6.504   2.699   0.848
  503TIP3    H1 1452   6.503   2.603   0.863
  503TIP3    H2 1453   6.420   2.725   0.893
  504TIP3   OH2 1454   5.609   2.463   0.975
  504TIP3    H1 1455   5.620   2.556   1.007
  504TIP3    H2 1456   5.537   2.432   1.035
  505TIP3   OH2 1457   5.377   2.617  -0.067
  505TIP3    H1 1458   5.308   2.590  -0.128
  505TIP3    H2 1459   5.345   2.705  -0.036
  506TIP3   OH2 1460   4.810   2.456   0.319
  506TIP3    H1 1461   4.858   2.449   0.405
  506TIP3    H2 1462   4.761   2.372   0.319
  507TIP3   OH2 1463   5.604   2.497  -0.162
  507TIP3    H1 1464   5.524   2.540  -0.125
  507TIP3    H2 1465   5.668   2.510  -0.091
  508TIP3   OH2 1466   6.396   1.825   1.146
  508TIP3    H1 1467   6.339   1.832   1.067
  508TIP3    H2 1468   6.414   1.729   1.146
  509TIP3   OH2 1469   4.990   2.229   1.137
  509TIP3    H1 1470   5.038   2.222   1.222
  509TIP3    H2 1471   4.914   2.170   1.151
  510TIP3   OH2 1472   5.378   1.049   0.948
  510TIP3    H1 1473   5.306   1.032   0.885
  510TIP3    H2 1474   5.355   1.138   0.981
  511TIP3   OH2 1475   5.919   1.158   1.111
  511TIP3    H1 1476   5.987   1.142   1.180
  511TIP3    H2 1477   5.835   1.145   1.161
  512TIP3   OH2 1478   6.158   1.599   1.035
  512TIP3    H1 1479   6.114   1.601   1.122
  512TIP3    H2 1480   6.144   1.692   1.003
  513TIP3   OH2 1481   5.322   1.576   0.947
  513TIP3    H1 1482   5.273   1.594   1.029
  513TIP3    H2 1483   5.301   1.655   0.894
  514TIP3   OH2 1484   5.871   1.818   1.275
  514TIP3    H1 1485   5.849   1.745   1.337
  514TIP3    H2 1486   5.965   1.832   1.297
  515TIP3   OH2 1487   5.809   1.547   0.460
  515TIP3    H1 1488   5.831   1.604   0.382
  515TIP3    H2 1489   5.830   1.458   0.423
  516TIP3   OH2 1490   5.138   1.602   1.161
  516TIP3    H1 1491   5.187   1.662   1.219
  516TIP3    H2 1492   5.135   1.520   1.214
  517TIP3   OH2 1493   4.729   1.144   0.770
  517TIP3    H1 1494   4.814   1.175   0.806
  517TIP3    H2 1495   4.753   1.118   0.679
  518TIP3   OH2 1496   4.747   1.185   0.305
  518TIP3    H1 1497   4.796   1.266   0.287
  518TIP3    H2 1498   4.654   1.216   0.304
  519TIP3   OH2 1499   5.857   1.819   0.854
  519TIP3    H1 1500   5.894   1.751   0.793
  519TIP3    H2 1501   5.827   1.762   0.928
  520TIP3   OH2 1502   4.931   1.311   0.582
  520TIP3    H1 1503   4.860   1.329   0.518
  520TIP3    H2 1504   5.011   1.302   0.527
  521TIP3   OH2 1505   5.963   1.358   0.734
  521TIP3    H1 1506   5.950   1.383   0.831
  521TIP3    H2 1507   5.925   1.270   0.735
  522TIP3   OH2 1508   6.201   3.044   0.949
  522TIP3    H1 1509   6.198   3.069   0.855
  522TIP3    H2 1510   6.281   3.091   0.979
  523TIP3   OH2 1511   5.151   2.151   1.365
  523TIP3    H1 1512   5.232   2.185   1.410
  523TIP3    H2 1513   5.087   2.159   1.439
  524TIP3   OH2 1514   5.609   1.624   0.635
  524TIP3    H1 1515   5.672   1.583   0.572
  524TIP3    H2 1516   5.608   1.561   0.709
  525TIP3   OH2 1517   5.592   1.506   0.914
  525TIP3    H1 1518   5.501   1.541   0.922
  525TIP3    H2 1519   5.646   1.573   0.961
  526TIP3   OH2 1520   5.285   1.934  -0.011
  526TIP3    H1 1521   5.252   1.841  -0.014
  526TIP3    H2 1522   5.292   1.946   0.086
  527TIP3   OH2 1523   6.223   2.135   0.632
  527TIP3    H1 1524   6.245   2.186   0.551
  527TIP3    H2 1525   6.135   2.097   0.609
  528TIP3   OH2 1526   5.728   2.212   1.003
  528TIP3    H1 1527   5.757   2.205   1.094
  528TIP3    H2 1528   5.686   2.300   1.000
  529TIP3   OH2 1529   5.013   1.905   0.673
  529TIP3    H1 1530   5.053   1.886   0.586
  529TIP3    H2 1531   5.080   1.864   0.731
  530TIP3   OH2 1532   5.483   2.062  -0.155
  530TIP3    H1 1533   5.429   2.144  -0.165
  530TIP3    H2 1534   5.415   2.005  -0.113
  531TIP3   OH2 1535   4.902   1.839   1.308
  531TIP3    H1 1536   4.953   1.862   1.389
  531TIP3    H2 1537   4.857   1.760   1.344
  532TIP3   OH2 1538   5.632   1.955   1.314
  532TIP3    H1 1539   5.573   1.900   1.259
  532TIP3    H2 1540   5.719   1.920   1.286
  533TIP3   OH2 1541   5.887   2.478   0.899
  533TIP3    H1 1542   5.790   2.473   0.912
  533TIP3    H2 1543   5.913   2.529   0.979
  534TIP3   OH2 1544   6.517   2.409   0.886
  534TIP3    H1 1545   6.419   2.402   0.880
  534TIP3    H2 1546   6.542   2.376   0.798
  535TIP3   OH2 1547   5.983   2.014   0.556
  535TIP3    H1 1548   5.889   1.989   0.568
  535TIP3    H2 1549   6.018   1.931   0.518
  536TIP3   OH2 1550   5.123   2.223   0.308
  536TIP3    H1 1551   5.123   2.302   0.252
  536TIP3    H2 1552   5.029   2.206   0.318
  537TIP3   OH2 1553   4.703   1.508   0.053
  537TIP3    H1 1554   4.738   1.598   0.044
  537TIP3    H2 1555   4.615   1.522   0.089
  538TIP3   OH2 1556   5.263   1.987   0.256
  538TIP3    H1 1557   5.223   2.074   0.273
  538TIP3    H2 1558   5.229   1.934   0.330
  539TIP3   OH2 1559   5.393   2.559   0.778
  539TIP3    H1 1560   5.433   2.642   0.745
  539TIP3    H2 1561   5.468   2.522   0.828
  540TIP3   OH2 1562   5.035   2.465   0.155
  540TIP3    H1 1563   4.951   2.470   0.205
  540TIP3    H2 1564   5.066   2.558   0.163
  541TIP3   OH2 1565   5.775   2.202   0.734
  541TIP3    H1 1566   5.766   2.198   0.832
  541TIP3    H2 1567   5.853   2.146   0.720
  542TIP3   OH2 1568   6.029   2.728   0.784
  542TIP3    H1 1569   5.949   2.672   0.784
  542TIP3    H2 1570   6.007   2.792   0.713
  543TIP3   OH2 1571   5.115   1.348   1.303
  543TIP3    H1 1572   5.019   1.346   1.319
  543TIP3    H2 1573   5.148   1.290   1.373
  544TIP3   OH2 1574   4.830   2.430   0.936
  544TIP3    H1 1575   4.890   2.367   0.978
  544TIP3    H2 1576   4.859   2.514   0.975
  545TIP3   OH2 1577   5.172   2.001  -0.330
  545TIP3    H1 1578   5.101   1.983  -0.395
  545TIP3    H2 1579   5.120   2.022  -0.250
  546TIP3   OH2 1580   5.055   2.082  -0.087
  546TIP3    H1 1581   5.138   2.042  -0.052
  546TIP3    H2 1582   5.074   2.178  -0.080
  547TIP3   OH2 1583   4.796   1.774   0.094
  547TIP3    H1 1584   4.731   1.825   0.147
  547TIP3    H2 1585   4.819   1.839   0.025
  548TIP3   OH2 1586   5.946   1.412   0.999
  548TIP3    H1 1587   6.030   1.452   1.031
  548TIP3    H2 1588   5.940   1.330   1.050
  549TIP3   OH2 1589   5.330   2.288  -0.182
  549TIP3    H1 1590   5.245   2.310  -0.138
  549TIP3    H2 1591   5.325   2.341  -0.262
  550TIP3   OH2 1592   5.788   1.654   1.059
  550TIP3    H1 1593   5.817   1.706   1.137
  550TIP3    H2 1594   5.841   1.572   1.067
  551TIP3   OH2 1595   5.084   2.357  -0.091
  551TIP3    H1 1596   5.054   2.426  -0.154
  551TIP3    H2 1597   5.060   2.396  -0.004
  552TIP3   OH2 1598   6.429   1.557   1.076
  552TIP3    H1 1599   6.334   1.550   1.051
  552TIP3    H2 1600   6.472   1.568   0.989
  553TIP3   OH2 1601   6.062   1.761   0.472
  553TIP3    H1 1602   6.010   1.730   0.553
  553TIP3    H2 1603   6.153   1.747   0.511
  554TIP3   OH2 1604   4.792   2.000  -0.089
  554TIP3    H1 1605   4.876   2.048  -0.074
  554TIP3    H2 1606   4.828   1.933  -0.153
  555TIP3   OH2 1607   6.046   2.718   0.369
  555TIP3    H1 1608   6.004   2.770   0.297
  555TIP3    H2 1609   6.140   2.739   0.352
  556TIP3   OH2 1610   5.096   0.977   0.900
  556TIP3    H1 1611   5.105   0.939   0.811
  556TIP3    H2 1612   5.096   0.897   0.956
  557TIP3   OH2 1613   4.657   2.194   0.280
  557TIP3    H1 1614   4.593   2.226   0.345
  557TIP3    H2 1615   4.625   2.238   0.198
  558TIP3   OH2 1616   4.824   2.746   1.359
  558TIP3    H1 1617   4.910   2.751   1.406
  558TIP3    H2 1618   4.811   2.650   1.354
  559TIP3   OH2 1619   5.297   2.695   1.409
  559TIP3    H1 1620   5.393   2.683   1.410
  559TIP3    H2 1621   5.275   2.651   1.325
  560TIP3   OH2 1622   5.944   2.607   1.136
  560TIP3    H1 1623   5.935   2.539   1.207
  560TIP3    H2 1624   6.019   2.661   1.168
  561TIP3   OH2 1625   4.949   2.148   1.558
  561TIP3    H1 1626   4.964   2.052   1.568
  561TIP3    H2 1627   4.862   2.151   1.514
  562TIP3   OH2 1628   4.920   1.813  -0.227
  562TIP3    H1 1629   4.965   1.728  -0.209
  562TIP3    H2 1630   4.943   1.825  -0.322
  563TIP3   OH2 1631   5.556   2.233   1.333
  563TIP3    H1 1632   5.515   2.256   1.247
  563TIP3    H2 1633   5.588   2.141   1.317
  564TIP3   OH2 1634   6.050   2.245   0.939
  564TIP3    H1 1635   6.125   2.288   0.896
  564TIP3    H2 1636   5.979   2.311   0.923
  565TIP3   OH2 1637   5.066   1.882   1.534
  565TIP3    H1 1638   5.148   1.840   1.504
  565TIP3    H2 1639   5.093   1.913   1.623
  566TIP3   OH2 1640   5.155   1.686  -0.008
  566TIP3    H1 1641   5.115   1.679   0.081
  566TIP3    H2 1642   5.131   1.601  -0.048
  567TIP3   OH2 1643   5.398   1.754   1.197
  567TIP3    H1 1644   5.326   1.821   1.202
  567TIP3    H2 1645   5.454   1.792   1.124
  568TIP3   OH2 1646   5.922   2.163   1.334
  568TIP3    H1 1647   5.998   2.131   1.282
  568TIP3    H2 1648   5.918   2.098   1.406
  569TIP3   OH2 1649   5.529   1.552   1.325
  569TIP3    H1 1650   5.531   1.474   1.266
  569TIP3    H2 1651   5.485   1.619   1.267
  570TIP3   OH2 1652   5.530   1.340   1.136
  570TIP3    H1 1653   5.560   1.381   1.052
  570TIP3    H2 1654   5.437   1.319   1.115
  571TIP3   OH2 1655   5.553   1.874   1.013
  571TIP3    H1 1656   5.639   1.886   0.972
  571TIP3    H2 1657   5.497   1.938   0.964
  572TIP3   OH2 1658   6.139   1.838   1.384
  572TIP3    H1 1659   6.187   1.754   1.389
  572TIP3    H2 1660   6.205   1.895   1.341
  573TIP3   OH2 1661   6.175   2.097   1.127
  573TIP3    H1 1662   6.119   2.152   1.067
  573TIP3    H2 1663   6.263   2.115   1.088
  574TIP3   OH2 1664   5.408   1.656   1.560
  574TIP3    H1 1665   5.340   1.588   1.575
  574TIP3    H2 1666   5.441   1.632   1.471
  575TIP3   OH2 1667   5.663   1.102   1.207
  575TIP3    H1 1668   5.609   1.181   1.182
  575TIP3    H2 1669   5.599   1.029   1.193
  576TIP3   OH2 1670   5.789   1.600   1.418
  576TIP3    H1 1671   5.773   1.586   1.513
  576TIP3    H2 1672   5.700   1.578   1.383
  577TIP3   OH2 1673   6.031   1.556   1.273
  577TIP3    H1 1674   5.956   1.556   1.335
  577TIP3    H2 1675   6.106   1.527   1.330
  578TIP3   OH2 1676   6.256   1.498   1.425
  578TIP3    H1 1677   6.265   1.402   1.441
  578TIP3    H2 1678   6.255   1.535   1.516
  579TIP3   OH2 1679   5.244   1.437   1.616
  579TIP3    H1 1680   5.251   1.346   1.583
  579TIP3    H2 1681   5.283   1.427   1.705
  580TIP3   OH2 1682   5.738   1.113   1.472
  580TIP3    H1 1683   5.812   1.048   1.466
  580TIP3    H2 1684   5.707   1.110   1.379
  581TIP3   OH2 1685   5.822   1.325   1.623
  581TIP3    H1 1686   5.797   1.254   1.560
  581TIP3    H2 1687   5.745   1.385   1.616
  582TIP3   OH2 1688   5.062   2.543  -0.294
  582TIP3    H1 1689   5.146   2.532  -0.344
  582TIP3    H2 1690   5.015   2.606  -0.349
  583TIP3   OH2 1691   4.529   1.939  -0.054
  583TIP3    H1 1692   4.618   1.977  -0.069
  583TIP3    H2 1693   4.533   1.862  -0.112
  584TIP3   OH2 1694   4.442   2.548   0.351
  584TIP3    H1 1695   4.375   2.487   0.313
  584TIP3    H2 1696   4.486   2.489   0.416
  585TIP3   OH2 1697   4.576   2.393   0.536
  585TIP3    H1 1698   4.564   2.326   0.605
  585TIP3    H2 1699   4.632   2.457   0.585
  586TIP3   OH2 1700   6.299   2.811   0.341
  586TIP3    H1 1701   6.333   2.831   0.430
  586TIP3    H2 1702   6.380   2.818   0.286
  587TIP3   OH2 1703   6.334   2.817   0.621
  587TIP3    H1 1704   6.286   2.731   0.619
  587TIP3    H2 1705   6.410   2.792   0.676
  588TIP3   OH2 1706   6.380   2.495   1.193
  588TIP3    H1 1707   6.308   2.505   1.257
  588TIP3    H2 1708   6.422   2.584   1.197
  589TIP3   OH2 1709   6.377   2.274   0.449
  589TIP3    H1 1710   6.431   2.207   0.404
  589TIP3    H2 1711   6.376   2.348   0.384
  590TIP3   OH2 1712   6.206   2.569   0.639
  590TIP3    H1 1713   6.135   2.610   0.692
  590TIP3    H2 1714   6.155   2.523   0.568
  591TIP3   OH2 1715   6.421   2.160   1.020
  591TIP3    H1 1716   6.491   2.092   1.008
  591TIP3    H2 1717   6.445   2.227   0.954
  592TIP3   OH2 1718   6.603   1.963   1.028
  592TIP3    H1 1719   6.531   1.913   1.071
  592TIP3    H2 1720   6.676   1.897   1.040
  593TIP3   OH2 1721   6.278   1.687   0.610
  593TIP3    H1 1722   6.371   1.660   0.585
  593TIP3    H2 1723   6.261   1.621   0.687
  594TIP3   OH2 1724   6.386   1.813   0.845
  594TIP3    H1 1725   6.292   1.843   0.862
  594TIP3    H2 1726   6.413   1.876   0.777
  595TIP3   OH2 1727   4.978   1.486   1.572
  595TIP3    H1 1728   5.076   1.484   1.581
  595TIP3    H2 1729   4.955   1.401   1.615
  596TIP3   OH2 1730   6.828   1.358   1.334
  596TIP3    H1 1731   6.874   1.295   1.275
  596TIP3    H2 1732   6.783   1.416   1.268
  597TIP3   OH2 1733   4.946   1.199   0.952
  597TIP3    H1 1734   4.996   1.115   0.940
  597TIP3    H2 1735   5.009   1.262   0.913
  598TIP3   OH2 1736   6.682   1.507   1.161
  598TIP3    H1 1737   6.588   1.534   1.155
  598TIP3    H2 1738   6.682   1.432   1.099
  599TIP3   OH2 1739   4.708   1.008   0.518
  599TIP3    H1 1740   4.613   0.995   0.537
  599TIP3    H2 1741   4.704   1.072   0.444
  600TIP3   OH2 1742   5.879   2.639  -0.014
  600TIP3    H1 1743   5.926   2.580  -0.075
  600TIP3    H2 1744   5.936   2.718  -0.017
  601TIP3   OH2 1745   4.944   1.047   1.303
  601TIP3    H1 1746   4.893   1.042   1.386
  601TIP3    H2 1747   4.877   1.069   1.238
  602TIP3   OH2 1748   4.983   2.466   1.373
  602TIP3    H1 1749   4.887   2.448   1.363
  602TIP3    H2 1750   4.994   2.462   1.469
  603TIP3   OH2 1751   5.167   2.497   0.922
  603TIP3    H1 1752   5.111   2.562   0.872
  603TIP3    H2 1753   5.253   2.521   0.884
  604TIP3   OH2 1754   5.647   2.717   1.049
  604TIP3    H1 1755   5.640   2.749   1.141
  604TIP3    H2 1756   5.681   2.797   1.004
  605TIP3   OH2 1757   5.782   2.919   0.913
  605TIP3    H1 1758   5.847   2.854   0.883
  605TIP3    H2 1759   5.836   2.971   0.977
  606TIP3   OH2 1760   4.836   2.751   0.960
  606TIP3    H1 1761   4.746   2.788   0.942
  606TIP3    H2 1762   4.867   2.813   1.028
  607TIP3   OH2 1763   5.038   2.684   0.776
  607TIP3    H1 1764   4.974   2.725   0.837
  607TIP3    H2 1765   5.059   2.757   0.715
  608TIP3   OH2 1766   5.508   2.777   0.599
  608TIP3    H1 1767   5.430   2.791   0.543
  608TIP3    H2 1768   5.507   2.857   0.657
  609TIP3   OH2 1769   5.772   2.704   0.657
  609TIP3    H1 1770   5.678   2.724   0.638
  609TIP3    H2 1771   5.816   2.780   0.615
  610TIP3   OH2 1772   5.980   2.897   0.570
  610TIP3    H1 1773   5.965   2.980   0.520
  610TIP3    H2 1774   6.005   2.835   0.497
  611TIP3   OH2 1775   4.751   2.553   0.690
  611TIP3    H1 1776   4.782   2.535   0.782
  611TIP3    H2 1777   4.827   2.514   0.642
  612TIP3   OH2 1778   4.949   2.426   0.552
  612TIP3    H1 1779   4.964   2.342   0.601
  612TIP3    H2 1780   5.039   2.465   0.552
  613TIP3   OH2 1781   5.217   2.519   0.552
  613TIP3    H1 1782   5.248   2.427   0.546
  613TIP3    H2 1783   5.254   2.542   0.640
  614TIP3   OH2 1784   4.541   2.329   0.078
  614TIP3    H1 1785   4.455   2.292   0.049
  614TIP3    H2 1786   4.525   2.424   0.060
  615TIP3   OH2 1787   5.243   1.160   1.544
  615TIP3    H1 1788   5.209   1.090   1.603
  615TIP3    H2 1789   5.338   1.161   1.572
  616TIP3   OH2 1790   5.494   1.163   1.663
  616TIP3    H1 1791   5.577   1.140   1.618
  616TIP3    H2 1792   5.486   1.091   1.729
  617TIP3   OH2 1793   4.656   2.370  -0.234
  617TIP3    H1 1794   4.611   2.395  -0.152
  617TIP3    H2 1795   4.676   2.276  -0.217
  618TIP3   OH2 1796   6.304   1.227   1.462
  618TIP3    H1 1797   6.326   1.199   1.553
  618TIP3    H2 1798   6.392   1.226   1.418
  619TIP3   OH2 1799   6.255   2.774   0.946
  619TIP3    H1 1800   6.176   2.743   0.897
  619TIP3    H2 1801   6.235   2.869   0.955
  620TIP3   OH2 1802   6.839   2.071   0.462
  620TIP3    H1 1803   6.877   2.058   0.551
  620TIP3    H2 1804   6.885   2.153   0.437
  621TIP3   OH2 1805   6.789   2.462   0.204
  621TIP3    H1 1806   6.768   2.388   0.145
  621TIP3    H2 1807   6.881   2.446   0.229
  622TIP3   OH2 1808   7.064   2.300   0.303
  622TIP3    H1 1809   7.042   2.375   0.363
  622TIP3    H2 1810   7.158   2.287   0.329
  623TIP3   OH2 1811   6.994   2.506   0.474
  623TIP3    H1 1812   6.975   2.598   0.446
  623TIP3    H2 1813   6.919   2.492   0.535
  624TIP3   OH2 1814   7.211   2.606   0.624
  624TIP3    H1 1815   7.148   2.671   0.663
  624TIP3    H2 1816   7.149   2.554   0.569
  625TIP3   OH2 1817   6.953   2.175   0.708
  625TIP3    H1 1818   6.966   2.262   0.753
  625TIP3    H2 1819   6.866   2.149   0.745
  626TIP3   OH2 1820   7.002   2.773   0.698
  626TIP3    H1 1821   6.967   2.784   0.608
  626TIP3    H2 1822   6.921   2.753   0.750
  627TIP3   OH2 1823   6.580   2.300   0.647
  627TIP3    H1 1824   6.507   2.286   0.582
  627TIP3    H2 1825   6.611   2.210   0.665
  628TIP3   OH2 1826   6.443   2.494   0.282
  628TIP3    H1 1827   6.538   2.505   0.266
  628TIP3    H2 1828   6.425   2.571   0.338
  629TIP3   OH2 1829   7.398   2.725   0.460
  629TIP3    H1 1830   7.403   2.818   0.492
  629TIP3    H2 1831   7.332   2.687   0.521
  630TIP3   OH2 1832   6.776   2.494   0.636
  630TIP3    H1 1833   6.825   2.478   0.719
  630TIP3    H2 1834   6.704   2.428   0.642
  631TIP3   OH2 1835   6.969   1.868   0.752
  631TIP3    H1 1836   6.894   1.924   0.777
  631TIP3    H2 1837   6.925   1.788   0.718
  632TIP3   OH2 1838   6.948   2.415   0.853
  632TIP3    H1 1839   7.028   2.444   0.900
  632TIP3    H2 1840   6.884   2.413   0.928
  633TIP3   OH2 1841   7.506   2.450   0.569
  633TIP3    H1 1842   7.523   2.487   0.656
  633TIP3    H2 1843   7.496   2.530   0.514
  634TIP3   OH2 1844   6.706   2.078   0.784
  634TIP3    H1 1845   6.710   2.069   0.882
  634TIP3    H2 1846   6.624   2.032   0.764
  635TIP3   OH2 1847   7.417   2.208   0.798
  635TIP3    H1 1848   7.337   2.158   0.770
  635TIP3    H2 1849   7.475   2.186   0.722
  636TIP3   OH2 1850   7.184   2.831   0.305
  636TIP3    H1 1851   7.200   2.846   0.211
  636TIP3    H2 1852   7.269   2.795   0.336
  637TIP3   OH2 1853   6.627   2.682   0.432
  637TIP3    H1 1854   6.680   2.613   0.474
  637TIP3    H2 1855   6.657   2.761   0.480
  638TIP3   OH2 1856   6.620   3.003   0.843
  638TIP3    H1 1857   6.706   3.005   0.891
  638TIP3    H2 1858   6.602   2.907   0.842
  639TIP3   OH2 1859   7.090   2.951   0.892
  639TIP3    H1 1860   7.186   2.941   0.896
  639TIP3    H2 1861   7.068   2.890   0.818
  640TIP3   OH2 1862   6.746   2.402   1.044
  640TIP3    H1 1863   6.760   2.306   1.053
  640TIP3    H2 1864   6.659   2.406   0.999
  641TIP3   OH2 1865   7.367   2.489   0.818
  641TIP3    H1 1866   7.318   2.510   0.735
  641TIP3    H2 1867   7.385   2.393   0.806
  642TIP3   OH2 1868   6.872   2.137   1.027
  642TIP3    H1 1869   6.953   2.090   1.001
  642TIP3    H2 1870   6.897   2.170   1.116
  643TIP3   OH2 1871   7.214   2.059   0.696
  643TIP3    H1 1872   7.121   2.091   0.703
  643TIP3    H2 1873   7.202   1.990   0.629
  644TIP3   OH2 1874   7.163   1.947   1.059
  644TIP3    H1 1875   7.106   1.875   1.093
  644TIP3    H2 1876   7.187   1.912   0.971
  645TIP3   OH2 1877   7.028   1.715   1.122
  645TIP3    H1 1878   7.061   1.664   1.044
  645TIP3    H2 1879   7.066   1.666   1.198
  646TIP3   OH2 1880   6.359   2.658   0.037
  646TIP3    H1 1881   6.347   2.576   0.087
  646TIP3    H2 1882   6.427   2.702   0.089
  647TIP3   OH2 1883   6.566   2.068   0.411
  647TIP3    H1 1884   6.571   1.998   0.344
  647TIP3    H2 1885   6.661   2.081   0.431
  648TIP3   OH2 1886   6.766   1.751   1.063
  648TIP3    H1 1887   6.862   1.744   1.077
  648TIP3    H2 1888   6.736   1.668   1.106
  649TIP3   OH2 1889   6.782   2.729   0.861
  649TIP3    H1 1890   6.688   2.705   0.846
  649TIP3    H2 1891   6.791   2.714   0.955
  650TIP3   OH2 1892   6.948   2.773   0.420
  650TIP3    H1 1893   6.902   2.840   0.366
  650TIP3    H2 1894   7.039   2.788   0.385
  651TIP3   OH2 1895   7.404   3.003   0.541
  651TIP3    H1 1896   7.450   3.006   0.628
  651TIP3    H2 1897   7.466   3.051   0.483
  652TIP3   OH2 1898   7.575   3.141   0.332
  652TIP3    H1 1899   7.611   3.120   0.244
  652TIP3    H2 1900   7.590   3.237   0.335
  653TIP3   OH2 1901   6.632   3.009   0.455
  653TIP3    H1 1902   6.545   3.044   0.426
  653TIP3    H2 1903   6.648   3.067   0.532
  654TIP3   OH2 1904   6.846   3.000   0.281
  654TIP3    H1 1905   6.774   2.996   0.348
  654TIP3    H2 1906   6.810   3.072   0.226
  655TIP3   OH2 1907   6.537   2.796   0.195
  655TIP3    H1 1908   6.576   2.768   0.281
  655TIP3    H2 1909   6.614   2.776   0.137
  656TIP3   OH2 1910   6.751   2.693   0.063
  656TIP3    H1 1911   6.765   2.613   0.117
  656TIP3    H2 1912   6.838   2.704   0.021
  657TIP3   OH2 1913   0.885   2.668   2.056
  657TIP3    H1 1914   0.815   2.708   2.000
  657TIP3    H2 1915   0.911   2.744   2.112
  658TIP3   OH2 1916   0.358   3.490   1.647
  658TIP3    H1 1917   0.295   3.416   1.659
  658TIP3    H2 1918   0.336   3.521   1.555
  659TIP3   OH2 1919   0.513   3.398   1.986
  659TIP3    H1 1920   0.512   3.323   1.923
  659TIP3    H2 1921   0.503   3.476   1.927
  660TIP3   OH2 1922   0.729   3.023   1.830
  660TIP3    H1 1923   0.650   3.082   1.835
  660TIP3    H2 1924   0.760   3.043   1.739
  661TIP3   OH2 1925   0.441   2.904   2.149
  661TIP3    H1 1926   0.408   2.983   2.195
  661TIP3    H2 1927   0.367   2.886   2.087
  662TIP3   OH2 1928   0.755   3.746   2.030
  662TIP3    H1 1929   0.752   3.649   2.044
  662TIP3    H2 1930   0.669   3.771   2.070
  663TIP3   OH2 1931  -0.125   3.530   2.183
  663TIP3    H1 1932  -0.131   3.627   2.203
  663TIP3    H2 1933  -0.219   3.508   2.178
  664TIP3   OH2 1934   0.651   2.864   2.316
  664TIP3    H1 1935   0.573   2.880   2.258
  664TIP3    H2 1936   0.657   2.767   2.311
  665TIP3   OH2 1937   0.109   2.852   2.507
  665TIP3    H1 1938   0.123   2.761   2.536
  665TIP3    H2 1939   0.201   2.884   2.504
  666TIP3   OH2 1940   0.447   4.090   2.123
  666TIP3    H1 1941   0.442   4.119   2.030
  666TIP3    H2 1942   0.522   4.144   2.156
  667TIP3   OH2 1943   0.500   3.168   1.827
  667TIP3    H1 1944   0.499   3.198   1.733
  667TIP3    H2 1945   0.449   3.086   1.819
  668TIP3   OH2 1946   0.010   3.288   2.200
  668TIP3    H1 1947   0.030   3.289   2.295
  668TIP3    H2 1948  -0.039   3.374   2.191
  669TIP3   OH2 1949   0.127   3.536   2.070
  669TIP3    H1 1950   0.036   3.549   2.107
  669TIP3    H2 1951   0.177   3.581   2.142
  670TIP3   OH2 1952   0.763   3.458   2.079
  670TIP3    H1 1953   0.665   3.450   2.067
  670TIP3    H2 1954   0.794   3.425   1.991
  671TIP3   OH2 1955   0.271   3.777   1.962
  671TIP3    H1 1956   0.192   3.721   1.950
  671TIP3    H2 1957   0.253   3.848   1.896
  672TIP3   OH2 1958   0.656   2.599   2.232
  672TIP3    H1 1959   0.571   2.557   2.215
  672TIP3    H2 1960   0.694   2.609   2.143
  673TIP3   OH2 1961   0.291   3.796   1.574
  673TIP3    H1 1962   0.247   3.813   1.490
  673TIP3    H2 1963   0.386   3.800   1.549
  674TIP3   OH2 1964  -0.456   3.736   2.593
  674TIP3    H1 1965  -0.362   3.743   2.614
  674TIP3    H2 1966  -0.454   3.741   2.497
  675TIP3   OH2 1967   0.195   3.649   2.311
  675TIP3    H1 1968   0.188   3.582   2.383
  675TIP3    H2 1969   0.269   3.705   2.343
  676TIP3   OH2 1970  -0.185   3.286   2.527
  676TIP3    H1 1971  -0.216   3.271   2.435
  676TIP3    H2 1972  -0.110   3.224   2.532
  677TIP3   OH2 1973   0.293   3.271   2.101
  677TIP3    H1 1974   0.363   3.332   2.068
  677TIP3    H2 1975   0.215   3.329   2.106
  678TIP3   OH2 1976   0.158   3.203   2.509
  678TIP3    H1 1977   0.238   3.183   2.457
  678TIP3    H2 1978   0.169   3.143   2.585
  679TIP3   OH2 1979   0.387   2.879   2.565
  679TIP3    H1 1980   0.439   2.798   2.577
  679TIP3    H2 1981   0.451   2.938   2.522
  680TIP3   OH2 1982   0.422   3.151   2.306
  680TIP3    H1 1983   0.367   3.193   2.236
  680TIP3    H2 1984   0.511   3.168   2.267
  681TIP3   OH2 1985   0.535   2.555   2.595
  681TIP3    H1 1986   0.541   2.458   2.608
  681TIP3    H2 1987   0.519   2.586   2.687
  682TIP3   OH2 1988   0.557   3.841   1.518
  682TIP3    H1 1989   0.577   3.874   1.608
  682TIP3    H2 1990   0.609   3.901   1.463
  683TIP3   OH2 1991   0.588   3.874   1.795
  683TIP3    H1 1992   0.546   3.786   1.803
  683TIP3    H2 1993   0.666   3.860   1.849
  684TIP3   OH2 1994   0.627   3.539   2.371
  684TIP3    H1 1995   0.555   3.551   2.437
  684TIP3    H2 1996   0.670   3.627   2.373
  685TIP3   OH2 1997   0.706   3.359   1.619
  685TIP3    H1 1998   0.730   3.272   1.580
  685TIP3    H2 1999   0.686   3.413   1.540
  686TIP3   OH2 2000   0.475   3.631   1.844
  686TIP3    H1 2001   0.396   3.673   1.885
  686TIP3    H2 2002   0.436   3.588   1.764
  687TIP3   OH2 2003   0.671   3.203   2.200
  687TIP3    H1 2004   0.741   3.135   2.183
  687TIP3    H2 2005   0.693   3.272   2.135
  688TIP3   OH2 2006   0.854   3.002   2.199
  688TIP3    H1 2007   0.781   2.953   2.244
  688TIP3    H2 2008   0.930   2.947   2.227
  689TIP3   OH2 2009   0.653   2.798   1.966
  689TIP3    H1 2010   0.574   2.823   2.017
  689TIP3    H2 2011   0.672   2.881   1.918
  690TIP3   OH2 2012   1.065   2.414   2.513
  690TIP3    H1 2013   1.127   2.352   2.469
  690TIP3    H2 2014   1.025   2.460   2.436
  691TIP3   OH2 2015   0.924   2.541   2.319
  691TIP3    H1 2016   0.840   2.580   2.351
  691TIP3    H2 2017   0.903   2.527   2.226
  692TIP3   OH2 2018  -0.141   3.797   2.236
  692TIP3    H1 2019  -0.101   3.799   2.326
  692TIP3    H2 2020  -0.075   3.849   2.185
  693TIP3   OH2 2021   0.043   3.940   2.099
  693TIP3    H1 2022   0.120   3.896   2.060
  693TIP3    H2 2023   0.088   4.003   2.159
  694TIP3   OH2 2024   0.017   3.765   1.824
  694TIP3    H1 2025  -0.072   3.791   1.850
  694TIP3    H2 2026   0.057   3.851   1.799
  695TIP3   OH2 2027   0.216   3.964   1.771
  695TIP3    H1 2028   0.205   4.049   1.722
  695TIP3    H2 2029   0.243   3.905   1.697
  696TIP3   OH2 2030   0.593   2.289   2.645
  696TIP3    H1 2031   0.602   2.249   2.734
  696TIP3    H2 2032   0.669   2.250   2.598
  697TIP3   OH2 2033   0.503   3.821   2.124
  697TIP3    H1 2034   0.425   3.792   2.073
  697TIP3    H2 2035   0.487   3.918   2.129
  698TIP3   OH2 2036   1.763   3.198   0.885
  698TIP3    H1 2037   1.748   3.288   0.850
  698TIP3    H2 2038   1.682   3.188   0.937
  699TIP3   OH2 2039   1.778   3.190   1.272
  699TIP3    H1 2040   1.812   3.174   1.362
  699TIP3    H2 2041   1.733   3.106   1.253
  700TIP3   OH2 2042   1.075   3.090   1.638
  700TIP3    H1 2043   1.101   3.017   1.698
  700TIP3    H2 2044   1.160   3.136   1.628
  701TIP3   OH2 2045   2.019   3.497   0.957
  701TIP3    H1 2046   2.005   3.431   1.026
  701TIP3    H2 2047   2.050   3.574   1.007
  702TIP3   OH2 2048   1.045   3.490   1.346
  702TIP3    H1 2049   1.042   3.394   1.360
  702TIP3    H2 2050   1.142   3.503   1.335
  703TIP3   OH2 2051   1.669   3.958   0.972
  703TIP3    H1 2052   1.710   3.888   0.918
  703TIP3    H2 2053   1.662   3.915   1.058
  704TIP3   OH2 2054   1.568   3.423   1.322
  704TIP3    H1 2055   1.603   3.350   1.268
  704TIP3    H2 2056   1.652   3.466   1.347
  705TIP3   OH2 2057   2.586   2.730   1.314
  705TIP3    H1 2058   2.605   2.810   1.368
  705TIP3    H2 2059   2.614   2.760   1.226
  706TIP3   OH2 2060   1.984   2.919   1.350
  706TIP3    H1 2061   2.024   2.832   1.368
  706TIP3    H2 2062   1.951   2.905   1.259
  707TIP3   OH2 2063   2.019   2.672   0.961
  707TIP3    H1 2064   2.104   2.659   1.009
  707TIP3    H2 2065   2.050   2.699   0.873
  708TIP3   OH2 2066   1.406   2.969   1.236
  708TIP3    H1 2067   1.501   2.952   1.252
  708TIP3    H2 2068   1.397   2.933   1.145
  709TIP3   OH2 2069   2.626   2.927   1.504
  709TIP3    H1 2070   2.558   2.995   1.481
  709TIP3    H2 2071   2.698   2.981   1.542
  710TIP3   OH2 2072   1.317   2.552   1.756
  710TIP3    H1 2073   1.251   2.597   1.698
  710TIP3    H2 2074   1.272   2.566   1.842
  711TIP3   OH2 2075   1.649   3.416   0.769
  711TIP3    H1 2076   1.607   3.414   0.682
  711TIP3    H2 2077   1.616   3.503   0.801
  712TIP3   OH2 2078   1.426   3.340   1.540
  712TIP3    H1 2079   1.368   3.411   1.575
  712TIP3    H2 2080   1.472   3.386   1.466
  713TIP3   OH2 2081   2.232   2.662   1.133
  713TIP3    H1 2082   2.192   2.652   1.221
  713TIP3    H2 2083   2.282   2.746   1.144
  714TIP3   OH2 2084   1.158   2.686   1.584
  714TIP3    H1 2085   1.218   2.763   1.582
  714TIP3    H2 2086   1.172   2.646   1.497
  715TIP3   OH2 2087   1.257   3.538   1.638
  715TIP3    H1 2088   1.233   3.626   1.603
  715TIP3    H2 2089   1.178   3.522   1.694
  716TIP3   OH2 2090   2.084   3.742   1.116
  716TIP3    H1 2091   1.994   3.733   1.155
  716TIP3    H2 2092   2.076   3.828   1.071
  717TIP3   OH2 2093   2.382   2.621   1.477
  717TIP3    H1 2094   2.298   2.665   1.452
  717TIP3    H2 2095   2.445   2.661   1.413
  718TIP3   OH2 2096   1.693   2.291   1.454
  718TIP3    H1 2097   1.647   2.207   1.446
  718TIP3    H2 2098   1.616   2.351   1.468
  719TIP3   OH2 2099   1.781   3.785   0.788
  719TIP3    H1 2100   1.831   3.702   0.769
  719TIP3    H2 2101   1.846   3.850   0.750
  720TIP3   OH2 2102   1.925   3.569   0.706
  720TIP3    H1 2103   1.932   3.493   0.646
  720TIP3    H2 2104   1.962   3.533   0.789
  721TIP3   OH2 2105   2.310   3.649   1.462
  721TIP3    H1 2106   2.298   3.573   1.401
  721TIP3    H2 2107   2.292   3.725   1.402
  722TIP3   OH2 2108   2.504   3.289   1.307
  722TIP3    H1 2109   2.422   3.342   1.310
  722TIP3    H2 2110   2.538   3.314   1.218
  723TIP3   OH2 2111   1.947   3.123   0.690
  723TIP3    H1 2112   1.890   3.149   0.766
  723TIP3    H2 2113   2.032   3.106   0.734
  724TIP3   OH2 2114   2.182   3.165   1.612
  724TIP3    H1 2115   2.182   3.247   1.664
  724TIP3    H2 2116   2.096   3.172   1.566
  725TIP3   OH2 2117   1.308   3.526   1.255
  725TIP3    H1 2118   1.300   3.506   1.160
  725TIP3    H2 2119   1.398   3.491   1.275
  726TIP3   OH2 2120   1.309   3.102   1.461
  726TIP3    H1 2121   1.345   3.068   1.376
  726TIP3    H2 2122   1.360   3.185   1.475
  727TIP3   OH2 2123   1.843   3.735   1.240
  727TIP3    H1 2124   1.831   3.815   1.293
  727TIP3    H2 2125   1.827   3.663   1.304
  728TIP3   OH2 2126   1.459   3.652   1.788
  728TIP3    H1 2127   1.397   3.713   1.833
  728TIP3    H2 2128   1.396   3.599   1.735
  729TIP3   OH2 2129   1.218   3.206   1.897
  729TIP3    H1 2130   1.218   3.296   1.934
  729TIP3    H2 2131   1.123   3.183   1.908
  730TIP3   OH2 2132   1.534   3.670   0.782
  730TIP3    H1 2133   1.620   3.715   0.793
  730TIP3    H2 2134   1.475   3.743   0.759
  731TIP3   OH2 2135   1.252   3.816   1.874
  731TIP3    H1 2136   1.217   3.822   1.783
  731TIP3    H2 2137   1.171   3.795   1.926
  732TIP3   OH2 2138   2.095   3.600   0.111
  732TIP3    H1 2139   2.115   3.694   0.094
  732TIP3    H2 2140   2.185   3.561   0.106
  733TIP3   OH2 2141   0.849   3.357   1.847
  733TIP3    H1 2142   0.794   3.353   1.765
  733TIP3    H2 2143   0.882   3.265   1.855
  734TIP3   OH2 2144   0.714   3.576   1.425
  734TIP3    H1 2145   0.809   3.580   1.445
  734TIP3    H2 2146   0.680   3.643   1.487
  735TIP3   OH2 2147   2.548   3.999   1.513
  735TIP3    H1 2148   2.547   3.903   1.528
  735TIP3    H2 2149   2.465   4.025   1.558
  736TIP3   OH2 2150   1.654   3.780   1.645
  736TIP3    H1 2151   1.650   3.873   1.676
  736TIP3    H2 2152   1.583   3.739   1.699
  737TIP3   OH2 2153   1.421   3.901   0.607
  737TIP3    H1 2154   1.382   3.887   0.518
  737TIP3    H2 2155   1.390   3.990   0.630
  738TIP3   OH2 2156   0.850   3.768   0.974
  738TIP3    H1 2157   0.890   3.744   1.061
  738TIP3    H2 2158   0.806   3.684   0.949
  739TIP3   OH2 2159   1.611   3.802   0.242
  739TIP3    H1 2160   1.670   3.745   0.189
  739TIP3    H2 2161   1.660   3.812   0.325
  740TIP3   OH2 2162   1.674   3.864   0.512
  740TIP3    H1 2163   1.585   3.870   0.551
  740TIP3    H2 2164   1.724   3.824   0.584
  741TIP3   OH2 2165   2.434   3.123   1.788
  741TIP3    H1 2166   2.354   3.130   1.735
  741TIP3    H2 2167   2.450   3.026   1.788
  742TIP3   OH2 2168   1.040   3.544   1.804
  742TIP3    H1 2169   1.092   3.533   1.886
  742TIP3    H2 2170   0.968   3.480   1.819
  743TIP3   OH2 2171   1.972   2.469   1.791
  743TIP3    H1 2172   2.038   2.450   1.860
  743TIP3    H2 2173   1.886   2.457   1.838
  744TIP3   OH2 2174   2.199   2.898   1.699
  744TIP3    H1 2175   2.154   2.898   1.786
  744TIP3    H2 2176   2.181   2.988   1.666
  745TIP3   OH2 2177   1.367   2.880   1.609
  745TIP3    H1 2178   1.319   2.899   1.692
  745TIP3    H2 2179   1.348   2.961   1.557
  746TIP3   OH2 2180   1.769   2.874   0.845
  746TIP3    H1 2181   1.687   2.920   0.823
  746TIP3    H2 2182   1.823   2.893   0.766
  747TIP3   OH2 2183   1.915   3.118   1.937
  747TIP3    H1 2184   1.894   3.047   2.000
  747TIP3    H2 2185   2.009   3.135   1.959
  748TIP3   OH2 2186   1.895   2.875   1.095
  748TIP3    H1 2187   1.844   2.904   1.017
  748TIP3    H2 2188   1.934   2.793   1.056
  749TIP3   OH2 2189   1.191   2.906   1.818
  749TIP3    H1 2190   1.210   2.966   1.892
  749TIP3    H2 2191   1.171   2.822   1.862
  750TIP3   OH2 2192   1.903   3.117   1.513
  750TIP3    H1 2193   1.938   3.046   1.454
  750TIP3    H2 2194   1.873   3.062   1.588
  751TIP3   OH2 2195   2.066   2.656   1.382
  751TIP3    H1 2196   2.040   2.671   1.476
  751TIP3    H2 2197   1.997   2.591   1.357
  752TIP3   OH2 2198   2.244   4.346   1.611
  752TIP3    H1 2199   2.242   4.372   1.517
  752TIP3    H2 2200   2.325   4.393   1.641
  753TIP3   OH2 2201   1.198   3.458   2.028
  753TIP3    H1 2202   1.278   3.487   2.077
  753TIP3    H2 2203   1.132   3.458   2.100
  754TIP3   OH2 2204   1.670   2.912   1.284
  754TIP3    H1 2205   1.745   2.878   1.231
  754TIP3    H2 2206   1.678   2.863   1.367
  755TIP3   OH2 2207   1.635   2.808   1.582
  755TIP3    H1 2208   1.546   2.849   1.590
  755TIP3    H2 2209   1.693   2.872   1.627
  756TIP3   OH2 2210   2.271   3.434   1.294
  756TIP3    H1 2211   2.296   3.485   1.214
  756TIP3    H2 2212   2.187   3.392   1.266
  757TIP3   OH2 2213   1.767   3.513   1.668
  757TIP3    H1 2214   1.807   3.504   1.756
  757TIP3    H2 2215   1.732   3.604   1.670
  758TIP3   OH2 2216   1.051   3.209   1.340
  758TIP3    H1 2217   1.105   3.181   1.265
  758TIP3    H2 2218   1.097   3.165   1.414
  759TIP3   OH2 2219   0.958   3.124   1.959
  759TIP3    H1 2220   0.964   3.113   2.055
  759TIP3    H2 2221   0.883   3.065   1.937
  760TIP3   OH2 2222   1.675   3.256   1.979
  760TIP3    H1 2223   1.613   3.197   1.934
  760TIP3    H2 2224   1.761   3.221   1.947
  761TIP3   OH2 2225   1.930   3.772   1.568
  761TIP3    H1 2226   1.833   3.775   1.579
  761TIP3    H2 2227   1.958   3.827   1.643
  762TIP3   OH2 2228   2.331   2.852   0.458
  762TIP3    H1 2229   2.259   2.805   0.415
  762TIP3    H2 2230   2.322   2.941   0.414
  763TIP3   OH2 2231   2.560   3.708   1.551
  763TIP3    H1 2232   2.463   3.702   1.542
  763TIP3    H2 2233   2.587   3.679   1.461
  764TIP3   OH2 2234   2.047   3.666   0.380
  764TIP3    H1 2235   2.009   3.595   0.433
  764TIP3    H2 2236   2.052   3.625   0.291
  765TIP3   OH2 2237   2.037   3.299   1.209
  765TIP3    H1 2238   1.944   3.273   1.224
  765TIP3    H2 2239   2.071   3.218   1.166
  766TIP3   OH2 2240   1.199   3.537   0.976
  766TIP3    H1 2241   1.175   3.626   0.940
  766TIP3    H2 2242   1.111   3.497   0.990
  767TIP3   OH2 2243   1.366   3.310   0.978
  767TIP3    H1 2244   1.328   3.398   0.962
  767TIP3    H2 2245   1.287   3.253   0.979
  768TIP3   OH2 2246   1.439   3.865   1.435
  768TIP3    H1 2247   1.480   3.939   1.386
  768TIP3    H2 2248   1.516   3.829   1.482
  769TIP3   OH2 2249   1.104   3.768   0.862
  769TIP3    H1 2250   1.010   3.782   0.884
  769TIP3    H2 2251   1.130   3.859   0.836
  770TIP3   OH2 2252   1.820   3.501   1.400
  770TIP3    H1 2253   1.810   3.499   1.498
  770TIP3    H2 2254   1.903   3.452   1.388
  771TIP3   OH2 2255   1.815   3.431   0.295
  771TIP3    H1 2256   1.867   3.400   0.372
  771TIP3    H2 2257   1.747   3.362   0.288
  772TIP3   OH2 2258   2.071   4.032   1.446
  772TIP3    H1 2259   1.989   3.979   1.439
  772TIP3    H2 2260   2.057   4.098   1.374
  773TIP3   OH2 2261   2.140   3.875   0.093
  773TIP3    H1 2262   2.192   3.950   0.060
  773TIP3    H2 2263   2.062   3.922   0.128
  774TIP3   OH2 2264   1.153   2.637   1.971
  774TIP3    H1 2265   1.056   2.639   1.983
  774TIP3    H2 2266   1.183   2.593   2.052
  775TIP3   OH2 2267   1.967   3.354   0.522
  775TIP3    H1 2268   1.945   3.271   0.569
  775TIP3    H2 2269   2.059   3.334   0.495
  776TIP3   OH2 2270   0.886   3.728   1.604
  776TIP3    H1 2271   0.939   3.665   1.656
  776TIP3    H2 2272   0.901   3.810   1.653
  777TIP3   OH2 2273   2.001   2.705   1.643
  777TIP3    H1 2274   2.077   2.754   1.681
  777TIP3    H2 2275   1.991   2.629   1.704
  778TIP3   OH2 2276   1.371   3.559   0.478
  778TIP3    H1 2277   1.356   3.581   0.572
  778TIP3    H2 2278   1.390   3.648   0.441
  779TIP3   OH2 2279   1.835   2.956   1.722
  779TIP3    H1 2280   1.859   3.011   1.799
  779TIP3    H2 2281   1.889   2.876   1.736
  780TIP3   OH2 2282   2.469   2.855   1.725
  780TIP3    H1 2283   2.373   2.847   1.705
  780TIP3    H2 2284   2.509   2.862   1.636
  781TIP3   OH2 2285   2.123   3.054   1.093
  781TIP3    H1 2286   2.046   2.995   1.106
  781TIP3    H2 2287   2.194   3.006   1.141
  782TIP3   OH2 2288   2.094   4.012   1.038
  782TIP3    H1 2289   2.051   4.060   0.963
  782TIP3    H2 2290   2.188   4.031   1.019
  783TIP3   OH2 2291   0.868   4.045   2.021
  783TIP3    H1 2292   0.954   4.048   2.067
  783TIP3    H2 2293   0.850   3.950   2.021
  784TIP3   OH2 2294   1.342   3.995   2.068
  784TIP3    H1 2295   1.437   3.983   2.070
  784TIP3    H2 2296   1.317   3.934   1.995
  785TIP3   OH2 2297   1.982   3.911   1.800
  785TIP3    H1 2298   1.978   3.841   1.869
  785TIP3    H2 2299   2.060   3.962   1.828
  786TIP3   OH2 2300   1.771   3.615   0.103
  786TIP3    H1 2301   1.792   3.556   0.179
  786TIP3    H2 2302   1.857   3.622   0.059
  787TIP3   OH2 2303   0.998   3.446   2.223
  787TIP3    H1 2304   1.012   3.349   2.226
  787TIP3    H2 2305   0.909   3.451   2.181
  788TIP3   OH2 2306   1.601   3.534   1.995
  788TIP3    H1 2307   1.561   3.556   1.908
  788TIP3    H2 2308   1.633   3.442   1.981
  789TIP3   OH2 2309   2.094   3.546   1.602
  789TIP3    H1 2310   2.172   3.586   1.558
  789TIP3    H2 2311   2.027   3.616   1.586
  790TIP3   OH2 2312   1.115   3.181   2.209
  790TIP3    H1 2313   1.195   3.141   2.174
  790TIP3    H2 2314   1.146   3.215   2.296
  791TIP3   OH2 2315   1.456   3.066   1.867
  791TIP3    H1 2316   1.375   3.122   1.867
  791TIP3    H2 2317   1.503   3.100   1.788
  792TIP3   OH2 2318   1.967   3.465   1.996
  792TIP3    H1 2319   2.045   3.436   1.948
  792TIP3    H2 2320   1.963   3.401   2.070
  793TIP3   OH2 2321   1.576   2.854   1.988
  793TIP3    H1 2322   1.573   2.776   1.928
  793TIP3    H2 2323   1.532   2.923   1.932
  794TIP3   OH2 2324   1.576   2.636   1.798
  794TIP3    H1 2325   1.601   2.683   1.716
  794TIP3    H2 2326   1.483   2.610   1.779
  795TIP3   OH2 2327   1.600   3.172   1.668
  795TIP3    H1 2328   1.687   3.191   1.630
  795TIP3    H2 2329   1.543   3.239   1.624
  796TIP3   OH2 2330   2.183   3.140   2.047
  796TIP3    H1 2331   2.236   3.059   2.059
  796TIP3    H2 2332   2.249   3.201   2.011
  797TIP3   OH2 2333   2.222   3.395   1.785
  797TIP3    H1 2334   2.166   3.452   1.727
  797TIP3    H2 2335   2.311   3.416   1.747
  798TIP3   OH2 2336   1.455   2.958   2.225
  798TIP3    H1 2337   1.386   2.890   2.239
  798TIP3    H2 2338   1.486   2.936   2.134
  799TIP3   OH2 2339   1.708   2.402   1.867
  799TIP3    H1 2340   1.661   2.486   1.846
  799TIP3    H2 2341   1.638   2.337   1.844
  800TIP3   OH2 2342   1.835   2.901   2.082
  800TIP3    H1 2343   1.819   2.889   2.177
  800TIP3    H2 2344   1.746   2.880   2.047
  801TIP3   OH2 2345   2.070   2.851   1.933
  801TIP3    H1 2346   1.997   2.857   1.998
  801TIP3    H2 2347   2.146   2.827   1.990
  802TIP3   OH2 2348   2.293   2.796   2.088
  802TIP3    H1 2349   2.311   2.701   2.105
  802TIP3    H2 2350   2.295   2.834   2.178
  803TIP3   OH2 2351   1.291   2.742   2.281
  803TIP3    H1 2352   1.291   2.649   2.250
  803TIP3    H2 2353   1.328   2.731   2.370
  804TIP3   OH2 2354   1.800   2.409   2.126
  804TIP3    H1 2355   1.867   2.339   2.116
  804TIP3    H2 2356   1.758   2.408   2.038
  805TIP3   OH2 2357   1.866   2.624   2.286
  805TIP3    H1 2358   1.844   2.555   2.221
  805TIP3    H2 2359   1.789   2.685   2.279
  806TIP3   OH2 2360   0.621   3.726   1.218
  806TIP3    H1 2361   0.651   3.667   1.291
  806TIP3    H2 2362   0.667   3.807   1.245
  807TIP3   OH2 2363   2.350   4.098   1.002
  807TIP3    H1 2364   2.375   4.132   1.089
  807TIP3    H2 2365   2.416   4.139   0.944
  808TIP3   OH2 2366   2.374   4.120   1.285
  808TIP3    H1 2367   2.331   4.031   1.281
  808TIP3    H2 2368   2.452   4.097   1.339
  809TIP3   OH2 2369   2.423   3.797   1.857
  809TIP3    H1 2370   2.352   3.808   1.923
  809TIP3    H2 2371   2.466   3.884   1.860
  810TIP3   OH2 2372   2.242   3.300   0.467
  810TIP3    H1 2373   2.305   3.370   0.439
  810TIP3    H2 2374   2.287   3.266   0.547
  811TIP3   OH2 2375   2.369   3.172   0.676
  811TIP3    H1 2376   2.301   3.135   0.736
  811TIP3    H2 2377   2.433   3.212   0.739
  812TIP3   OH2 2378   2.424   3.571   1.109
  812TIP3    H1 2379   2.477   3.503   1.063
  812TIP3    H2 2380   2.422   3.644   1.044
  813TIP3   OH2 2381   2.250   3.869   1.304
  813TIP3    H1 2382   2.178   3.912   1.354
  813TIP3    H2 2383   2.201   3.824   1.232
  814TIP3   OH2 2384   2.283   3.077   0.310
  814TIP3    H1 2385   2.218   3.095   0.238
  814TIP3    H2 2386   2.262   3.154   0.368
  815TIP3   OH2 2387   2.178   3.041   0.824
  815TIP3    H1 2388   2.170   2.944   0.811
  815TIP3    H2 2389   2.164   3.050   0.921
  816TIP3   OH2 2390   0.813   3.102   1.578
  816TIP3    H1 2391   0.819   3.072   1.486
  816TIP3    H2 2392   0.909   3.103   1.602
  817TIP3   OH2 2393   2.469   3.461   1.682
  817TIP3    H1 2394   2.540   3.394   1.672
  817TIP3    H2 2395   2.496   3.529   1.618
  818TIP3   OH2 2396   2.648   3.260   1.690
  818TIP3    H1 2397   2.575   3.209   1.732
  818TIP3    H2 2398   2.722   3.197   1.706
  819TIP3   OH2 2399   2.169   2.776   0.742
  819TIP3    H1 2400   2.219   2.696   0.771
  819TIP3    H2 2401   2.218   2.798   0.662
  820TIP3   OH2 2402   2.334   2.917   1.214
  820TIP3    H1 2403   2.419   2.943   1.171
  820TIP3    H2 2404   2.348   2.959   1.301
  821TIP3   OH2 2405   2.399   3.074   1.442
  821TIP3    H1 2406   2.323   3.111   1.490
  821TIP3    H2 2407   2.435   3.153   1.396
  822TIP3   OH2 2408   1.026   2.801   2.262
  822TIP3    H1 2409   1.124   2.792   2.261
  822TIP3    H2 2410   1.001   2.716   2.302
  823TIP3   OH2 2411   2.855   2.659   2.001
  823TIP3    H1 2412   2.918   2.597   1.959
  823TIP3    H2 2413   2.827   2.715   1.924
  824TIP3   OH2 2414   2.302   2.552   0.796
  824TIP3    H1 2415   2.335   2.499   0.871
  824TIP3    H2 2416   2.265   2.485   0.734
  825TIP3   OH2 2417   2.724   2.800   1.809
  825TIP3    H1 2418   2.635   2.839   1.818
  825TIP3    H2 2419   2.703   2.727   1.748
  826TIP3   OH2 2420   1.932   3.968   0.658
  826TIP3    H1 2421   1.983   3.957   0.574
  826TIP3    H2 2422   1.985   4.034   0.705
  827TIP3   OH2 2423   1.032   3.770   2.037
  827TIP3    H1 2424   0.937   3.750   2.024
  827TIP3    H2 2425   1.042   3.758   2.133
  828TIP3   OH2 2426   1.214   3.808   1.587
  828TIP3    H1 2427   1.165   3.884   1.549
  828TIP3    H2 2428   1.299   3.822   1.540
  829TIP3   OH2 2429   1.650   4.047   1.724
  829TIP3    H1 2430   1.692   4.047   1.812
  829TIP3    H2 2431   1.715   4.100   1.673
  830TIP3   OH2 2432   1.830   4.203   1.588
  830TIP3    H1 2433   1.901   4.154   1.544
  830TIP3    H2 2434   1.883   4.260   1.648
  831TIP3   OH2 2435   2.629   2.565   1.690
  831TIP3    H1 2436   2.545   2.571   1.640
  831TIP3    H2 2437   2.658   2.473   1.671
  832TIP3   OH2 2438   0.885   4.056   1.620
  832TIP3    H1 2439   0.794   4.084   1.596
  832TIP3    H2 2440   0.902   4.116   1.695
  833TIP3   OH2 2441   1.121   4.040   1.473
  833TIP3    H1 2442   1.033   4.051   1.516
  833TIP3    H2 2443   1.102   4.072   1.383
  834TIP3   OH2 2444   1.546   4.065   1.270
  834TIP3    H1 2445   1.477   4.083   1.204
  834TIP3    H2 2446   1.558   4.153   1.311
  835TIP3   OH2 2447   1.817   4.003   1.323
  835TIP3    H1 2448   1.723   4.023   1.303
  835TIP3    H2 2449   1.862   4.076   1.277
  836TIP3   OH2 2450   2.018   4.194   1.232
  836TIP3    H1 2451   2.007   4.280   1.185
  836TIP3    H2 2452   2.048   4.135   1.159
  837TIP3   OH2 2453   0.813   3.872   1.361
  837TIP3    H1 2454   0.836   3.844   1.452
  837TIP3    H2 2455   0.878   3.819   1.310
  838TIP3   OH2 2456   0.988   3.724   1.214
  838TIP3    H1 2457   1.007   3.641   1.263
  838TIP3    H2 2458   1.078   3.762   1.207
  839TIP3   OH2 2459   1.257   3.821   1.220
  839TIP3    H1 2460   1.290   3.731   1.201
  839TIP3    H2 2461   1.307   3.839   1.302
  840TIP3   OH2 2462   1.856   2.475   1.316
  840TIP3    H1 2463   1.799   2.420   1.374
  840TIP3    H2 2464   1.849   2.429   1.232
  841TIP3   OH2 2465   2.379   2.329   1.201
  841TIP3    H1 2466   2.417   2.396   1.140
  841TIP3    H2 2467   2.289   2.366   1.219
  842TIP3   OH2 2468   2.480   2.449   0.981
  842TIP3    H1 2469   2.561   2.418   0.935
  842TIP3    H2 2470   2.495   2.546   0.972
  843TIP3   OH2 2471   2.115   2.363   1.229
  843TIP3    H1 2472   2.073   2.425   1.167
  843TIP3    H2 2473   2.049   2.291   1.229
  844TIP3   OH2 2474   1.361   3.823   0.347
  844TIP3    H1 2475   1.448   3.823   0.299
  844TIP3    H2 2476   1.301   3.791   0.279
  845TIP3   OH2 2477   2.078   3.934   0.424
  845TIP3    H1 2478   2.072   3.836   0.413
  845TIP3    H2 2479   2.032   3.964   0.343
  846TIP3   OH2 2480   1.282   2.473   2.219
  846TIP3    H1 2481   1.251   2.398   2.273
  846TIP3    H2 2482   1.378   2.469   2.239
  847TIP3   OH2 2483   1.538   2.464   2.329
  847TIP3    H1 2484   1.624   2.440   2.291
  847TIP3    H2 2485   1.526   2.393   2.396
  848TIP3   OH2 2486   2.368   2.526   2.117
  848TIP3    H1 2487   2.387   2.498   2.209
  848TIP3    H2 2488   2.457   2.526   2.077
  849TIP3   OH2 2489   2.298   4.076   1.610
  849TIP3    H1 2490   2.221   4.047   1.558
  849TIP3    H2 2491   2.281   4.172   1.616
  850TIP3   OH2 2492   3.572   3.455   0.368
  850TIP3    H1 2493   3.540   3.545   0.347
  850TIP3    H2 2494   3.494   3.402   0.344
  851TIP3   OH2 2495   3.571   3.447   0.762
  851TIP3    H1 2496   3.609   3.427   0.850
  851TIP3    H2 2497   3.526   3.363   0.742
  852TIP3   OH2 2498   2.862   3.349   1.127
  852TIP3    H1 2499   2.897   3.306   1.206
  852TIP3    H2 2500   2.942   3.396   1.097
  853TIP3   OH2 2501   3.817   3.756   0.440
  853TIP3    H1 2502   3.796   3.689   0.507
  853TIP3    H2 2503   3.844   3.832   0.495
  854TIP3   OH2 2504   2.840   3.753   0.841
  854TIP3    H1 2505   2.832   3.655   0.843
  854TIP3    H2 2506   2.937   3.763   0.838
  855TIP3   OH2 2507   2.543   2.952   0.622
  855TIP3    H1 2508   2.507   3.040   0.646
  855TIP3    H2 2509   2.461   2.909   0.592
  856TIP3   OH2 2510   2.602   3.245   0.807
  856TIP3    H1 2511   2.653   3.168   0.841
  856TIP3    H2 2512   2.669   3.292   0.755
  857TIP3   OH2 2513   3.462   4.211   0.453
  857TIP3    H1 2514   3.509   4.137   0.409
  857TIP3    H2 2515   3.450   4.177   0.543
  858TIP3   OH2 2516   3.366   3.678   0.803
  858TIP3    H1 2517   3.407   3.599   0.763
  858TIP3    H2 2518   3.448   3.725   0.829
  859TIP3   OH2 2519   4.381   2.996   0.804
  859TIP3    H1 2520   4.411   3.079   0.848
  859TIP3    H2 2521   4.402   3.015   0.711
  860TIP3   OH2 2522   3.787   3.177   0.831
  860TIP3    H1 2523   3.825   3.090   0.854
  860TIP3    H2 2524   3.750   3.158   0.742
  861TIP3   OH2 2525   3.127   2.830   0.798
  861TIP3    H1 2526   3.105   2.908   0.743
  861TIP3    H2 2527   3.072   2.762   0.754
  862TIP3   OH2 2528   3.816   2.925   0.420
  862TIP3    H1 2529   3.886   2.911   0.488
  862TIP3    H2 2530   3.869   2.962   0.347
  863TIP3   OH2 2531   2.748   3.037   0.906
  863TIP3    H1 2532   2.831   3.020   0.955
  863TIP3    H2 2533   2.765   2.983   0.826
  864TIP3   OH2 2534   3.189   3.238   0.708
  864TIP3    H1 2535   3.284   3.216   0.720
  864TIP3    H2 2536   3.152   3.152   0.679
  865TIP3   OH2 2537   4.455   3.205   0.972
  865TIP3    H1 2538   4.369   3.250   0.956
  865TIP3    H2 2539   4.474   3.235   1.062
  866TIP3   OH2 2540   3.467   3.679   0.234
  866TIP3    H1 2541   3.417   3.660   0.154
  866TIP3    H2 2542   3.418   3.757   0.268
  867TIP3   OH2 2543   3.223   3.597   1.027
  867TIP3    H1 2544   3.163   3.666   1.064
  867TIP3    H2 2545   3.265   3.646   0.952
  868TIP3   OH2 2546   4.017   2.934   0.604
  868TIP3    H1 2547   3.991   2.898   0.689
  868TIP3    H2 2548   4.067   3.014   0.630
  869TIP3   OH2 2549   2.977   2.930   1.012
  869TIP3    H1 2550   3.040   2.989   1.060
  869TIP3    H2 2551   3.038   2.893   0.945
  870TIP3   OH2 2552   3.052   3.794   1.127
  870TIP3    H1 2553   3.026   3.882   1.093
  870TIP3    H2 2554   2.972   3.775   1.181
  871TIP3   OH2 2555   2.440   3.480   0.369
  871TIP3    H1 2556   2.401   3.503   0.282
  871TIP3    H2 2557   2.471   3.568   0.400
  872TIP3   OH2 2558   3.882   3.996   0.600
  872TIP3    H1 2559   3.793   3.987   0.643
  872TIP3    H2 2560   3.873   4.084   0.558
  873TIP3   OH2 2561   4.176   2.891   0.969
  873TIP3    H1 2562   4.089   2.920   0.938
  873TIP3    H2 2563   4.236   2.926   0.899
  874TIP3   OH2 2564   3.465   2.535   0.952
  874TIP3    H1 2565   3.448   2.441   0.971
  874TIP3    H2 2566   3.391   2.577   1.001
  875TIP3   OH2 2567   3.585   4.039   0.271
  875TIP3    H1 2568   3.635   3.956   0.254
  875TIP3    H2 2569   3.652   4.104   0.239
  876TIP3   OH2 2570   3.729   3.819   0.186
  876TIP3    H1 2571   3.660   3.750   0.176
  876TIP3    H2 2572   3.771   3.790   0.270
  877TIP3   OH2 2573   4.108   3.906   0.948
  877TIP3    H1 2574   4.092   3.829   0.890
  877TIP3    H2 2575   4.087   3.981   0.888
  878TIP3   OH2 2576   3.400   3.299   0.207
  878TIP3    H1 2577   3.320   3.352   0.191
  878TIP3    H2 2578   3.442   3.300   0.120
  879TIP3   OH2 2579   3.349   3.075  -0.060
  879TIP3    H1 2580   3.421   3.136  -0.035
  879TIP3    H2 2581   3.398   2.995  -0.083
  880TIP3   OH2 2582   4.302   3.549   0.796
  880TIP3    H1 2583   4.217   3.598   0.800
  880TIP3    H2 2584   4.331   3.573   0.705
  881TIP3   OH2 2585   3.748   3.379   0.175
  881TIP3    H1 2586   3.692   3.406   0.252
  881TIP3    H2 2587   3.832   3.357   0.221
  882TIP3   OH2 2588   3.980   3.421   1.095
  882TIP3    H1 2589   3.976   3.504   1.145
  882TIP3    H2 2590   3.893   3.424   1.050
  883TIP3   OH2 2591   2.981   3.380   0.593
  883TIP3    H1 2592   2.945   3.319   0.524
  883TIP3    H2 2593   3.057   3.329   0.628
  884TIP3   OH2 2594   3.110   3.793   0.741
  884TIP3    H1 2595   3.091   3.759   0.652
  884TIP3    H2 2596   3.199   3.757   0.760
  885TIP3   OH2 2597   3.100   3.360   0.955
  885TIP3    H1 2598   3.143   3.322   0.875
  885TIP3    H2 2599   3.156   3.438   0.973
  886TIP3   OH2 2600   3.645   3.991   0.727
  886TIP3    H1 2601   3.629   4.072   0.778
  886TIP3    H2 2602   3.626   3.919   0.791
  887TIP3   OH2 2603   3.255   3.908   1.274
  887TIP3    H1 2604   3.193   3.970   1.319
  887TIP3    H2 2605   3.191   3.855   1.222
  888TIP3   OH2 2606   3.589   3.241  -0.005
  888TIP3    H1 2607   3.644   3.301   0.051
  888TIP3    H2 2608   3.624   3.263  -0.094
  889TIP3   OH2 2609   3.001   3.471   1.368
  889TIP3    H1 2610   3.009   3.558   1.410
  889TIP3    H2 2611   2.909   3.447   1.392
  890TIP3   OH2 2612   3.335   3.914   0.282
  890TIP3    H1 2613   3.412   3.973   0.291
  890TIP3    H2 2614   3.270   3.971   0.238
  891TIP3   OH2 2615   3.048   4.073   1.361
  891TIP3    H1 2616   3.013   4.078   1.270
  891TIP3    H2 2617   2.967   4.052   1.413
  892TIP3   OH2 2618   4.108   2.485   0.053
  892TIP3    H1 2619   4.024   2.503   0.101
  892TIP3    H2 2620   4.118   2.566  -0.001
  893TIP3   OH2 2621   2.852   3.222   0.383
  893TIP3    H1 2622   2.779   3.270   0.338
  893TIP3    H2 2623   2.806   3.144   0.416
  894TIP3   OH2 2624   2.625   3.610   1.308
  894TIP3    H1 2625   2.559   3.589   1.239
  894TIP3    H2 2626   2.664   3.523   1.328
  895TIP3   OH2 2627   2.482   3.800   0.940
  895TIP3    H1 2628   2.579   3.796   0.930
  895TIP3    H2 2629   2.473   3.879   0.996
  896TIP3   OH2 2630   4.346   4.257   0.998
  896TIP3    H1 2631   4.345   4.161   1.014
  896TIP3    H2 2632   4.262   4.282   1.044
  897TIP3   OH2 2633   3.451   4.037   1.131
  897TIP3    H1 2634   3.447   4.130   1.163
  897TIP3    H2 2635   3.379   3.997   1.185
  898TIP3   OH2 2636   3.209   4.165   0.083
  898TIP3    H1 2637   3.158   4.151   0.001
  898TIP3    H2 2638   3.179   4.254   0.111
  899TIP3   OH2 2639   2.651   4.014   0.469
  899TIP3    H1 2640   2.698   4.006   0.555
  899TIP3    H2 2641   2.601   3.930   0.467
  900TIP3   OH2 2642   3.424   4.029  -0.229
  900TIP3    H1 2643   3.513   3.993  -0.238
  900TIP3    H2 2644   3.430   4.062  -0.137
  901TIP3   OH2 2645   3.465   4.117   0.024
  901TIP3    H1 2646   3.373   4.129   0.057
  901TIP3    H2 2647   3.511   4.087   0.105
  902TIP3   OH2 2648   4.235   3.383   1.271
  902TIP3    H1 2649   4.149   3.392   1.226
  902TIP3    H2 2650   4.251   3.287   1.263
  903TIP3   OH2 2651   2.831   3.792   1.289
  903TIP3    H1 2652   2.880   3.776   1.372
  903TIP3    H2 2653   2.757   3.728   1.298
  904TIP3   OH2 2654   3.233   2.623   1.087
  904TIP3    H1 2655   3.140   2.599   1.066
  904TIP3    H2 2656   3.225   2.718   1.102
  905TIP3   OH2 2657   3.764   2.724   1.277
  905TIP3    H1 2658   3.832   2.701   1.343
  905TIP3    H2 2659   3.680   2.716   1.326
  906TIP3   OH2 2660   4.001   3.160   1.195
  906TIP3    H1 2661   3.949   3.156   1.278
  906TIP3    H2 2662   3.975   3.246   1.158
  907TIP3   OH2 2663   3.684   3.306  -0.255
  907TIP3    H1 2664   3.640   3.283  -0.338
  907TIP3    H2 2665   3.691   3.403  -0.262
  908TIP3   OH2 2666   3.390   2.687   0.056
  908TIP3    H1 2667   3.355   2.673   0.146
  908TIP3    H2 2668   3.355   2.611   0.009
  909TIP3   OH2 2669   3.168   3.107   1.097
  909TIP3    H1 2670   3.179   3.096   1.195
  909TIP3    H2 2671   3.147   3.201   1.085
  910TIP3   OH2 2672   3.047   3.018   0.620
  910TIP3    H1 2673   2.954   2.991   0.638
  910TIP3    H2 2674   3.058   2.978   0.530
  911TIP3   OH2 2675   3.535   3.099   0.344
  911TIP3    H1 2676   3.486   3.171   0.299
  911TIP3    H2 2677   3.590   3.064   0.272
  912TIP3   OH2 2678   3.713   3.377   1.425
  912TIP3    H1 2679   3.688   3.306   1.488
  912TIP3    H2 2680   3.806   3.391   1.449
  913TIP3   OH2 2681   3.696   3.126   0.577
  913TIP3    H1 2682   3.628   3.153   0.513
  913TIP3    H2 2683   3.729   3.046   0.531
  914TIP3   OH2 2684   3.036   2.610   0.025
  914TIP3    H1 2685   3.043   2.623   0.122
  914TIP3    H2 2686   2.964   2.671   0.005
  915TIP3   OH2 2687   2.584   2.682   0.897
  915TIP3    H1 2688   2.651   2.719   0.958
  915TIP3    H2 2689   2.634   2.671   0.816
  916TIP3   OH2 2690   2.574   2.702   0.428
  916TIP3    H1 2691   2.630   2.733   0.353
  916TIP3    H2 2692   2.518   2.781   0.443
  917TIP3   OH2 2693   3.706   3.374   0.996
  917TIP3    H1 2694   3.739   3.302   0.937
  917TIP3    H2 2695   3.674   3.320   1.072
  918TIP3   OH2 2696   3.380   2.831   0.671
  918TIP3    H1 2697   3.298   2.833   0.724
  918TIP3    H2 2698   3.449   2.837   0.739
  919TIP3   OH2 2699   2.807   2.897   0.675
  919TIP3    H1 2700   2.713   2.902   0.646
  919TIP3    H2 2701   2.833   2.806   0.652
  920TIP3   OH2 2702   3.077   2.896   0.379
  920TIP3    H1 2703   3.172   2.911   0.361
  920TIP3    H2 2704   3.033   2.913   0.292
  921TIP3   OH2 2705   3.866   2.912   0.870
  921TIP3    H1 2706   3.841   2.926   0.964
  921TIP3    H2 2707   3.792   2.855   0.840
  922TIP3   OH2 2708   2.928   2.908   0.153
  922TIP3    H1 2709   2.831   2.904   0.143
  922TIP3    H2 2710   2.958   2.957   0.074
  923TIP3   OH2 2711   4.041   4.602   1.098
  923TIP3    H1 2712   4.035   4.629   1.004
  923TIP3    H2 2713   4.117   4.653   1.129
  924TIP3   OH2 2714   2.992   3.715   1.514
  924TIP3    H1 2715   3.073   3.742   1.562
  924TIP3    H2 2716   2.928   3.714   1.588
  925TIP3   OH2 2717   3.452   3.175   0.767
  925TIP3    H1 2718   3.529   3.126   0.736
  925TIP3    H2 2719   3.445   3.142   0.860
  926TIP3   OH2 2720   2.968   2.656   0.649
  926TIP3    H1 2721   2.934   2.580   0.700
  926TIP3    H2 2722   3.016   2.612   0.577
  927TIP3   OH2 2723   3.441   3.087   1.022
  927TIP3    H1 2724   3.351   3.079   1.059
  927TIP3    H2 2725   3.492   3.123   1.097
  928TIP3   OH2 2726   3.172   3.451   0.156
  928TIP3    H1 2727   3.096   3.390   0.143
  928TIP3    H2 2728   3.150   3.488   0.245
  929TIP3   OH2 2729   4.066   3.690   0.781
  929TIP3    H1 2730   4.088   3.742   0.701
  929TIP3    H2 2731   3.982   3.647   0.755
  930TIP3   OH2 2732   3.650   2.763   0.017
  930TIP3    H1 2733   3.555   2.739   0.018
  930TIP3    H2 2734   3.649   2.858   0.040
  931TIP3   OH2 2735   3.571   3.776   1.151
  931TIP3    H1 2736   3.592   3.752   1.242
  931TIP3    H2 2737   3.530   3.864   1.162
  932TIP3   OH2 2738   3.692   3.016   0.127
  932TIP3    H1 2739   3.789   3.020   0.143
  932TIP3    H2 2740   3.675   3.096   0.075
  933TIP3   OH2 2741   2.861   3.471   0.827
  933TIP3    H1 2742   2.900   3.448   0.740
  933TIP3    H2 2743   2.919   3.422   0.887
  934TIP3   OH2 2744   3.314   3.603  -0.022
  934TIP3    H1 2745   3.267   3.690  -0.015
  934TIP3    H2 2746   3.260   3.549   0.039
  935TIP3   OH2 2747   2.743   3.397   1.446
  935TIP3    H1 2748   2.765   3.386   1.541
  935TIP3    H2 2749   2.674   3.330   1.434
  936TIP3   OH2 2750   3.471   3.521   1.472
  936TIP3    H1 2751   3.396   3.464   1.445
  936TIP3    H2 2752   3.546   3.475   1.430
  937TIP3   OH2 2753   3.728   4.034   1.049
  937TIP3    H1 2754   3.631   4.031   1.063
  937TIP3    H2 2755   3.755   4.086   1.128
  938TIP3   OH2 2756   4.134   3.109  -0.041
  938TIP3    H1 2757   4.075   3.065  -0.107
  938TIP3    H2 2758   4.126   3.200  -0.075
  939TIP3   OH2 2759   4.358   3.967   1.036
  939TIP3    H1 2760   4.260   3.960   1.029
  939TIP3    H2 2761   4.384   3.936   0.947
  940TIP3   OH2 2762   3.866   3.915  -0.143
  940TIP3    H1 2763   3.831   3.869  -0.064
  940TIP3    H2 2764   3.808   3.882  -0.214
  941TIP3   OH2 2765   3.834   3.554   0.694
  941TIP3    H1 2766   3.741   3.529   0.711
  941TIP3    H2 2767   3.866   3.472   0.652
  942TIP3   OH2 2768   2.965   3.782   0.454
  942TIP3    H1 2769   2.961   3.864   0.402
  942TIP3    H2 2770   2.871   3.766   0.472
  943TIP3   OH2 2771   2.536   3.082   0.184
  943TIP3    H1 2772   2.573   3.172   0.194
  943TIP3    H2 2773   2.446   3.094   0.221
  944TIP3   OH2 2774   3.094   3.544   0.396
  944TIP3    H1 2775   3.061   3.634   0.415
  944TIP3    H2 2776   3.061   3.495   0.473
  945TIP3   OH2 2777   3.234   4.124   0.923
  945TIP3    H1 2778   3.275   4.198   0.874
  945TIP3    H2 2779   3.311   4.088   0.971
  946TIP3   OH2 2780   2.882   4.020   0.310
  946TIP3    H1 2781   2.797   4.031   0.356
  946TIP3    H2 2782   2.916   4.112   0.313
  947TIP3   OH2 2783   3.617   3.758   0.885
  947TIP3    H1 2784   3.605   3.760   0.983
  947TIP3    H2 2785   3.697   3.704   0.877
  948TIP3   OH2 2786   3.588   3.600  -0.237
  948TIP3    H1 2787   3.642   3.602  -0.155
  948TIP3    H2 2788   3.499   3.618  -0.202
  949TIP3   OH2 2789   3.869   4.287   0.932
  949TIP3    H1 2790   3.788   4.233   0.929
  949TIP3    H2 2791   3.851   4.352   0.861
  950TIP3   OH2 2792   3.757   3.572  -0.024
  950TIP3    H1 2793   3.747   3.514   0.054
  950TIP3    H2 2794   3.855   3.580  -0.028
  951TIP3   OH2 2795   2.670   3.986   1.083
  951TIP3    H1 2796   2.726   3.917   1.124
  951TIP3    H2 2797   2.697   4.064   1.132
  952TIP3   OH2 2798   2.981   3.629  -0.220
  952TIP3    H1 2799   2.925   3.568  -0.271
  952TIP3    H2 2800   2.941   3.624  -0.131
  953TIP3   OH2 2801   2.899   3.642   0.047
  953TIP3    H1 2802   2.973   3.618   0.103
  953TIP3    H2 2803   2.904   3.740   0.049
  954TIP3   OH2 2804   2.639   3.333   0.247
  954TIP3    H1 2805   2.572   3.379   0.303
  954TIP3    H2 2806   2.650   3.401   0.177
  955TIP3   OH2 2807   3.805   2.955   1.130
  955TIP3    H1 2808   3.876   3.003   1.177
  955TIP3    H2 2809   3.787   2.879   1.189
  956TIP3   OH2 2810   3.670   2.714   0.303
  956TIP3    H1 2811   3.662   2.735   0.208
  956TIP3    H2 2812   3.712   2.795   0.338
  957TIP3   OH2 2813   3.176   3.833  -0.007
  957TIP3    H1 2814   3.090   3.865   0.028
  957TIP3    H2 2815   3.180   3.881  -0.091
  958TIP3   OH2 2816   3.354   2.899   0.404
  958TIP3    H1 2817   3.419   2.971   0.387
  958TIP3    H2 2818   3.363   2.888   0.502
  959TIP3   OH2 2819   3.642   3.217   1.206
  959TIP3    H1 2820   3.656   3.274   1.285
  959TIP3    H2 2821   3.687   3.135   1.232
  960TIP3   OH2 2822   3.503   2.616   0.504
  960TIP3    H1 2823   3.494   2.693   0.563
  960TIP3    H2 2824   3.566   2.651   0.436
  961TIP3   OH2 2825   2.922   3.911   0.061
  961TIP3    H1 2826   2.892   3.982  -0.001
  961TIP3    H2 2827   2.905   3.953   0.148
  962TIP3   OH2 2828   3.038   2.637   0.305
  962TIP3    H1 2829   3.032   2.728   0.341
  962TIP3    H2 2830   3.135   2.623   0.312
  963TIP3   OH2 2831   4.267   3.115   1.193
  963TIP3    H1 2832   4.169   3.116   1.200
  963TIP3    H2 2833   4.276   3.068   1.109
  964TIP3   OH2 2834   3.920   3.308   0.577
  964TIP3    H1 2835   3.842   3.251   0.592
  964TIP3    H2 2836   3.989   3.261   0.628
  965TIP3   OH2 2837   2.634   3.540   0.056
  965TIP3    H1 2838   2.709   3.601   0.065
  965TIP3    H2 2839   2.676   3.478  -0.009
  966TIP3   OH2 2840   2.627   2.831   0.171
  966TIP3    H1 2841   2.596   2.924   0.177
  966TIP3    H2 2842   2.560   2.794   0.112
  967TIP3   OH2 2843   3.892   4.265   0.527
  967TIP3    H1 2844   3.846   4.313   0.454
  967TIP3    H2 2845   3.985   4.283   0.503
  968TIP3   OH2 2846   2.968   2.536   1.054
  968TIP3    H1 2847   2.937   2.507   0.966
  968TIP3    H2 2848   2.955   2.455   1.108
  969TIP3   OH2 2849   2.500   3.751   0.431
  969TIP3    H1 2850   2.437   3.781   0.499
  969TIP3    H2 2851   2.464   3.796   0.351
  970TIP3   OH2 2852   2.664   4.303   1.509
  970TIP3    H1 2853   2.751   4.305   1.555
  970TIP3    H2 2854   2.649   4.207   1.506
  971TIP3   OH2 2855   3.136   4.251   1.555
  971TIP3    H1 2856   3.232   4.241   1.558
  971TIP3    H2 2857   3.113   4.191   1.482
  972TIP3   OH2 2858   3.145   3.829  -0.304
  972TIP3    H1 2859   3.069   3.772  -0.278
  972TIP3    H2 2860   3.209   3.760  -0.326
  973TIP3   OH2 2861   3.782   4.166   1.284
  973TIP3    H1 2862   3.775   4.097   1.354
  973TIP3    H2 2863   3.857   4.219   1.316
  974TIP3   OH2 2864   2.790   3.703   1.708
  974TIP3    H1 2865   2.808   3.607   1.713
  974TIP3    H2 2866   2.704   3.705   1.662
  975TIP3   OH2 2867   2.784   3.364  -0.080
  975TIP3    H1 2868   2.855   3.332  -0.020
  975TIP3    H2 2869   2.805   3.322  -0.164
  976TIP3   OH2 2870   3.397   3.792   1.482
  976TIP3    H1 2871   3.355   3.810   1.395
  976TIP3    H2 2872   3.428   3.699   1.472
  977TIP3   OH2 2873   3.286   3.556  -0.292
  977TIP3    H1 2874   3.285   3.576  -0.196
  977TIP3    H2 2875   3.260   3.464  -0.293
  978TIP3   OH2 2876   3.891   3.800   1.089
  978TIP3    H1 2877   3.966   3.846   1.046
  978TIP3    H2 2878   3.819   3.865   1.075
  979TIP3   OH2 2879   2.906   3.442   1.687
  979TIP3    H1 2880   2.982   3.394   1.651
  979TIP3    H2 2881   2.941   3.471   1.775
  980TIP3   OH2 2882   2.973   3.259   0.117
  980TIP3    H1 2883   2.945   3.231   0.206
  980TIP3    H2 2884   3.011   3.177   0.080
  981TIP3   OH2 2885   3.262   3.373   1.386
  981TIP3    H1 2886   3.169   3.395   1.366
  981TIP3    H2 2887   3.302   3.371   1.296
  982TIP3   OH2 2888   3.075   3.044  -0.040
  982TIP3    H1 2889   3.075   3.021  -0.134
  982TIP3    H2 2890   3.172   3.058  -0.028
  983TIP3   OH2 2891   3.766   3.725   1.485
  983TIP3    H1 2892   3.839   3.687   1.434
  983TIP3    H2 2893   3.754   3.658   1.555
  984TIP3   OH2 2894   3.400   3.429   1.152
  984TIP3    H1 2895   3.483   3.441   1.104
  984TIP3    H2 2896   3.342   3.496   1.110
  985TIP3   OH2 2897   3.978   3.395   1.535
  985TIP3    H1 2898   4.028   3.313   1.550
  985TIP3    H2 2899   4.046   3.454   1.500
  986TIP3   OH2 2900   4.020   3.651   1.274
  986TIP3    H1 2901   3.962   3.707   1.216
  986TIP3    H2 2902   4.108   3.673   1.235
  987TIP3   OH2 2903   3.253   3.211   1.688
  987TIP3    H1 2904   3.185   3.142   1.705
  987TIP3    H2 2905   3.248   3.216   1.591
  988TIP3   OH2 2906   3.489   2.673   1.356
  988TIP3    H1 2907   3.430   2.750   1.346
  988TIP3    H2 2908   3.427   2.599   1.344
  989TIP3   OH2 2909   3.633   3.158   1.568
  989TIP3    H1 2910   3.615   3.147   1.663
  989TIP3    H2 2911   3.547   3.129   1.532
  990TIP3   OH2 2912   3.867   3.106   1.422
  990TIP3    H1 2913   3.794   3.113   1.486
  990TIP3    H2 2914   3.942   3.080   1.479
  991TIP3   OH2 2915   4.098   3.055   1.573
  991TIP3    H1 2916   4.112   2.959   1.588
  991TIP3    H2 2917   4.093   3.091   1.664
  992TIP3   OH2 2918   3.080   3.003   1.755
  992TIP3    H1 2919   3.107   2.943   1.683
  992TIP3    H2 2920   3.122   2.964   1.834
  993TIP3   OH2 2921   3.596   2.668   1.611
  993TIP3    H1 2922   3.661   2.596   1.601
  993TIP3    H2 2923   3.553   2.669   1.523
  994TIP3   OH2 2924   3.663   2.882   1.772
  994TIP3    H1 2925   3.641   2.811   1.707
  994TIP3    H2 2926   3.585   2.941   1.765
  995TIP3   OH2 2927   2.876   4.107  -0.125
  995TIP3    H1 2928   2.968   4.112  -0.159
  995TIP3    H2 2929   2.825   4.139  -0.201
  996TIP3   OH2 2930   2.363   3.499   0.102
  996TIP3    H1 2931   2.453   3.529   0.076
  996TIP3    H2 2932   2.353   3.422   0.045
  997TIP3   OH2 2933   2.282   4.105   0.502
  997TIP3    H1 2934   2.216   4.043   0.463
  997TIP3    H2 2935   2.327   4.045   0.566
  998TIP3   OH2 2936   2.416   3.949   0.687
  998TIP3    H1 2937   2.403   3.881   0.756
  998TIP3    H2 2938   2.470   4.014   0.737
  999TIP3   OH2 2939   4.151   4.345   0.489
  999TIP3    H1 2940   4.167   4.377   0.580
  999TIP3    H2 2941   4.199   4.411   0.437
 1000TIP3   OH2 2942   4.172   4.373   0.768
 1000TIP3    H1 2943   4.125   4.287   0.766
 1000TIP3    H2 2944   4.243   4.351   0.831
 1001TIP3   OH2 2945   4.220   4.053   1.342
 1001TIP3    H1 2946   4.148   4.063   1.408
 1001TIP3    H2 2947   4.262   4.142   1.347
 1002TIP3   OH2 2948   4.037   3.561  -0.031
 1002TIP3    H1 2949   4.107   3.626  -0.052
 1002TIP3    H2 2950   4.076   3.519   0.049
 1003TIP3   OH2 2951   4.165   3.428   0.169
 1003TIP3    H1 2952   4.097   3.388   0.228
 1003TIP3    H2 2953   4.229   3.467   0.233
 1004TIP3   OH2 2954   4.223   3.831   0.598
 1004TIP3    H1 2955   4.275   3.762   0.552
 1004TIP3    H2 2956   4.213   3.899   0.530
 1005TIP3   OH2 2957   4.045   4.126   0.789
 1005TIP3    H1 2958   3.974   4.169   0.841
 1005TIP3    H2 2959   3.994   4.081   0.718
 1006TIP3   OH2 2960   4.086   3.346  -0.192
 1006TIP3    H1 2961   4.006   3.338  -0.246
 1006TIP3    H2 2962   4.063   3.424  -0.136
 1007TIP3   OH2 2963   3.981   3.021  -0.246
 1007TIP3    H1 2964   3.906   3.051  -0.298
 1007TIP3    H2 2965   3.960   2.925  -0.239
 1008TIP3   OH2 2966   3.976   3.291   0.310
 1008TIP3    H1 2967   3.980   3.194   0.303
 1008TIP3    H2 2968   3.959   3.304   0.406
 1009TIP3   OH2 2969   2.600   3.363   1.059
 1009TIP3    H1 2970   2.597   3.329   0.967
 1009TIP3    H2 2971   2.697   3.365   1.075
 1010TIP3   OH2 2972   4.267   3.716   1.169
 1010TIP3    H1 2973   4.338   3.649   1.156
 1010TIP3    H2 2974   4.290   3.784   1.103
 1011TIP3   OH2 2975   4.450   3.515   1.171
 1011TIP3    H1 2976   4.375   3.468   1.213
 1011TIP3    H2 2977   4.523   3.452   1.191
 1012TIP3   OH2 2978   3.915   2.763  -0.219
 1012TIP3    H1 2979   3.998   2.718  -0.194
 1012TIP3    H2 2980   3.847   2.708  -0.178
 1013TIP3   OH2 2981   3.973   3.008   0.201
 1013TIP3    H1 2982   4.013   2.919   0.216
 1013TIP3    H2 2983   4.031   3.040   0.130
 1014TIP3   OH2 2984   4.131   3.175   0.700
 1014TIP3    H1 2985   4.217   3.200   0.659
 1014TIP3    H2 2986   4.145   3.214   0.789
 1015TIP3   OH2 2987   4.204   3.325   0.928
 1015TIP3    H1 2988   4.127   3.358   0.979
 1015TIP3    H2 2989   4.236   3.407   0.886
 1016TIP3   OH2 2990   2.814   3.049   1.724
 1016TIP3    H1 2991   2.912   3.042   1.727
 1016TIP3    H2 2992   2.790   2.963   1.764
 1017TIP3   OH2 2993   4.652   2.918   1.485
 1017TIP3    H1 2994   4.715   2.855   1.445
 1017TIP3    H2 2995   4.624   2.971   1.407
 1018TIP3   OH2 2996   4.083   2.758   0.240
 1018TIP3    H1 2997   4.128   2.743   0.326
 1018TIP3    H2 2998   4.021   2.682   0.239
 1019TIP3   OH2 2999   2.783   2.745   1.071
 1019TIP3    H1 3000   2.848   2.673   1.079
 1019TIP3    H2 3001   2.844   2.821   1.060
 1020TIP3   OH2 3002   2.577   3.013   1.131
 1020TIP3    H1 3003   2.630   3.013   1.048
 1020TIP3    H2 3004   2.605   3.096   1.171
 1021TIP3   OH2 3005   4.523   3.054   1.287
 1021TIP3    H1 3006   4.436   3.097   1.306
 1021TIP3    H2 3007   4.492   2.979   1.232
 1022TIP3   OH2 3008   4.172   2.686  -0.138
 1022TIP3    H1 3009   4.233   2.632  -0.190
 1022TIP3    H2 3010   4.226   2.766  -0.125
 1023TIP3   OH2 3011   2.553   2.534   0.645
 1023TIP3    H1 3012   2.473   2.559   0.694
 1023TIP3    H2 3013   2.555   2.600   0.572
 1024TIP3   OH2 3014   3.746   4.217   0.148
 1024TIP3    H1 3015   3.784   4.216   0.058
 1024TIP3    H2 3016   3.777   4.302   0.183
 1025TIP3   OH2 3017   2.776   2.565   1.436
 1025TIP3    H1 3018   2.754   2.602   1.522
 1025TIP3    H2 3019   2.719   2.620   1.378
 1026TIP3   OH2 3020   2.826   4.030   1.523
 1026TIP3    H1 3021   2.733   4.006   1.510
 1026TIP3    H2 3022   2.838   4.013   1.617
 1027TIP3   OH2 3023   3.009   4.064   1.074
 1027TIP3    H1 3024   2.961   4.140   1.036
 1027TIP3    H2 3025   3.095   4.077   1.028
 1028TIP3   OH2 3026   3.446   4.303   1.211
 1028TIP3    H1 3027   3.488   4.303   1.300
 1028TIP3    H2 3028   3.510   4.356   1.160
 1029TIP3   OH2 3029   3.626   4.458   1.076
 1029TIP3    H1 3030   3.697   4.409   1.033
 1029TIP3    H2 3031   3.678   4.516   1.136
 1030TIP3   OH2 3032   4.424   2.816   1.172
 1030TIP3    H1 3033   4.334   2.805   1.136
 1030TIP3    H2 3034   4.459   2.725   1.163
 1031TIP3   OH2 3035   2.681   4.315   1.104
 1031TIP3    H1 3036   2.590   4.345   1.081
 1031TIP3    H2 3037   2.699   4.373   1.179
 1032TIP3   OH2 3038   2.916   4.294   0.958
 1032TIP3    H1 3039   2.829   4.307   1.001
 1032TIP3    H2 3040   2.899   4.329   0.868
 1033TIP3   OH2 3041   3.343   4.321   0.754
 1033TIP3    H1 3042   3.273   4.340   0.689
 1033TIP3    H2 3043   3.355   4.409   0.795
 1034TIP3   OH2 3044   3.612   4.261   0.806
 1034TIP3    H1 3045   3.517   4.279   0.789
 1034TIP3    H2 3046   3.654   4.338   0.764
 1035TIP3   OH2 3047   3.821   4.453   0.720
 1035TIP3    H1 3048   3.804   4.538   0.674
 1035TIP3    H2 3049   3.844   4.394   0.645
 1036TIP3   OH2 3050   2.592   4.109   0.842
 1036TIP3    H1 3051   2.619   4.081   0.932
 1036TIP3    H2 3052   2.665   4.068   0.791
 1037TIP3   OH2 3053   2.789   3.983   0.703
 1037TIP3    H1 3054   2.804   3.899   0.752
 1037TIP3    H2 3055   2.880   4.020   0.700
 1038TIP3   OH2 3056   3.055   4.072   0.710
 1038TIP3    H1 3057   3.085   3.979   0.703
 1038TIP3    H2 3058   3.105   4.099   0.790
 1039TIP3   OH2 3059   3.634   2.732   0.792
 1039TIP3    H1 3060   3.590   2.661   0.841
 1039TIP3    H2 3061   3.708   2.686   0.748
 1040TIP3   OH2 3062   4.148   2.612   0.692
 1040TIP3    H1 3063   4.185   2.667   0.620
 1040TIP3    H2 3064   4.054   2.635   0.689
 1041TIP3   OH2 3065   4.246   2.715   0.458
 1041TIP3    H1 3066   4.321   2.664   0.421
 1041TIP3    H2 3067   4.279   2.807   0.445
 1042TIP3   OH2 3068   2.875   2.447   0.804
 1042TIP3    H1 3069   2.789   2.405   0.790
 1042TIP3    H2 3070   2.933   2.367   0.802
 1043TIP3   OH2 3071   2.742   2.381   0.510
 1043TIP3    H1 3072   2.752   2.438   0.431
 1043TIP3    H2 3073   2.680   2.435   0.564
 1044TIP3   OH2 3074   3.327   2.470   0.688
 1044TIP3    H1 3075   3.382   2.518   0.624
 1044TIP3    H2 3076   3.352   2.514   0.771
 1045TIP3   OH2 3077   3.864   2.620   0.668
 1045TIP3    H1 3078   3.868   2.578   0.581
 1045TIP3    H2 3079   3.853   2.541   0.727
 1046TIP3   OH2 3080   3.902   2.545   0.235
 1046TIP3    H1 3081   3.813   2.585   0.243
 1046TIP3    H2 3082   3.887   2.459   0.280
 1047TIP3   OH2 3083   2.380   3.889   0.232
 1047TIP3    H1 3084   2.300   3.848   0.195
 1047TIP3    H2 3085   2.363   3.982   0.212
 1048TIP3   OH2 3086   2.808   2.505   0.276
 1048TIP3    H1 3087   2.842   2.435   0.219
 1048TIP3    H2 3088   2.887   2.561   0.289
 1049TIP3   OH2 3089   3.306   2.647   0.316
 1049TIP3    H1 3090   3.367   2.604   0.379
 1049TIP3    H2 3091   3.322   2.741   0.341
 1050TIP3   OH2 3092   3.145   4.080  -0.195
 1050TIP3    H1 3093   3.240   4.090  -0.214
 1050TIP3    H2 3094   3.128   3.999  -0.249
 1051TIP3   OH2 3095   3.878   4.186  -0.098
 1051TIP3    H1 3096   3.869   4.089  -0.115
 1051TIP3    H2 3097   3.859   4.223  -0.187
 1052TIP3   OH2 3098   3.086   2.669   1.692
 1052TIP3    H1 3099   3.061   2.612   1.767
 1052TIP3    H2 3100   3.172   2.705   1.722
 1053TIP3   OH2 3101   3.334   2.723   1.821
 1053TIP3    H1 3102   3.417   2.702   1.774
 1053TIP3    H2 3103   3.327   2.647   1.882
 1054TIP3   OH2 3104   2.451   3.926  -0.101
 1054TIP3    H1 3105   2.454   3.951  -0.008
 1054TIP3    H2 3106   2.534   3.880  -0.115
 1055TIP3   OH2 3107   4.163   2.784   1.603
 1055TIP3    H1 3108   4.180   2.754   1.695
 1055TIP3    H2 3109   4.253   2.780   1.564
 1056TIP3   OH2 3110   4.097   4.332   1.093
 1056TIP3    H1 3111   4.018   4.302   1.045
 1056TIP3    H2 3112   4.077   4.428   1.103
 1057TIP3   OH2 3113   5.354   3.704   0.255
 1057TIP3    H1 3114   5.397   3.688   0.341
 1057TIP3    H2 3115   5.314   3.616   0.238
 1058TIP3   OH2 3116   4.662   3.596   0.609
 1058TIP3    H1 3117   4.688   3.523   0.669
 1058TIP3    H2 3118   4.735   3.657   0.624
 1059TIP3   OH2 3119   4.639   4.007   0.332
 1059TIP3    H1 3120   4.628   3.910   0.335
 1059TIP3    H2 3121   4.736   4.014   0.331
 1060TIP3   OH2 3122   4.347   3.220   0.105
 1060TIP3    H1 3123   4.295   3.297   0.132
 1060TIP3    H2 3124   4.275   3.161   0.075
 1061TIP3   OH2 3125   4.401   3.501   0.296
 1061TIP3    H1 3126   4.448   3.421   0.331
 1061TIP3    H2 3127   4.472   3.547   0.250
 1062TIP3   OH2 3128   5.171   3.930   0.284
 1062TIP3    H1 3129   5.212   3.847   0.255
 1062TIP3    H2 3130   5.252   3.977   0.313
 1063TIP3   OH2 3131   6.183   3.259   0.281
 1063TIP3    H1 3132   6.204   3.330   0.346
 1063TIP3    H2 3133   6.269   3.248   0.237
 1064TIP3   OH2 3134   5.588   3.436   0.350
 1064TIP3    H1 3135   5.626   3.350   0.374
 1064TIP3    H2 3136   5.545   3.414   0.266
 1065TIP3   OH2 3137   4.921   3.089   0.292
 1065TIP3    H1 3138   4.890   3.167   0.243
 1065TIP3    H2 3139   4.870   3.017   0.247
 1066TIP3   OH2 3140   5.591   3.166  -0.037
 1066TIP3    H1 3141   5.671   3.156   0.019
 1066TIP3    H2 3142   5.633   3.170  -0.125
 1067TIP3   OH2 3143   4.549   3.295   0.396
 1067TIP3    H1 3144   4.630   3.274   0.445
 1067TIP3    H2 3145   4.559   3.232   0.321
 1068TIP3   OH2 3146   4.993   3.501   0.195
 1068TIP3    H1 3147   5.088   3.477   0.208
 1068TIP3    H2 3148   4.952   3.414   0.178
 1069TIP3   OH2 3149   6.247   3.457   0.461
 1069TIP3    H1 3150   6.161   3.502   0.450
 1069TIP3    H2 3151   6.273   3.489   0.549
 1070TIP3   OH2 3152   4.911   3.067   0.726
 1070TIP3    H1 3153   4.852   3.110   0.661
 1070TIP3    H2 3154   4.862   3.087   0.808
 1071TIP3   OH2 3155   5.020   3.856   0.511
 1071TIP3    H1 3156   4.956   3.920   0.549
 1071TIP3    H2 3157   5.053   3.905   0.434
 1072TIP3   OH2 3158   5.829   3.189   0.092
 1072TIP3    H1 3159   5.839   3.125   0.164
 1072TIP3    H2 3160   5.866   3.270   0.132
 1073TIP3   OH2 3161   4.782   3.189   0.508
 1073TIP3    H1 3162   4.843   3.262   0.534
 1073TIP3    H2 3163   4.838   3.144   0.440
 1074TIP3   OH2 3164   4.847   4.048   0.614
 1074TIP3    H1 3165   4.819   4.135   0.579
 1074TIP3    H2 3166   4.769   4.029   0.670
 1075TIP3   OH2 3167   4.228   3.742  -0.129
 1075TIP3    H1 3168   4.154   3.767  -0.185
 1075TIP3    H2 3169   4.238   3.821  -0.071
 1076TIP3   OH2 3170   5.971   3.156   0.457
 1076TIP3    H1 3171   5.881   3.179   0.429
 1076TIP3    H2 3172   6.025   3.185   0.381
 1077TIP3   OH2 3173   5.259   2.790   0.438
 1077TIP3    H1 3174   5.247   2.696   0.464
 1077TIP3    H2 3175   5.183   2.831   0.486
 1078TIP3   OH2 3176   5.895   4.173   0.446
 1078TIP3    H1 3177   5.897   4.094   0.388
 1078TIP3    H2 3178   5.892   4.246   0.382
 1079TIP3   OH2 3179   6.095   3.798   0.324
 1079TIP3    H1 3180   6.024   3.862   0.305
 1079TIP3    H2 3181   6.133   3.781   0.235
 1080TIP3   OH2 3182   5.775   3.677   0.583
 1080TIP3    H1 3183   5.778   3.757   0.639
 1080TIP3    H2 3184   5.689   3.688   0.538
 1081TIP3   OH2 3185   4.774   3.619   0.085
 1081TIP3    H1 3186   4.736   3.546   0.033
 1081TIP3    H2 3187   4.854   3.576   0.125
 1082TIP3   OH2 3188   4.906   4.028   0.254
 1082TIP3    H1 3189   4.877   4.009   0.163
 1082TIP3    H2 3190   5.000   4.000   0.253
 1083TIP3   OH2 3191   4.911   3.613   0.436
 1083TIP3    H1 3192   4.951   3.588   0.350
 1083TIP3    H2 3193   4.955   3.699   0.455
 1084TIP3   OH2 3194   5.443   4.204   0.188
 1084TIP3    H1 3195   5.436   4.289   0.234
 1084TIP3    H2 3196   5.420   4.140   0.258
 1085TIP3   OH2 3197   5.055   4.164   0.749
 1085TIP3    H1 3198   4.995   4.222   0.801
 1085TIP3    H2 3199   4.987   4.111   0.700
 1086TIP3   OH2 3200   4.803   3.726   0.858
 1086TIP3    H1 3201   4.808   3.811   0.904
 1086TIP3    H2 3202   4.711   3.700   0.879
 1087TIP3   OH2 3203   4.847   4.326   0.848
 1087TIP3    H1 3204   4.809   4.330   0.759
 1087TIP3    H2 3205   4.767   4.306   0.903
 1088TIP3   OH2 3206   4.596   3.464  -0.087
 1088TIP3    H1 3207   4.514   3.508  -0.061
 1088TIP3    H2 3208   4.575   3.371  -0.065
 1089TIP3   OH2 3209   4.424   3.866   0.794
 1089TIP3    H1 3210   4.353   3.846   0.729
 1089TIP3    H2 3211   4.459   3.777   0.816
 1090TIP3   OH2 3212   4.274   4.065   0.418
 1090TIP3    H1 3213   4.371   4.064   0.427
 1090TIP3    H2 3214   4.250   4.140   0.475
 1091TIP3   OH2 3215   6.143   4.502   0.506
 1091TIP3    H1 3216   6.149   4.406   0.522
 1091TIP3    H2 3217   6.063   4.525   0.558
 1092TIP3   OH2 3218   5.225   4.342   0.636
 1092TIP3    H1 3219   5.261   4.366   0.723
 1092TIP3    H2 3220   5.158   4.276   0.664
 1093TIP3   OH2 3221   4.423   4.251  -0.027
 1093TIP3    H1 3222   4.498   4.252   0.036
 1093TIP3    H2 3223   4.351   4.230   0.037
 1094TIP3   OH2 3224   6.026   3.634   0.762
 1094TIP3    H1 3225   5.941   3.641   0.716
 1094TIP3    H2 3226   6.045   3.539   0.754
 1095TIP3   OH2 3227   4.628   4.048   0.776
 1095TIP3    H1 3228   4.675   4.033   0.861
 1095TIP3    H2 3229   4.553   3.985   0.785
 1096TIP3   OH2 3230   5.030   2.878   0.566
 1096TIP3    H1 3231   4.942   2.842   0.540
 1096TIP3    H2 3232   5.000   2.951   0.624
 1097TIP3   OH2 3233   5.535   2.979   0.789
 1097TIP3    H1 3234   5.619   2.958   0.836
 1097TIP3    H2 3235   5.470   2.969   0.862
 1098TIP3   OH2 3236   5.794   3.415   0.681
 1098TIP3    H1 3237   5.744   3.410   0.765
 1098TIP3    H2 3238   5.768   3.502   0.646
 1099TIP3   OH2 3239   4.955   3.386   0.581
 1099TIP3    H1 3240   4.913   3.405   0.667
 1099TIP3    H2 3241   4.939   3.471   0.534
 1100TIP3   OH2 3242   4.829   3.288   0.129
 1100TIP3    H1 3243   4.737   3.262   0.152
 1100TIP3    H2 3244   4.847   3.222   0.060
 1101TIP3   OH2 3245   5.507   3.635   0.914
 1101TIP3    H1 3246   5.484   3.561   0.976
 1101TIP3    H2 3247   5.600   3.648   0.937
 1102TIP3   OH2 3248   5.496   3.387   0.099
 1102TIP3    H1 3249   5.458   3.420   0.016
 1102TIP3    H2 3250   5.530   3.300   0.069
 1103TIP3   OH2 3251   4.777   3.412   0.794
 1103TIP3    H1 3252   4.811   3.471   0.863
 1103TIP3    H2 3253   4.767   3.328   0.843
 1104TIP3   OH2 3254   4.371   2.939   0.371
 1104TIP3    H1 3255   4.446   2.967   0.427
 1104TIP3    H2 3256   4.413   2.896   0.295
 1105TIP3   OH2 3257   4.329   2.914  -0.099
 1105TIP3    H1 3258   4.383   2.944  -0.175
 1105TIP3    H2 3259   4.273   2.992  -0.083
 1106TIP3   OH2 3260   5.485   3.640   0.490
 1106TIP3    H1 3261   5.529   3.570   0.437
 1106TIP3    H2 3262   5.462   3.586   0.569
 1107TIP3   OH2 3263   5.173   3.107   0.169
 1107TIP3    H1 3264   5.093   3.096   0.225
 1107TIP3    H2 3265   5.245   3.086   0.231
 1108TIP3   OH2 3266   4.602   3.149   0.168
 1108TIP3    H1 3267   4.508   3.155   0.139
 1108TIP3    H2 3268   4.626   3.057   0.147
 1109TIP3   OH2 3269   4.863   3.129  -0.087
 1109TIP3    H1 3270   4.962   3.115  -0.097
 1109TIP3    H2 3271   4.855   3.215  -0.136
 1110TIP3   OH2 3272   5.664   3.170   0.365
 1110TIP3    H1 3273   5.635   3.174   0.460
 1110TIP3    H2 3274   5.601   3.106   0.329
 1111TIP3   OH2 3275   5.840   4.859   0.598
 1111TIP3    H1 3276   5.832   4.872   0.501
 1111TIP3    H2 3277   5.923   4.907   0.617
 1112TIP3   OH2 3278   4.791   3.972   1.001
 1112TIP3    H1 3279   4.870   3.999   1.053
 1112TIP3    H2 3280   4.725   3.967   1.073
 1113TIP3   OH2 3281   5.251   3.437   0.259
 1113TIP3    H1 3282   5.327   3.386   0.225
 1113TIP3    H2 3283   5.242   3.399   0.350
 1114TIP3   OH2 3284   4.769   2.908   0.148
 1114TIP3    H1 3285   4.731   2.833   0.197
 1114TIP3    H2 3286   4.829   2.861   0.087
 1115TIP3   OH2 3287   5.231   3.351   0.514
 1115TIP3    H1 3288   5.142   3.352   0.555
 1115TIP3    H2 3289   5.287   3.383   0.587
 1116TIP3   OH2 3290   5.863   3.955   0.284
 1116TIP3    H1 3291   5.835   3.991   0.198
 1116TIP3    H2 3292   5.783   3.900   0.303
 1117TIP3   OH2 3293   5.386   4.056   0.649
 1117TIP3    H1 3294   5.415   3.998   0.721
 1117TIP3    H2 3295   5.307   4.096   0.687
 1118TIP3   OH2 3296   4.654   3.727   0.318
 1118TIP3    H1 3297   4.700   3.695   0.238
 1118TIP3    H2 3298   4.699   3.678   0.389
 1119TIP3   OH2 3299   4.543   3.651   0.931
 1119TIP3    H1 3300   4.558   3.637   1.026
 1119TIP3    H2 3301   4.472   3.586   0.913
 1120TIP3   OH2 3302   5.267   3.773   0.950
 1120TIP3    H1 3303   5.205   3.708   0.913
 1120TIP3    H2 3304   5.353   3.733   0.923
 1121TIP3   OH2 3305   5.493   4.350   0.510
 1121TIP3    H1 3306   5.428   4.282   0.535
 1121TIP3    H2 3307   5.537   4.366   0.597
 1122TIP3   OH2 3308   6.151   4.219   0.530
 1122TIP3    H1 3309   6.053   4.218   0.534
 1122TIP3    H2 3310   6.166   4.183   0.439
 1123TIP3   OH2 3311   5.627   3.802   0.241
 1123TIP3    H1 3312   5.532   3.792   0.221
 1123TIP3    H2 3313   5.661   3.719   0.202
 1124TIP3   OH2 3314   4.746   4.022   0.003
 1124TIP3    H1 3315   4.791   4.106  -0.022
 1124TIP3    H2 3316   4.666   4.058   0.047
 1125TIP3   OH2 3317   4.338   3.327  -0.296
 1125TIP3    H1 3318   4.351   3.419  -0.323
 1125TIP3    H2 3319   4.249   3.330  -0.256
 1126TIP3   OH2 3320   4.890   3.808  -0.082
 1126TIP3    H1 3321   4.830   3.876  -0.044
 1126TIP3    H2 3322   4.863   3.730  -0.029
 1127TIP3   OH2 3323   5.033   4.364   0.416
 1127TIP3    H1 3324   5.072   4.436   0.362
 1127TIP3    H2 3325   5.107   4.344   0.475
 1128TIP3   OH2 3326   5.422   4.006   0.380
 1128TIP3    H1 3327   5.413   4.009   0.478
 1128TIP3    H2 3328   5.500   3.948   0.370
 1129TIP3   OH2 3329   5.618   4.577   0.419
 1129TIP3    H1 3330   5.591   4.484   0.404
 1129TIP3    H2 3331   5.627   4.608   0.326
 1130TIP3   OH2 3332   4.750   3.160   0.935
 1130TIP3    H1 3333   4.654   3.159   0.949
 1130TIP3    H2 3334   4.782   3.107   1.010
 1131TIP3   OH2 3335   4.472   4.238   0.567
 1131TIP3    H1 3336   4.524   4.171   0.614
 1131TIP3    H2 3337   4.483   4.315   0.625
 1132TIP3   OH2 3338   5.593   3.200   0.625
 1132TIP3    H1 3339   5.664   3.247   0.673
 1132TIP3    H2 3340   5.568   3.129   0.687
 1133TIP3   OH2 3341   5.138   3.139  -0.097
 1133TIP3    H1 3342   5.181   3.220  -0.125
 1133TIP3    H2 3343   5.161   3.134  -0.001
 1134TIP3   OH2 3344   5.434   3.473   0.696
 1134TIP3    H1 3345   5.452   3.525   0.777
 1134TIP3    H2 3346   5.478   3.389   0.718
 1135TIP3   OH2 3347   5.315   2.881   0.006
 1135TIP3    H1 3348   5.315   2.938   0.086
 1135TIP3    H2 3349   5.382   2.927  -0.046
 1136TIP3   OH2 3350   4.806   2.881  -0.227
 1136TIP3    H1 3351   4.792   2.954  -0.163
 1136TIP3    H2 3352   4.897   2.855  -0.199
 1137TIP3   OH2 3353   6.059   3.368   0.679
 1137TIP3    H1 3354   5.961   3.372   0.687
 1137TIP3    H2 3355   6.067   3.310   0.602
 1138TIP3   OH2 3356   5.714   3.573   0.109
 1138TIP3    H1 3357   5.638   3.512   0.123
 1138TIP3    H2 3358   5.786   3.520   0.149
 1139TIP3   OH2 3359   4.385   3.060  -0.336
 1139TIP3    H1 3360   4.371   3.156  -0.322
 1139TIP3    H2 3361   4.297   3.031  -0.365
 1140TIP3   OH2 3362   4.764   2.791   0.539
 1140TIP3    H1 3363   4.733   2.752   0.454
 1140TIP3    H2 3364   4.756   2.715   0.600
 1141TIP3   OH2 3365   4.262   3.989  -0.026
 1141TIP3    H1 3366   4.228   4.043   0.048
 1141TIP3    H2 3367   4.302   4.059  -0.082
 1142TIP3   OH2 3368   4.461   4.559   0.991
 1142TIP3    H1 3369   4.546   4.559   1.040
 1142TIP3    H2 3370   4.438   4.465   0.992
 1143TIP3   OH2 3371   4.938   4.518   1.028
 1143TIP3    H1 3372   5.029   4.491   1.045
 1143TIP3    H2 3373   4.910   4.448   0.965
 1144TIP3   OH2 3374   5.580   4.415   0.759
 1144TIP3    H1 3375   5.567   4.350   0.832
 1144TIP3    H2 3376   5.653   4.469   0.795
 1145TIP3   OH2 3377   4.589   3.961   1.192
 1145TIP3    H1 3378   4.603   3.865   1.203
 1145TIP3    H2 3379   4.501   3.963   1.148
 1146TIP3   OH2 3380   5.196   4.046   0.965
 1146TIP3    H1 3381   5.147   4.057   0.882
 1146TIP3    H2 3382   5.227   3.953   0.960
 1147TIP3   OH2 3383   5.688   4.039   0.570
 1147TIP3    H1 3384   5.760   4.095   0.534
 1147TIP3    H2 3385   5.613   4.099   0.571
 1148TIP3   OH2 3386   4.712   3.697   1.176
 1148TIP3    H1 3387   4.786   3.640   1.154
 1148TIP3    H2 3388   4.738   3.729   1.265
 1149TIP3   OH2 3389   5.040   3.582   0.839
 1149TIP3    H1 3390   4.961   3.640   0.837
 1149TIP3    H2 3391   5.093   3.616   0.763
 1150TIP3   OH2 3392   5.561   3.979   0.965
 1150TIP3    H1 3393   5.647   3.950   0.933
 1150TIP3    H2 3394   5.549   3.919   1.041
 1151TIP3   OH2 3395   5.166   3.378   0.969
 1151TIP3    H1 3396   5.169   3.299   0.910
 1151TIP3    H2 3397   5.120   3.442   0.910
 1152TIP3   OH2 3398   5.156   3.197   0.766
 1152TIP3    H1 3399   5.205   3.163   0.690
 1152TIP3    H2 3400   5.081   3.135   0.770
 1153TIP3   OH2 3401   5.193   3.693   0.648
 1153TIP3    H1 3402   5.273   3.687   0.596
 1153TIP3    H2 3403   5.137   3.754   0.595
 1154TIP3   OH2 3404   5.772   3.652   1.021
 1154TIP3    H1 3405   5.817   3.568   1.042
 1154TIP3    H2 3406   5.846   3.705   0.989
 1155TIP3   OH2 3407   5.821   3.902   0.759
 1155TIP3    H1 3408   5.763   3.955   0.700
 1155TIP3    H2 3409   5.909   3.924   0.722
 1156TIP3   OH2 3410   5.044   3.471   1.199
 1156TIP3    H1 3411   4.977   3.401   1.215
 1156TIP3    H2 3412   5.080   3.445   1.112
 1157TIP3   OH2 3413   5.426   3.418   1.056
 1157TIP3    H1 3414   5.412   3.397   1.150
 1157TIP3    H2 3415   5.337   3.394   1.022
 1158TIP3   OH2 3416   5.661   3.365   0.909
 1158TIP3    H1 3417   5.588   3.365   0.973
 1158TIP3    H2 3418   5.737   3.336   0.965
 1159TIP3   OH2 3419   5.894   3.312   1.057
 1159TIP3    H1 3420   5.907   3.216   1.072
 1159TIP3    H2 3421   5.888   3.347   1.148
 1160TIP3   OH2 3422   4.884   3.251   1.254
 1160TIP3    H1 3423   4.890   3.159   1.219
 1160TIP3    H2 3424   4.924   3.239   1.343
 1161TIP3   OH2 3425   5.449   3.124   1.243
 1161TIP3    H1 3426   5.414   3.055   1.180
 1161TIP3    H2 3427   5.374   3.186   1.241
 1162TIP3   OH2 3428   4.074   4.352  -0.010
 1162TIP3    H1 3429   4.004   4.296  -0.052
 1162TIP3    H2 3430   4.111   4.290   0.055
 1163TIP3   OH2 3431   4.228   4.200   0.168
 1163TIP3    H1 3432   4.205   4.138   0.241
 1163TIP3    H2 3433   4.267   4.272   0.223
 1164TIP3   OH2 3434   5.975   4.637   0.314
 1164TIP3    H1 3435   5.943   4.546   0.328
 1164TIP3    H2 3436   6.053   4.635   0.374
 1165TIP3   OH2 3437   6.009   4.311   0.826
 1165TIP3    H1 3438   5.942   4.320   0.896
 1165TIP3    H2 3439   6.057   4.396   0.834
 1166TIP3   OH2 3440   5.842   4.392   0.287
 1166TIP3    H1 3441   5.758   4.411   0.332
 1166TIP3    H2 3442   5.815   4.380   0.195
 1167TIP3   OH2 3443   4.397   3.622   0.546
 1167TIP3    H1 3444   4.393   3.586   0.455
 1167TIP3    H2 3445   4.494   3.621   0.562
 1168TIP3   OH2 3446   6.064   3.974   0.655
 1168TIP3    H1 3447   6.131   3.902   0.645
 1168TIP3    H2 3448   6.099   4.042   0.595
 1169TIP3   OH2 3449   6.239   3.769   0.666
 1169TIP3    H1 3450   6.167   3.718   0.707
 1169TIP3    H2 3451   6.315   3.709   0.681
 1170TIP3   OH2 3452   5.930   3.430   0.192
 1170TIP3    H1 3453   6.011   3.450   0.141
 1170TIP3    H2 3454   5.954   3.467   0.280
 1171TIP3   OH2 3455   5.992   3.569   0.422
 1171TIP3    H1 3456   5.915   3.598   0.475
 1171TIP3    H2 3457   6.029   3.656   0.395
 1172TIP3   OH2 3458   4.619   3.306   1.218
 1172TIP3    H1 3459   4.716   3.299   1.225
 1172TIP3    H2 3460   4.594   3.219   1.256
 1173TIP3   OH2 3461   6.450   3.175   0.972
 1173TIP3    H1 3462   6.512   3.111   0.931
 1173TIP3    H2 3463   6.421   3.227   0.894
 1174TIP3   OH2 3464   4.578   2.998   0.543
 1174TIP3    H1 3465   4.639   2.922   0.556
 1174TIP3    H2 3466   4.642   3.072   0.541
 1175TIP3   OH2 3467   4.376   3.271   0.620
 1175TIP3    H1 3468   4.429   3.271   0.537
 1175TIP3    H2 3469   4.406   3.352   0.663
 1176TIP3   OH2 3470   6.318   3.309   0.774
 1176TIP3    H1 3471   6.234   3.352   0.800
 1176TIP3    H2 3472   6.284   3.235   0.720
 1177TIP3   OH2 3473   4.366   2.774   0.130
 1177TIP3    H1 3474   4.274   2.766   0.159
 1177TIP3    H2 3475   4.357   2.832   0.051
 1178TIP3   OH2 3476   4.582   2.857   0.938
 1178TIP3    H1 3477   4.532   2.854   1.021
 1178TIP3    H2 3478   4.516   2.895   0.877
 1179TIP3   OH2 3479   4.625   4.285   1.012
 1179TIP3    H1 3480   4.531   4.264   0.997
 1179TIP3    H2 3481   4.634   4.265   1.106
 1180TIP3   OH2 3482   4.803   4.321   0.564
 1180TIP3    H1 3483   4.752   4.395   0.525
 1180TIP3    H2 3484   4.887   4.334   0.514
 1181TIP3   OH2 3485   6.220   3.067   0.660
 1181TIP3    H1 3486   6.128   3.050   0.631
 1181TIP3    H2 3487   6.258   2.976   0.653
 1182TIP3   OH2 3488   4.479   4.573   0.588
 1182TIP3    H1 3489   4.388   4.603   0.564
 1182TIP3    H2 3490   4.490   4.621   0.672
 1183TIP3   OH2 3491   4.716   4.559   0.450
 1183TIP3    H1 3492   4.630   4.569   0.496
 1183TIP3    H2 3493   4.693   4.590   0.360
 1184TIP3   OH2 3494   5.148   4.562   0.270
 1184TIP3    H1 3495   5.071   4.576   0.213
 1184TIP3    H2 3496   5.172   4.653   0.295
 1185TIP3   OH2 3497   4.394   4.364   0.326
 1185TIP3    H1 3498   4.413   4.334   0.418
 1185TIP3    H2 3499   4.467   4.318   0.279
 1186TIP3   OH2 3500   4.589   4.229   0.188
 1186TIP3    H1 3501   4.600   4.151   0.248
 1186TIP3    H2 3502   4.674   4.276   0.204
 1187TIP3   OH2 3503   4.835   4.340   0.213
 1187TIP3    H1 3504   4.874   4.296   0.136
 1187TIP3    H2 3505   4.899   4.321   0.285
 1188TIP3   OH2 3506   5.409   2.973   0.261
 1188TIP3    H1 3507   5.377   2.908   0.327
 1188TIP3    H2 3508   5.494   2.934   0.233
 1189TIP3   OH2 3509   5.940   2.896   0.186
 1189TIP3    H1 3510   5.973   2.898   0.094
 1189TIP3    H2 3511   5.844   2.891   0.173
 1190TIP3   OH2 3512   4.673   2.695   0.291
 1190TIP3    H1 3513   4.580   2.661   0.296
 1190TIP3    H2 3514   4.722   2.609   0.288
 1191TIP3   OH2 3515   4.451   2.564  -0.055
 1191TIP3    H1 3516   4.496   2.617  -0.125
 1191TIP3    H2 3517   4.432   2.633   0.012
 1192TIP3   OH2 3518   5.117   2.730   0.182
 1192TIP3    H1 3519   5.183   2.776   0.128
 1192TIP3    H2 3520   5.142   2.758   0.271
 1193TIP3   OH2 3521   5.661   2.872   0.152
 1193TIP3    H1 3522   5.669   2.821   0.070
 1193TIP3    H2 3523   5.651   2.798   0.217
 1194TIP3   OH2 3524   4.575   2.713  -0.249
 1194TIP3    H1 3525   4.590   2.660  -0.329
 1194TIP3    H2 3526   4.656   2.767  -0.246
 1195TIP3   OH2 3527   5.058   2.874  -0.130
 1195TIP3    H1 3528   5.130   2.824  -0.091
 1195TIP3    H2 3529   5.100   2.963  -0.135
 1196TIP3   OH2 3530   4.879   2.977   1.174
 1196TIP3    H1 3531   4.848   2.909   1.237
 1196TIP3    H2 3532   4.974   2.979   1.197
 1197TIP3   OH2 3533   5.119   2.982   1.305
 1197TIP3    H1 3534   5.183   2.964   1.232
 1197TIP3    H2 3535   5.133   2.903   1.361
 1198TIP3   OH2 3536   5.959   3.042   1.089
 1198TIP3    H1 3537   5.974   3.011   1.181
 1198TIP3    H2 3538   6.049   3.035   1.051
 1199TIP3   OH2 3539   5.887   4.587   0.596
 1199TIP3    H1 3540   5.799   4.572   0.557
 1199TIP3    H2 3541   5.887   4.684   0.604
 1200TIP3   OH2 3542   6.724   3.292   0.252
 1200TIP3    H1 3543   6.670   3.295   0.171
 1200TIP3    H2 3544   6.663   3.334   0.317
 1201TIP3   OH2 3545   6.615   3.963   0.389
 1201TIP3    H1 3546   6.621   4.052   0.430
 1201TIP3    H2 3547   6.519   3.960   0.371
 1202TIP3   OH2 3548   6.208   4.102   0.285
 1202TIP3    H1 3549   6.273   4.142   0.223
 1202TIP3    H2 3550   6.265   4.029   0.324
 1203TIP3   OH2 3551   6.444   4.272   0.294
 1203TIP3    H1 3552   6.527   4.294   0.340
 1203TIP3    H2 3553   6.387   4.262   0.369
 1204TIP3   OH2 3554   7.328   3.251   0.257
 1204TIP3    H1 3555   7.398   3.193   0.290
 1204TIP3    H2 3556   7.248   3.210   0.296
 1205TIP3   OH2 3557   7.294   3.904   0.392
 1205TIP3    H1 3558   7.272   3.819   0.437
 1205TIP3    H2 3559   7.391   3.898   0.398
 1206TIP3   OH2 3560   6.565   3.672   0.296
 1206TIP3    H1 3561   6.580   3.745   0.358
 1206TIP3    H2 3562   6.558   3.595   0.356
 1207TIP3   OH2 3563   6.607   4.205   0.522
 1207TIP3    H1 3564   6.683   4.246   0.569
 1207TIP3    H2 3565   6.534   4.230   0.582
 1208TIP3   OH2 3566   6.340   3.911   0.436
 1208TIP3    H1 3567   6.371   3.899   0.528
 1208TIP3    H2 3568   6.266   3.849   0.432
 1209TIP3   OH2 3569   7.056   4.025   0.455
 1209TIP3    H1 3570   6.993   3.954   0.431
 1209TIP3    H2 3571   7.142   3.985   0.429
 1210TIP3   OH2 3572   6.541   3.422   0.433
 1210TIP3    H1 3573   6.445   3.421   0.446
 1210TIP3    H2 3574   6.572   3.369   0.508
 1211TIP3   OH2 3575   6.230   4.783   0.511
 1211TIP3    H1 3576   6.321   4.807   0.542
 1211TIP3    H2 3577   6.241   4.689   0.491
 1212TIP3   OH2 3578   6.713   4.761   0.569
 1212TIP3    H1 3579   6.798   4.753   0.615
 1212TIP3    H2 3580   6.727   4.700   0.494
 1213TIP3   OH2 3581   6.380   4.210   0.695
 1213TIP3    H1 3582   6.395   4.113   0.693
 1213TIP3    H2 3583   6.297   4.218   0.644
 1214TIP3   OH2 3584   6.988   4.304   0.453
 1214TIP3    H1 3585   6.960   4.308   0.361
 1214TIP3    H2 3586   7.027   4.214   0.458
 1215TIP3   OH2 3587   6.501   3.937   0.673
 1215TIP3    H1 3588   6.586   3.908   0.638
 1215TIP3    H2 3589   6.529   3.978   0.758
 1216TIP3   OH2 3590   6.861   3.860   0.347
 1216TIP3    H1 3591   6.775   3.893   0.380
 1216TIP3    H2 3592   6.870   3.913   0.266
 1217TIP3   OH2 3593   7.298   4.214   0.475
 1217TIP3    H1 3594   7.345   4.298   0.495
 1217TIP3    H2 3595   7.314   4.160   0.556
 1218TIP3   OH2 3596   6.953   3.620   0.463
 1218TIP3    H1 3597   6.963   3.539   0.409
 1218TIP3    H2 3598   6.931   3.689   0.397
 1219TIP3   OH2 3599   6.972   3.401   0.294
 1219TIP3    H1 3600   7.008   3.441   0.212
 1219TIP3    H2 3601   6.884   3.367   0.267
 1220TIP3   OH2 3602   7.565   3.890   0.558
 1220TIP3    H1 3603   7.574   3.819   0.491
 1220TIP3    H2 3604   7.640   3.948   0.534
 1221TIP3   OH2 3605   6.834   3.731   0.684
 1221TIP3    H1 3606   6.767   3.662   0.704
 1221TIP3    H2 3607   6.871   3.697   0.600
 1222TIP3   OH2 3608   7.084   3.153   0.346
 1222TIP3    H1 3609   7.038   3.238   0.329
 1222TIP3    H2 3610   7.018   3.087   0.320
 1223TIP3   OH2 3611   7.212   3.685   0.540
 1223TIP3    H1 3612   7.213   3.671   0.636
 1223TIP3    H2 3613   7.123   3.652   0.519
 1224TIP3   OH2 3614   7.466   3.660   0.411
 1224TIP3    H1 3615   7.385   3.634   0.456
 1224TIP3    H2 3616   7.533   3.601   0.451
 1225TIP3   OH2 3617   7.666   3.535   0.557
 1225TIP3    H1 3618   7.712   3.454   0.583
 1225TIP3    H2 3619   7.673   3.590   0.637
 1226TIP3   OH2 3620   6.676   3.509   0.742
 1226TIP3    H1 3621   6.684   3.418   0.709
 1226TIP3    H2 3622   6.717   3.499   0.831
 1227TIP3   OH2 3623   7.183   3.175   0.599
 1227TIP3    H1 3624   7.252   3.107   0.588
 1227TIP3    H2 3625   7.143   3.171   0.510
 1228TIP3   OH2 3626   7.257   3.398   0.745
 1228TIP3    H1 3627   7.235   3.325   0.683
 1228TIP3    H2 3628   7.178   3.456   0.737
 1229TIP3   OH2 3629   6.410   3.558   0.698
 1229TIP3    H1 3630   6.508   3.558   0.708
 1229TIP3    H2 3631   6.388   3.473   0.740
 1230TIP3   OH2 3632   6.380   3.122   0.435
 1230TIP3    H1 3633   6.339   3.108   0.523
 1230TIP3    H2 3634   6.302   3.126   0.379
 1231TIP3   OH2 3635   6.418   4.480   0.534
 1231TIP3    H1 3636   6.325   4.493   0.508
 1231TIP3    H2 3637   6.430   4.545   0.604
 1232TIP3   OH2 3638   6.675   3.233   0.671
 1232TIP3    H1 3639   6.642   3.164   0.731
 1232TIP3    H2 3640   6.770   3.234   0.697
 1233TIP3   OH2 3641   6.927   3.232   0.787
 1233TIP3    H1 3642   7.013   3.211   0.748
 1233TIP3    H2 3643   6.918   3.161   0.854
 1234TIP3   OH2 3644   0.433   4.296   1.469
 1234TIP3    H1 3645   0.458   4.378   1.517
 1234TIP3    H2 3646   0.448   4.322   1.377
 1235TIP3   OH2 3647  -0.114   4.488   1.493
 1235TIP3    H1 3648  -0.092   4.392   1.511
 1235TIP3    H2 3649  -0.042   4.507   1.425
 1236TIP3   OH2 3650   0.500   4.506   1.639
 1236TIP3    H1 3651   0.413   4.547   1.621
 1236TIP3    H2 3652   0.518   4.543   1.727
 1237TIP3   OH2 3653   0.056   4.247   1.255
 1237TIP3    H1 3654   0.086   4.184   1.324
 1237TIP3    H2 3655   0.096   4.331   1.288
 1238TIP3   OH2 3656   0.227   4.206   1.638
 1238TIP3    H1 3657   0.141   4.227   1.598
 1238TIP3    H2 3658   0.289   4.229   1.565
 1239TIP3   OH2 3659   0.163   5.252   1.598
 1239TIP3    H1 3660   0.177   5.160   1.566
 1239TIP3    H2 3661   0.129   5.297   1.519
 1240TIP3   OH2 3662   0.359   4.836   1.468
 1240TIP3    H1 3663   0.282   4.898   1.476
 1240TIP3    H2 3664   0.389   4.861   1.378
 1241TIP3   OH2 3665   0.045   4.715   1.769
 1241TIP3    H1 3666   0.045   4.796   1.824
 1241TIP3    H2 3667  -0.045   4.720   1.730
 1242TIP3   OH2 3668   0.415   5.535   1.677
 1242TIP3    H1 3669   0.420   5.438   1.686
 1242TIP3    H2 3670   0.321   5.548   1.703
 1243TIP3   OH2 3671   0.295   4.679   1.915
 1243TIP3    H1 3672   0.200   4.697   1.910
 1243TIP3    H2 3673   0.297   4.583   1.928
 1244TIP3   OH2 3674  -0.179   4.027   1.933
 1244TIP3    H1 3675  -0.118   4.001   2.004
 1244TIP3    H2 3676  -0.266   3.996   1.966
 1245TIP3   OH2 3677   0.046   4.454   1.854
 1245TIP3    H1 3678   0.002   4.458   1.942
 1245TIP3    H2 3679   0.039   4.546   1.823
 1246TIP3   OH2 3680  -0.213   4.688   2.101
 1246TIP3    H1 3681  -0.231   4.612   2.160
 1246TIP3    H2 3682  -0.117   4.701   2.112
 1247TIP3   OH2 3683  -0.207   4.674   1.672
 1247TIP3    H1 3684  -0.177   4.595   1.624
 1247TIP3    H2 3685  -0.253   4.634   1.748
 1248TIP3   OH2 3686  -0.104   4.218   1.542
 1248TIP3    H1 3687  -0.129   4.241   1.635
 1248TIP3    H2 3688  -0.148   4.133   1.533
 1249TIP3   OH2 3689  -0.474   4.345   1.800
 1249TIP3    H1 3690  -0.496   4.421   1.739
 1249TIP3    H2 3691  -0.386   4.377   1.830
 1250TIP3   OH2 3692   0.148   5.010   1.461
 1250TIP3    H1 3693   0.123   5.069   1.387
 1250TIP3    H2 3694   0.067   5.008   1.517
 1251TIP3   OH2 3695  -0.449   4.788   2.199
 1251TIP3    H1 3696  -0.503   4.764   2.122
 1251TIP3    H2 3697  -0.359   4.769   2.165
 1252TIP3   OH2 3698   0.409   5.255   1.706
 1252TIP3    H1 3699   0.312   5.269   1.698
 1252TIP3    H2 3700   0.430   5.225   1.615
 1253TIP3   OH2 3701  -0.157   4.266   1.800
 1253TIP3    H1 3702  -0.078   4.310   1.837
 1253TIP3    H2 3703  -0.166   4.186   1.856
 1254TIP3   OH2 3704  -0.281   4.528   1.891
 1254TIP3    H1 3705  -0.273   4.595   1.962
 1254TIP3    H2 3706  -0.224   4.458   1.928
 1255TIP3   OH2 3707   0.310   4.399   1.855
 1255TIP3    H1 3708   0.213   4.403   1.863
 1255TIP3    H2 3709   0.318   4.365   1.765
 1256TIP3   OH2 3710  -0.185   5.547   2.090
 1256TIP3    H1 3711  -0.167   5.453   2.108
 1256TIP3    H2 3712  -0.101   5.577   2.048
 1257TIP3   OH2 3713  -0.018   5.065   1.695
 1257TIP3    H1 3714   0.026   5.152   1.708
 1257TIP3    H2 3715  -0.113   5.091   1.701
 1258TIP3   OH2 3716  -0.174   5.009   2.152
 1258TIP3    H1 3717  -0.104   4.972   2.096
 1258TIP3    H2 3718  -0.178   4.943   2.224
 1259TIP3   OH2 3719  -0.610   4.136   1.900
 1259TIP3    H1 3720  -0.550   4.211   1.866
 1259TIP3    H2 3721  -0.682   4.191   1.940
 1260TIP3   OH2 3722   0.050   4.935   1.929
 1260TIP3    H1 3723   0.020   4.990   1.854
 1260TIP3    H2 3724   0.145   4.959   1.930
 1261TIP3   OH2 3725  -0.442   3.951   2.016
 1261TIP3    H1 3726  -0.493   4.026   1.979
 1261TIP3    H2 3727  -0.509   3.883   2.011
 1262TIP3   OH2 3728  -0.310   4.466   2.240
 1262TIP3    H1 3729  -0.277   4.461   2.333
 1262TIP3    H2 3730  -0.398   4.426   2.249
 1263TIP3   OH2 3731  -0.086   4.413   2.085
 1263TIP3    H1 3732  -0.157   4.412   2.151
 1263TIP3    H2 3733  -0.007   4.392   2.140
 1264TIP3   OH2 3734   0.135   4.351   2.239
 1264TIP3    H1 3735   0.152   4.257   2.257
 1264TIP3    H2 3736   0.133   4.390   2.329
 1265TIP3   OH2 3737  -0.354   3.964   2.277
 1265TIP3    H1 3738  -0.284   3.898   2.259
 1265TIP3    H2 3739  -0.399   3.968   2.191
 1266TIP3   OH2 3740  -0.278   4.176   2.428
 1266TIP3    H1 3741  -0.299   4.099   2.370
 1266TIP3    H2 3742  -0.363   4.224   2.425
 1267TIP3   OH2 3743   0.267   5.351   2.002
 1267TIP3    H1 3744   0.197   5.359   2.069
 1267TIP3    H2 3745   0.312   5.438   2.009
 1268TIP3   OH2 3746   0.306   5.017   1.835
 1268TIP3    H1 3747   0.377   4.950   1.825
 1268TIP3    H2 3748   0.346   5.094   1.791
 1269TIP3   OH2 3749   0.502   4.825   1.830
 1269TIP3    H1 3750   0.426   4.776   1.870
 1269TIP3    H2 3751   0.573   4.762   1.853
 1270TIP3   OH2 3752   0.172   4.463   1.372
 1270TIP3    H1 3753   0.251   4.493   1.322
 1270TIP3    H2 3754   0.190   4.508   1.457
 1271TIP3   OH2 3755   0.247   4.615   1.589
 1271TIP3    H1 3756   0.183   4.651   1.654
 1271TIP3    H2 3757   0.285   4.698   1.551
 1272TIP3   OH2 3758   0.704   4.223   2.151
 1272TIP3    H1 3759   0.762   4.158   2.106
 1272TIP3    H2 3760   0.669   4.274   2.074
 1273TIP3   OH2 3761   0.572   4.359   1.959
 1273TIP3    H1 3762   0.495   4.402   2.004
 1273TIP3    H2 3763   0.523   4.298   1.900
 1274TIP3   OH2 3764   0.471   4.123   1.835
 1274TIP3    H1 3765   0.379   4.118   1.803
 1274TIP3    H2 3766   0.502   4.031   1.823
 1275TIP3   OH2 3767   0.144   4.014   1.386
 1275TIP3    H1 3768   0.222   4.030   1.329
 1275TIP3    H2 3769   0.093   3.954   1.330
 1276TIP3   OH2 3770   0.319   4.037   1.175
 1276TIP3    H1 3771   0.294   4.014   1.082
 1276TIP3    H2 3772   0.351   4.128   1.158
 1277TIP3   OH2 3773   0.206   4.082   2.267
 1277TIP3    H1 3774   0.226   4.055   2.359
 1277TIP3    H2 3775   0.295   4.082   2.226
 1278TIP3   OH2 3776   0.150   5.562   1.731
 1278TIP3    H1 3777   0.063   5.526   1.753
 1278TIP3    H2 3778   0.133   5.659   1.746
 1279TIP3   OH2 3779   1.409   4.991   0.531
 1279TIP3    H1 3780   1.384   5.083   0.509
 1279TIP3    H2 3781   1.330   4.945   0.500
 1280TIP3   OH2 3782   1.410   5.007   0.914
 1280TIP3    H1 3783   1.448   4.986   1.002
 1280TIP3    H2 3784   1.368   4.923   0.891
 1281TIP3   OH2 3785   0.716   4.900   1.274
 1281TIP3    H1 3786   0.748   4.833   1.337
 1281TIP3    H2 3787   0.796   4.955   1.264
 1282TIP3   OH2 3788   1.652   5.312   0.597
 1282TIP3    H1 3789   1.644   5.243   0.664
 1282TIP3    H2 3790   1.685   5.387   0.649
 1283TIP3   OH2 3791   0.695   5.296   1.070
 1283TIP3    H1 3792   0.691   5.199   1.057
 1283TIP3    H2 3793   0.790   5.309   1.053
 1284TIP3   OH2 3794   0.546   4.806   0.942
 1284TIP3    H1 3795   0.566   4.726   0.996
 1284TIP3    H2 3796   0.512   4.766   0.861
 1285TIP3   OH2 3797   1.351   5.740   0.667
 1285TIP3    H1 3798   1.423   5.704   0.611
 1285TIP3    H2 3799   1.367   5.692   0.751
 1286TIP3   OH2 3800   1.219   5.228   0.957
 1286TIP3    H1 3801   1.264   5.150   0.922
 1286TIP3    H2 3802   1.298   5.281   0.981
 1287TIP3   OH2 3803   2.224   4.552   0.954
 1287TIP3    H1 3804   2.254   4.635   0.997
 1287TIP3    H2 3805   2.250   4.568   0.861
 1288TIP3   OH2 3806   1.621   4.733   0.983
 1288TIP3    H1 3807   1.664   4.648   1.005
 1288TIP3    H2 3808   1.588   4.714   0.894
 1289TIP3   OH2 3809   0.976   4.398   0.957
 1289TIP3    H1 3810   0.950   4.471   0.896
 1289TIP3    H2 3811   0.930   4.323   0.914
 1290TIP3   OH2 3812   1.656   4.487   0.570
 1290TIP3    H1 3813   1.726   4.472   0.638
 1290TIP3    H2 3814   1.711   4.520   0.496
 1291TIP3   OH2 3815   0.595   4.579   1.082
 1291TIP3    H1 3816   0.681   4.568   1.125
 1291TIP3    H2 3817   0.607   4.520   1.004
 1292TIP3   OH2 3818   1.036   4.803   0.850
 1292TIP3    H1 3819   1.129   4.776   0.866
 1292TIP3    H2 3820   0.995   4.718   0.826
 1293TIP3   OH2 3821   2.296   4.761   1.126
 1293TIP3    H1 3822   2.211   4.807   1.110
 1293TIP3    H2 3823   2.325   4.802   1.209
 1294TIP3   OH2 3824   0.957   4.374   1.392
 1294TIP3    H1 3825   0.900   4.413   1.322
 1294TIP3    H2 3826   0.901   4.394   1.471
 1295TIP3   OH2 3827   1.313   5.207   0.394
 1295TIP3    H1 3828   1.289   5.190   0.302
 1295TIP3    H2 3829   1.322   5.303   0.396
 1296TIP3   OH2 3830   1.066   5.152   1.181
 1296TIP3    H1 3831   1.005   5.220   1.218
 1296TIP3    H2 3832   1.101   5.198   1.102
 1297TIP3   OH2 3833   1.857   4.494   0.752
 1297TIP3    H1 3834   1.842   4.451   0.837
 1297TIP3    H2 3835   1.910   4.572   0.778
 1298TIP3   OH2 3836   0.836   4.489   1.174
 1298TIP3    H1 3837   0.896   4.563   1.198
 1298TIP3    H2 3838   0.886   4.451   1.099
 1299TIP3   OH2 3839   0.901   5.344   1.290
 1299TIP3    H1 3840   0.876   5.432   1.254
 1299TIP3    H2 3841   0.819   5.324   1.340
 1300TIP3   OH2 3842   1.715   5.550   0.754
 1300TIP3    H1 3843   1.625   5.544   0.793
 1300TIP3    H2 3844   1.711   5.637   0.711
 1301TIP3   OH2 3845   2.017   4.448   1.118
 1301TIP3    H1 3846   1.931   4.479   1.086
 1301TIP3    H2 3847   2.079   4.483   1.050
 1302TIP3   OH2 3848   1.306   4.092   1.102
 1302TIP3    H1 3849   1.289   3.998   1.122
 1302TIP3    H2 3850   1.230   4.133   1.149
 1303TIP3   OH2 3851   1.514   5.631   0.476
 1303TIP3    H1 3852   1.557   5.550   0.441
 1303TIP3    H2 3853   1.542   5.698   0.413
 1304TIP3   OH2 3854   1.564   5.393   0.349
 1304TIP3    H1 3855   1.579   5.322   0.283
 1304TIP3    H2 3856   1.592   5.348   0.432
 1305TIP3   OH2 3857   1.947   5.465   1.098
 1305TIP3    H1 3858   1.935   5.387   1.040
 1305TIP3    H2 3859   1.930   5.539   1.037
 1306TIP3   OH2 3860   1.238   4.850   0.335
 1306TIP3    H1 3861   1.160   4.900   0.308
 1306TIP3    H2 3862   1.297   4.874   0.261
 1307TIP3   OH2 3863   1.143   4.594   0.193
 1307TIP3    H1 3864   1.196   4.648   0.253
 1307TIP3    H2 3865   1.211   4.556   0.134
 1308TIP3   OH2 3866   2.141   5.103   0.944
 1308TIP3    H1 3867   2.058   5.155   0.948
 1308TIP3    H2 3868   2.174   5.127   0.855
 1309TIP3   OH2 3869   1.600   4.948   0.342
 1309TIP3    H1 3870   1.545   4.966   0.422
 1309TIP3    H2 3871   1.684   4.920   0.384
 1310TIP3   OH2 3872   1.822   4.978   1.247
 1310TIP3    H1 3873   1.820   5.061   1.299
 1310TIP3    H2 3874   1.735   4.984   1.201
 1311TIP3   OH2 3875   0.802   4.918   0.755
 1311TIP3    H1 3876   0.797   4.869   0.672
 1311TIP3    H2 3877   0.889   4.889   0.789
 1312TIP3   OH2 3878   0.943   5.294   0.936
 1312TIP3    H1 3879   0.933   5.361   0.865
 1312TIP3    H2 3880   1.039   5.276   0.933
 1313TIP3   OH2 3881   0.969   4.906   1.104
 1313TIP3    H1 3882   0.991   4.891   1.010
 1313TIP3    H2 3883   1.001   4.998   1.118
 1314TIP3   OH2 3884   1.471   5.555   0.876
 1314TIP3    H1 3885   1.474   5.629   0.940
 1314TIP3    H2 3886   1.463   5.477   0.935
 1315TIP3   OH2 3887   1.101   5.468   1.428
 1315TIP3    H1 3888   1.038   5.531   1.470
 1315TIP3    H2 3889   1.037   5.413   1.376
 1316TIP3   OH2 3890   1.457   4.829   0.145
 1316TIP3    H1 3891   1.508   4.869   0.219
 1316TIP3    H2 3892   1.455   4.905   0.084
 1317TIP3   OH2 3893   0.853   5.018   1.532
 1317TIP3    H1 3894   0.859   5.107   1.572
 1317TIP3    H2 3895   0.759   4.998   1.548
 1318TIP3   OH2 3896   0.896   5.636   1.512
 1318TIP3    H1 3897   0.861   5.638   1.421
 1318TIP3    H2 3898   0.816   5.612   1.564
 1319TIP3   OH2 3899   1.947   4.043   0.202
 1319TIP3    H1 3900   1.865   4.061   0.252
 1319TIP3    H2 3901   1.957   4.125   0.150
 1320TIP3   OH2 3902   0.472   5.155   1.460
 1320TIP3    H1 3903   0.447   5.123   1.372
 1320TIP3    H2 3904   0.517   5.076   1.498
 1321TIP3   OH2 3905   2.183   5.813   1.146
 1321TIP3    H1 3906   2.185   5.717   1.163
 1321TIP3    H2 3907   2.101   5.838   1.194
 1322TIP3   OH2 3908   1.296   5.593   1.285
 1322TIP3    H1 3909   1.290   5.686   1.315
 1322TIP3    H2 3910   1.222   5.553   1.335
 1323TIP3   OH2 3911   2.073   4.938   1.424
 1323TIP3    H1 3912   1.990   4.947   1.374
 1323TIP3    H2 3913   2.090   4.842   1.416
 1324TIP3   OH2 3914   0.679   5.340   1.452
 1324TIP3    H1 3915   0.730   5.322   1.534
 1324TIP3    H2 3916   0.602   5.280   1.461
 1325TIP3   OH2 3917   1.072   4.172   1.235
 1325TIP3    H1 3918   0.984   4.144   1.203
 1325TIP3    H2 3919   1.046   4.252   1.285
 1326TIP3   OH2 3920   1.608   4.285   1.427
 1326TIP3    H1 3921   1.677   4.258   1.490
 1326TIP3    H2 3922   1.525   4.267   1.476
 1327TIP3   OH2 3923   1.839   4.714   1.342
 1327TIP3    H1 3924   1.790   4.713   1.427
 1327TIP3    H2 3925   1.818   4.803   1.307
 1328TIP3   OH2 3926   1.214   4.281   0.205
 1328TIP3    H1 3927   1.205   4.244   0.296
 1328TIP3    H2 3928   1.188   4.204   0.150
 1329TIP3   OH2 3929   1.007   4.687   1.253
 1329TIP3    H1 3930   0.955   4.710   1.333
 1329TIP3    H2 3931   0.994   4.769   1.199
 1330TIP3   OH2 3932   0.889   4.581   0.777
 1330TIP3    H1 3933   0.796   4.558   0.795
 1330TIP3    H2 3934   0.898   4.550   0.683
 1331TIP3   OH2 3935   1.375   4.662   0.490
 1331TIP3    H1 3936   1.328   4.734   0.443
 1331TIP3    H2 3937   1.435   4.628   0.419
 1332TIP3   OH2 3938   1.552   4.933   1.575
 1332TIP3    H1 3939   1.530   4.861   1.637
 1332TIP3    H2 3940   1.646   4.948   1.598
 1333TIP3   OH2 3941   1.533   4.683   0.728
 1333TIP3    H1 3942   1.470   4.713   0.659
 1333TIP3    H2 3943   1.569   4.605   0.682
 1334TIP3   OH2 3944   0.824   4.716   1.458
 1334TIP3    H1 3945   0.847   4.780   1.526
 1334TIP3    H2 3946   0.810   4.634   1.510
 1335TIP3   OH2 3947   0.419   4.261   1.052
 1335TIP3    H1 3948   0.488   4.285   1.117
 1335TIP3    H2 3949   0.471   4.243   0.973
 1336TIP3   OH2 3950   1.543   4.931   1.148
 1336TIP3    H1 3951   1.577   4.860   1.089
 1336TIP3    H2 3952   1.512   4.878   1.224
 1337TIP3   OH2 3953   1.225   4.398   0.825
 1337TIP3    H1 3954   1.144   4.397   0.880
 1337TIP3    H2 3955   1.295   4.387   0.892
 1338TIP3   OH2 3956   0.663   4.435   0.861
 1338TIP3    H1 3957   0.598   4.446   0.787
 1338TIP3    H2 3958   0.710   4.353   0.835
 1339TIP3   OH2 3959   0.933   4.497   0.523
 1339TIP3    H1 3960   1.030   4.477   0.531
 1339TIP3    H2 3961   0.917   4.462   0.432
 1340TIP3   OH2 3962   1.707   4.472   1.026
 1340TIP3    H1 3963   1.677   4.485   1.119
 1340TIP3    H2 3964   1.638   4.412   0.993
 1341TIP3   OH2 3965   1.881   6.162   1.248
 1341TIP3    H1 3966   1.881   6.184   1.153
 1341TIP3    H2 3967   1.963   6.206   1.278
 1342TIP3   OH2 3968   0.838   5.267   1.668
 1342TIP3    H1 3969   0.916   5.300   1.716
 1342TIP3    H2 3970   0.773   5.266   1.740
 1343TIP3   OH2 3971   1.297   4.728   0.923
 1343TIP3    H1 3972   1.370   4.686   0.876
 1343TIP3    H2 3973   1.298   4.683   1.009
 1344TIP3   OH2 3974   0.831   4.214   0.818
 1344TIP3    H1 3975   0.788   4.137   0.860
 1344TIP3    H2 3976   0.863   4.173   0.736
 1345TIP3   OH2 3977   1.274   4.628   1.208
 1345TIP3    H1 3978   1.183   4.661   1.225
 1345TIP3    H2 3979   1.330   4.689   1.259
 1346TIP3   OH2 3980   1.908   5.250   0.930
 1346TIP3    H1 3981   1.933   5.300   0.850
 1346TIP3    H2 3982   1.824   5.207   0.903
 1347TIP3   OH2 3983   1.488   4.327   0.172
 1347TIP3    H1 3984   1.392   4.315   0.167
 1347TIP3    H2 3985   1.496   4.424   0.185
 1348TIP3   OH2 3986   1.412   5.333   1.301
 1348TIP3    H1 3987   1.438   5.312   1.392
 1348TIP3    H2 3988   1.370   5.420   1.310
 1349TIP3   OH2 3989   1.536   4.584   0.274
 1349TIP3    H1 3990   1.632   4.580   0.292
 1349TIP3    H2 3991   1.528   4.662   0.215
 1350TIP3   OH2 3992   0.706   5.042   0.985
 1350TIP3    H1 3993   0.741   5.006   0.901
 1350TIP3    H2 3994   0.705   4.962   1.039
 1351TIP3   OH2 3995   0.590   4.951   1.596
 1351TIP3    H1 3996   0.599   4.939   1.692
 1351TIP3    H2 3997   0.520   4.886   1.577
 1352TIP3   OH2 3998   1.312   5.072   1.615
 1352TIP3    H1 3999   1.249   5.012   1.571
 1352TIP3    H2 4000   1.398   5.034   1.585
 1353TIP3   OH2 4001   1.568   5.596   1.198
 1353TIP3    H1 4002   1.472   5.589   1.215
 1353TIP3    H2 4003   1.596   5.646   1.277
 1354TIP3   OH2 4004   1.975   4.664   0.116
 1354TIP3    H1 4005   1.916   4.622   0.048
 1354TIP3    H2 4006   1.977   4.754   0.076
 1355TIP3   OH2 4007   2.197   5.525   1.187
 1355TIP3    H1 4008   2.100   5.516   1.179
 1355TIP3    H2 4009   2.224   5.494   1.097
 1356TIP3   OH2 4010   1.674   5.114   0.842
 1356TIP3    H1 4011   1.581   5.088   0.860
 1356TIP3    H2 4012   1.708   5.031   0.803
 1357TIP3   OH2 4013   1.073   5.695   1.109
 1357TIP3    H1 4014   1.087   5.713   1.015
 1357TIP3    H2 4015   1.159   5.657   1.136
 1358TIP3   OH2 4016   1.468   5.322   1.034
 1358TIP3    H1 4017   1.452   5.321   1.132
 1358TIP3    H2 4018   1.546   5.265   1.028
 1359TIP3   OH2 4019   1.713   5.845   1.090
 1359TIP3    H1 4020   1.633   5.790   1.086
 1359TIP3    H2 4021   1.695   5.908   1.016
 1360TIP3   OH2 4022   0.790   4.459   1.600
 1360TIP3    H1 4023   0.693   4.466   1.615
 1360TIP3    H2 4024   0.818   4.407   1.677
 1361TIP3   OH2 4025   1.627   5.180   0.189
 1361TIP3    H1 4026   1.609   5.100   0.242
 1361TIP3    H2 4027   1.715   5.157   0.152
 1362TIP3   OH2 4028   0.562   5.539   1.289
 1362TIP3    H1 4029   0.572   5.453   1.244
 1362TIP3    H2 4030   0.613   5.520   1.370
 1363TIP3   OH2 4031   1.636   4.521   1.286
 1363TIP3    H1 4032   1.715   4.563   1.323
 1363TIP3    H2 4033   1.624   4.442   1.342
 1364TIP3   OH2 4034   1.510   4.275   0.453
 1364TIP3    H1 4035   1.502   4.295   0.357
 1364TIP3    H2 4036   1.553   4.356   0.487
 1365TIP3   OH2 4037   1.203   4.457   0.560
 1365TIP3    H1 4038   1.266   4.529   0.541
 1365TIP3    H2 4039   1.213   4.447   0.657
 1366TIP3   OH2 4040   1.472   4.771   1.356
 1366TIP3    H1 4041   1.496   4.823   1.436
 1366TIP3    H2 4042   1.525   4.690   1.369
 1367TIP3   OH2 4043   1.356   4.174   0.662
 1367TIP3    H1 4044   1.353   4.251   0.722
 1367TIP3    H2 4045   1.415   4.209   0.591
 1368TIP3   OH2 4046   0.896   4.165   0.410
 1368TIP3    H1 4047   0.880   4.259   0.390
 1368TIP3    H2 4048   0.991   4.164   0.429
 1369TIP3   OH2 4049   2.106   4.673   1.347
 1369TIP3    H1 4050   2.008   4.669   1.349
 1369TIP3    H2 4051   2.124   4.635   1.260
 1370TIP3   OH2 4052   1.760   4.867   0.731
 1370TIP3    H1 4053   1.684   4.807   0.744
 1370TIP3    H2 4054   1.831   4.820   0.780
 1371TIP3   OH2 4055   1.742   5.818   0.685
 1371TIP3    H1 4056   1.711   5.869   0.608
 1371TIP3    H2 4057   1.839   5.830   0.672
 1372TIP3   OH2 4058   0.807   4.097   1.200
 1372TIP3    H1 4059   0.775   4.058   1.116
 1372TIP3    H2 4060   0.805   4.021   1.262
 1373TIP3   OH2 4061   0.491   5.830   1.677
 1373TIP3    H1 4062   0.583   5.831   1.710
 1373TIP3    H2 4063   0.477   5.734   1.663
 1374TIP3   OH2 4064   0.983   5.814   1.704
 1374TIP3    H1 4065   1.077   5.791   1.707
 1374TIP3    H2 4066   0.952   5.754   1.633
 1375TIP3   OH2 4067   1.621   5.725   1.436
 1375TIP3    H1 4068   1.615   5.654   1.504
 1375TIP3    H2 4069   1.699   5.776   1.466
 1376TIP3   OH2 4070   0.638   5.265   1.860
 1376TIP3    H1 4071   0.652   5.169   1.873
 1376TIP3    H2 4072   0.549   5.264   1.818
 1377TIP3   OH2 4073   1.239   5.349   1.633
 1377TIP3    H1 4074   1.197   5.371   1.547
 1377TIP3    H2 4075   1.269   5.256   1.619
 1378TIP3   OH2 4076   1.732   5.359   1.239
 1378TIP3    H1 4077   1.808   5.402   1.196
 1378TIP3    H2 4078   1.662   5.425   1.223
 1379TIP3   OH2 4079   0.758   5.004   1.842
 1379TIP3    H1 4080   0.830   4.943   1.818
 1379TIP3    H2 4081   0.786   5.032   1.931
 1380TIP3   OH2 4082   1.090   4.879   1.504
 1380TIP3    H1 4083   1.010   4.937   1.504
 1380TIP3    H2 4084   1.139   4.914   1.426
 1381TIP3   OH2 4085   1.606   5.281   1.634
 1381TIP3    H1 4086   1.683   5.248   1.585
 1381TIP3    H2 4087   1.598   5.217   1.707
 1382TIP3   OH2 4088   1.213   4.669   1.624
 1382TIP3    H1 4089   1.212   4.591   1.565
 1382TIP3    H2 4090   1.168   4.737   1.569
 1383TIP3   OH2 4091   1.215   4.455   1.434
 1383TIP3    H1 4092   1.241   4.497   1.350
 1383TIP3    H2 4093   1.121   4.432   1.417
 1384TIP3   OH2 4094   1.239   4.989   1.311
 1384TIP3    H1 4095   1.323   5.003   1.266
 1384TIP3    H2 4096   1.180   5.052   1.263
 1385TIP3   OH2 4097   1.819   4.954   1.685
 1385TIP3    H1 4098   1.868   4.870   1.696
 1385TIP3    H2 4099   1.888   5.011   1.648
 1386TIP3   OH2 4100   1.861   5.209   1.423
 1386TIP3    H1 4101   1.804   5.265   1.365
 1386TIP3    H2 4102   1.949   5.231   1.385
 1387TIP3   OH2 4103   1.093   4.771   1.862
 1387TIP3    H1 4104   1.023   4.704   1.878
 1387TIP3    H2 4105   1.122   4.748   1.772
 1388TIP3   OH2 4106   1.344   4.216   1.507
 1388TIP3    H1 4107   1.296   4.298   1.482
 1388TIP3    H2 4108   1.275   4.148   1.495
 1389TIP3   OH2 4109   1.471   4.717   1.719
 1389TIP3    H1 4110   1.454   4.702   1.814
 1389TIP3    H2 4111   1.382   4.695   1.684
 1390TIP3   OH2 4112   1.709   4.670   1.574
 1390TIP3    H1 4113   1.634   4.671   1.637
 1390TIP3    H2 4114   1.783   4.641   1.630
 1391TIP3   OH2 4115   1.936   4.613   1.724
 1391TIP3    H1 4116   1.951   4.517   1.738
 1391TIP3    H2 4117   1.934   4.648   1.815
 1392TIP3   OH2 4118   0.929   4.552   1.915
 1392TIP3    H1 4119   0.932   4.460   1.883
 1392TIP3    H2 4120   0.964   4.541   2.006
 1393TIP3   OH2 4121   1.436   4.225   1.765
 1393TIP3    H1 4122   1.503   4.154   1.757
 1393TIP3    H2 4123   1.397   4.222   1.676
 1394TIP3   OH2 4124   1.505   4.439   1.922
 1394TIP3    H1 4125   1.483   4.369   1.858
 1394TIP3    H2 4126   1.427   4.499   1.915
 1395TIP3   OH2 4127   1.996   5.905   0.645
 1395TIP3    H1 4128   2.018   5.938   0.734
 1395TIP3    H2 4129   2.053   5.959   0.588
 1396TIP3   OH2 4130   2.013   5.933   0.924
 1396TIP3    H1 4131   1.968   5.846   0.920
 1396TIP3    H2 4132   2.088   5.909   0.981
 1397TIP3   OH2 4133   2.059   5.612   1.492
 1397TIP3    H1 4134   1.989   5.622   1.560
 1397TIP3    H2 4135   2.104   5.699   1.497
 1398TIP3   OH2 4136   1.884   5.116   0.105
 1398TIP3    H1 4137   1.950   5.182   0.077
 1398TIP3    H2 4138   1.927   5.080   0.186
 1399TIP3   OH2 4139   2.005   4.992   0.316
 1399TIP3    H1 4140   1.942   4.948   0.378
 1399TIP3    H2 4141   2.074   5.026   0.378
 1400TIP3   OH2 4142   2.059   5.385   0.743
 1400TIP3    H1 4143   2.116   5.317   0.702
 1400TIP3    H2 4144   2.056   5.454   0.674
 1401TIP3   OH2 4145   1.886   5.685   0.938
 1401TIP3    H1 4146   1.815   5.724   0.993
 1401TIP3    H2 4147   1.835   5.638   0.869
 1402TIP3   OH2 4148   1.946   4.890  -0.037
 1402TIP3    H1 4149   1.866   4.865  -0.087
 1402TIP3    H2 4150   1.916   4.971   0.009
 1403TIP3   OH2 4151   1.816   4.588  -0.087
 1403TIP3    H1 4152   1.745   4.639  -0.131
 1403TIP3    H2 4153   1.785   4.495  -0.096
 1404TIP3   OH2 4154   1.825   4.847   0.465
 1404TIP3    H1 4155   1.831   4.750   0.457
 1404TIP3    H2 4156   1.809   4.858   0.562
 1405TIP3   OH2 4157   0.455   4.907   1.221
 1405TIP3    H1 4158   0.457   4.882   1.127
 1405TIP3    H2 4159   0.552   4.908   1.241
 1406TIP3   OH2 4160   2.108   5.275   1.319
 1406TIP3    H1 4161   2.178   5.206   1.308
 1406TIP3    H2 4162   2.135   5.342   1.254
 1407TIP3   OH2 4163   2.287   5.073   1.327
 1407TIP3    H1 4164   2.214   5.023   1.369
 1407TIP3    H2 4165   2.362   5.011   1.343
 1408TIP3   OH2 4166   1.749   4.322  -0.080
 1408TIP3    H1 4167   1.836   4.287  -0.055
 1408TIP3    H2 4168   1.689   4.270  -0.025
 1409TIP3   OH2 4169   1.813   4.565   0.349
 1409TIP3    H1 4170   1.855   4.476   0.364
 1409TIP3    H2 4171   1.872   4.598   0.279
 1410TIP3   OH2 4172   1.972   4.735   0.850
 1410TIP3    H1 4173   2.058   4.760   0.808
 1410TIP3    H2 4174   1.988   4.773   0.939
 1411TIP3   OH2 4175   2.046   4.882   1.080
 1411TIP3    H1 4176   1.969   4.917   1.129
 1411TIP3    H2 4177   2.079   4.963   1.035
 1412TIP3   OH2 4178   0.663   4.607   1.874
 1412TIP3    H1 4179   0.760   4.600   1.885
 1412TIP3    H2 4180   0.635   4.523   1.916
 1413TIP3   OH2 4181   2.494   4.476   1.636
 1413TIP3    H1 4182   2.557   4.412   1.594
 1413TIP3    H2 4183   2.464   4.528   1.559
 1414TIP3   OH2 4184   1.923   4.316   0.391
 1414TIP3    H1 4185   1.971   4.300   0.475
 1414TIP3    H2 4186   1.862   4.239   0.391
 1415TIP3   OH2 4187   0.625   4.302   1.218
 1415TIP3    H1 4188   0.687   4.227   1.223
 1415TIP3    H2 4189   0.688   4.376   1.208
 1416TIP3   OH2 4190   0.412   4.568   1.288
 1416TIP3    H1 4191   0.473   4.572   1.211
 1416TIP3    H2 4192   0.432   4.652   1.331
 1417TIP3   OH2 4193   2.362   4.609   1.440
 1417TIP3    H1 4194   2.276   4.653   1.456
 1417TIP3    H2 4195   2.332   4.536   1.383
 1418TIP3   OH2 4196   2.009   4.249   0.010
 1418TIP3    H1 4197   2.079   4.190  -0.022
 1418TIP3    H2 4198   2.061   4.332   0.020
 1419TIP3   OH2 4199   0.629   4.147   1.597
 1419TIP3    H1 4200   0.582   4.154   1.682
 1419TIP3    H2 4201   0.566   4.193   1.538
 1420TIP3   OH2 4202   0.682   5.583   1.674
 1420TIP3    H1 4203   0.588   5.558   1.661
 1420TIP3    H2 4204   0.691   5.573   1.769
 1421TIP3   OH2 4205   0.849   5.608   1.235
 1421TIP3    H1 4206   0.778   5.633   1.173
 1421TIP3    H2 4207   0.928   5.645   1.189
 1422TIP3   OH2 4208   1.291   5.860   1.363
 1422TIP3    H1 4209   1.333   5.857   1.452
 1422TIP3    H2 4210   1.358   5.912   1.313
 1423TIP3   OH2 4211   1.470   6.017   1.227
 1423TIP3    H1 4212   1.538   5.965   1.182
 1423TIP3    H2 4213   1.525   6.072   1.286
 1424TIP3   OH2 4214   2.265   4.374   1.322
 1424TIP3    H1 4215   2.175   4.363   1.285
 1424TIP3    H2 4216   2.300   4.282   1.312
 1425TIP3   OH2 4217   1.216   5.899   0.891
 1425TIP3    H1 4218   1.121   5.881   0.874
 1425TIP3    H2 4219   1.211   5.974   0.953
 1426TIP3   OH2 4220   1.466   5.820   0.963
 1426TIP3    H1 4221   1.373   5.841   0.937
 1426TIP3    H2 4222   1.514   5.889   0.915
 1427TIP3   OH2 4223   1.660   6.002   0.872
 1427TIP3    H1 4224   1.653   6.088   0.826
 1427TIP3    H2 4225   1.690   5.943   0.799
 1428TIP3   OH2 4226   1.468   4.288   0.940
 1428TIP3    H1 4227   1.428   4.216   0.992
 1428TIP3    H2 4228   1.544   4.244   0.898
 1429TIP3   OH2 4229   1.988   4.172   0.845
 1429TIP3    H1 4230   2.025   4.224   0.770
 1429TIP3    H2 4231   1.893   4.193   0.839
 1430TIP3   OH2 4232   2.086   4.269   0.609
 1430TIP3    H1 4233   2.160   4.217   0.572
 1430TIP3    H2 4234   2.121   4.360   0.595
 1431TIP3   OH2 4235   0.713   3.999   0.954
 1431TIP3    H1 4236   0.627   3.954   0.953
 1431TIP3    H2 4237   0.773   3.921   0.949
 1432TIP3   OH2 4238   1.165   4.039   0.835
 1432TIP3    H1 4239   1.226   4.084   0.774
 1432TIP3    H2 4240   1.193   4.072   0.921
 1433TIP3   OH2 4241   1.703   4.178   0.820
 1433TIP3    H1 4242   1.710   4.136   0.734
 1433TIP3    H2 4243   1.693   4.100   0.879
 1434TIP3   OH2 4244   1.742   4.102   0.385
 1434TIP3    H1 4245   1.653   4.140   0.391
 1434TIP3    H2 4246   1.729   4.016   0.431
 1435TIP3   OH2 4247   1.162   4.205   0.466
 1435TIP3    H1 4248   1.216   4.160   0.533
 1435TIP3    H2 4249   1.177   4.298   0.494
 1436TIP3   OH2 4250   0.926   4.277   1.844
 1436TIP3    H1 4251   0.888   4.210   1.904
 1436TIP3    H2 4252   1.020   4.277   1.875
 1437TIP3   OH2 4253   1.176   4.276   1.966
 1437TIP3    H1 4254   1.261   4.253   1.926
 1437TIP3    H2 4255   1.165   4.205   2.032
 1438TIP3   OH2 4256   2.004   4.342   1.753
 1438TIP3    H1 4257   2.022   4.312   1.844
 1438TIP3    H2 4258   2.093   4.338   1.713
 1439TIP3   OH2 4259   1.937   5.891   1.249
 1439TIP3    H1 4260   1.859   5.860   1.198
 1439TIP3    H2 4261   1.917   5.986   1.256
 1440TIP3   OH2 4262   3.222   5.272   0.067
 1440TIP3    H1 4263   3.202   5.358   0.027
 1440TIP3    H2 4264   3.135   5.230   0.064
 1441TIP3   OH2 4265   3.201   5.315   0.361
 1441TIP3    H1 4266   3.192   5.240   0.425
 1441TIP3    H2 4267   3.203   5.268   0.276
 1442TIP3   OH2 4268   2.498   5.155   0.765
 1442TIP3    H1 4269   2.527   5.087   0.830
 1442TIP3    H2 4270   2.581   5.204   0.753
 1443TIP3   OH2 4271   3.465   5.558   0.070
 1443TIP3    H1 4272   3.442   5.487   0.132
 1443TIP3    H2 4273   3.480   5.632   0.130
 1444TIP3   OH2 4274   2.476   5.567   0.475
 1444TIP3    H1 4275   2.468   5.470   0.479
 1444TIP3    H2 4276   2.573   5.577   0.476
 1445TIP3   OH2 4277   2.184   4.768   0.262
 1445TIP3    H1 4278   2.138   4.852   0.283
 1445TIP3    H2 4279   2.110   4.717   0.224
 1446TIP3   OH2 4280   2.240   5.057   0.445
 1446TIP3    H1 4281   2.289   4.979   0.480
 1446TIP3    H2 4282   2.307   5.099   0.390
 1447TIP3   OH2 4283   3.061   5.986   0.126
 1447TIP3    H1 4284   3.130   5.995   0.059
 1447TIP3    H2 4285   3.110   5.983   0.209
 1448TIP3   OH2 4286   3.003   5.504   0.443
 1448TIP3    H1 4287   3.049   5.426   0.407
 1448TIP3    H2 4288   3.083   5.554   0.470
 1449TIP3   OH2 4289   4.022   4.806   0.447
 1449TIP3    H1 4290   4.049   4.894   0.481
 1449TIP3    H2 4291   4.036   4.818   0.351
 1450TIP3   OH2 4292   3.499   4.986   0.465
 1450TIP3    H1 4293   3.505   4.890   0.482
 1450TIP3    H2 4294   3.404   5.003   0.483
 1451TIP3   OH2 4295   2.755   4.650   0.435
 1451TIP3    H1 4296   2.740   4.725   0.375
 1451TIP3    H2 4297   2.702   4.580   0.390
 1452TIP3   OH2 4298   3.453   4.737   0.057
 1452TIP3    H1 4299   3.523   4.723   0.125
 1452TIP3    H2 4300   3.507   4.768  -0.018
 1453TIP3   OH2 4301   2.388   4.851   0.546
 1453TIP3    H1 4302   2.471   4.834   0.595
 1453TIP3    H2 4303   2.404   4.796   0.466
 1454TIP3   OH2 4304   2.815   5.046   0.336
 1454TIP3    H1 4305   2.905   5.008   0.334
 1454TIP3    H2 4306   2.765   4.966   0.307
 1455TIP3   OH2 4307   4.100   5.023   0.608
 1455TIP3    H1 4308   4.015   5.064   0.581
 1455TIP3    H2 4309   4.092   5.032   0.704
 1456TIP3   OH2 4310   2.747   4.631   0.874
 1456TIP3    H1 4311   2.692   4.671   0.804
 1456TIP3    H2 4312   2.693   4.652   0.953
 1457TIP3   OH2 4313   3.111   5.470  -0.082
 1457TIP3    H1 4314   3.056   5.470  -0.163
 1457TIP3    H2 4315   3.081   5.555  -0.043
 1458TIP3   OH2 4316   2.857   5.410   0.658
 1458TIP3    H1 4317   2.800   5.478   0.699
 1458TIP3    H2 4318   2.903   5.461   0.588
 1459TIP3   OH2 4319   3.649   4.743   0.244
 1459TIP3    H1 4320   3.617   4.713   0.330
 1459TIP3    H2 4321   3.697   4.826   0.268
 1460TIP3   OH2 4322   2.620   4.746   0.656
 1460TIP3    H1 4323   2.679   4.822   0.681
 1460TIP3    H2 4324   2.673   4.708   0.582
 1461TIP3   OH2 4325   2.686   5.608   0.763
 1461TIP3    H1 4326   2.661   5.697   0.731
 1461TIP3    H2 4327   2.608   5.588   0.819
 1462TIP3   OH2 4328   2.076   5.292  -0.002
 1462TIP3    H1 4329   2.038   5.312  -0.090
 1462TIP3    H2 4330   2.093   5.383   0.031
 1463TIP3   OH2 4331   3.521   5.800   0.242
 1463TIP3    H1 4332   3.435   5.783   0.286
 1463TIP3    H2 4333   3.506   5.892   0.214
 1464TIP3   OH2 4334   3.812   4.709   0.611
 1464TIP3    H1 4335   3.721   4.725   0.578
 1464TIP3    H2 4336   3.867   4.741   0.537
 1465TIP3   OH2 4337   3.104   4.347   0.592
 1465TIP3    H1 4338   3.084   4.254   0.610
 1465TIP3    H2 4339   3.029   4.391   0.637
 1466TIP3   OH2 4340   3.749   5.721   0.587
 1466TIP3    H1 4341   3.730   5.642   0.533
 1466TIP3    H2 4342   3.730   5.794   0.525
 1467TIP3   OH2 4343   3.049   5.136  -0.111
 1467TIP3    H1 4344   2.970   5.194  -0.133
 1467TIP3    H2 4345   3.120   5.186  -0.155
 1468TIP3   OH2 4346   3.944   5.370   0.435
 1468TIP3    H1 4347   3.857   5.415   0.445
 1468TIP3    H2 4348   3.964   5.388   0.341
 1469TIP3   OH2 4349   3.342   5.134  -0.141
 1469TIP3    H1 4350   3.309   5.180  -0.061
 1469TIP3    H2 4351   3.438   5.139  -0.124
 1470TIP3   OH2 4352   3.660   5.250   0.740
 1470TIP3    H1 4353   3.649   5.329   0.796
 1470TIP3    H2 4354   3.567   5.241   0.708
 1471TIP3   OH2 4355   2.614   5.200   0.228
 1471TIP3    H1 4356   2.575   5.139   0.162
 1471TIP3    H2 4357   2.689   5.148   0.263
 1472TIP3   OH2 4358   2.746   5.611   0.377
 1472TIP3    H1 4359   2.727   5.573   0.290
 1472TIP3    H2 4360   2.835   5.574   0.397
 1473TIP3   OH2 4361   2.739   5.175   0.579
 1473TIP3    H1 4362   2.783   5.143   0.498
 1473TIP3    H2 4363   2.792   5.255   0.602
 1474TIP3   OH2 4364   3.283   5.802   0.360
 1474TIP3    H1 4365   3.268   5.882   0.414
 1474TIP3    H2 4366   3.266   5.730   0.425
 1475TIP3   OH2 4367   2.892   5.727   0.905
 1475TIP3    H1 4368   2.831   5.786   0.954
 1475TIP3    H2 4369   2.827   5.671   0.857
 1476TIP3   OH2 4370   2.647   5.284   1.015
 1476TIP3    H1 4371   2.650   5.372   1.058
 1476TIP3    H2 4372   2.553   5.260   1.029
 1477TIP3   OH2 4373   2.980   5.734  -0.049
 1477TIP3    H1 4374   3.028   5.784   0.019
 1477TIP3    H2 4375   2.893   5.776  -0.045
 1478TIP3   OH2 4376   2.683   5.890   0.998
 1478TIP3    H1 4377   2.648   5.891   0.907
 1478TIP3    H2 4378   2.603   5.869   1.050
 1479TIP3   OH2 4379   2.484   5.034   0.036
 1479TIP3    H1 4380   2.406   5.065  -0.015
 1479TIP3    H2 4381   2.462   4.942   0.052
 1480TIP3   OH2 4382   2.263   5.425   0.944
 1480TIP3    H1 4383   2.197   5.399   0.877
 1480TIP3    H2 4384   2.302   5.339   0.970
 1481TIP3   OH2 4385   2.118   5.621   0.566
 1481TIP3    H1 4386   2.214   5.609   0.569
 1481TIP3    H2 4387   2.107   5.695   0.629
 1482TIP3   OH2 4388   3.988   6.070   0.640
 1482TIP3    H1 4389   3.983   5.973   0.656
 1482TIP3    H2 4390   3.903   6.098   0.681
 1483TIP3   OH2 4391   3.082   5.858   0.761
 1483TIP3    H1 4392   3.081   5.949   0.799
 1483TIP3    H2 4393   3.013   5.814   0.816
 1484TIP3   OH2 4394   2.266   5.806   0.123
 1484TIP3    H1 4395   2.345   5.806   0.182
 1484TIP3    H2 4396   2.198   5.784   0.190
 1485TIP3   OH2 4397   3.877   5.198   0.909
 1485TIP3    H1 4398   3.796   5.212   0.855
 1485TIP3    H2 4399   3.887   5.101   0.899
 1486TIP3   OH2 4400   2.467   5.608   0.928
 1486TIP3    H1 4401   2.518   5.591   1.010
 1486TIP3    H2 4402   2.394   5.544   0.936
 1487TIP3   OH2 4403   2.867   4.426   0.720
 1487TIP3    H1 4404   2.777   4.399   0.693
 1487TIP3    H2 4405   2.845   4.510   0.765
 1488TIP3   OH2 4406   3.402   4.539   0.913
 1488TIP3    H1 4407   3.471   4.515   0.979
 1488TIP3    H2 4408   3.319   4.521   0.960
 1489TIP3   OH2 4409   3.649   4.978   0.844
 1489TIP3    H1 4410   3.590   4.970   0.922
 1489TIP3    H2 4411   3.610   5.054   0.797
 1490TIP3   OH2 4412   3.021   4.505  -0.301
 1490TIP3    H1 4413   2.981   4.478  -0.215
 1490TIP3    H2 4414   2.975   4.444  -0.362
 1491TIP3   OH2 4415   2.785   4.949   0.727
 1491TIP3    H1 4416   2.758   4.977   0.816
 1491TIP3    H2 4417   2.773   5.032   0.676
 1492TIP3   OH2 4418   2.674   4.832   0.247
 1492TIP3    H1 4419   2.584   4.798   0.269
 1492TIP3    H2 4420   2.689   4.789   0.160
 1493TIP3   OH2 4421   3.177   4.912  -0.037
 1493TIP3    H1 4422   3.118   4.988  -0.057
 1493TIP3    H2 4423   3.257   4.940  -0.085
 1494TIP3   OH2 4424   3.351   5.200   1.079
 1494TIP3    H1 4425   3.326   5.129   1.141
 1494TIP3    H2 4426   3.445   5.213   1.103
 1495TIP3   OH2 4427   3.322   4.954   0.189
 1495TIP3    H1 4428   3.260   4.950   0.115
 1495TIP3    H2 4429   3.372   4.871   0.174
 1496TIP3   OH2 4430   2.609   4.976   0.951
 1496TIP3    H1 4431   2.671   5.030   1.003
 1496TIP3    H2 4432   2.607   4.893   1.002
 1497TIP3   OH2 4433   2.701   4.384  -0.329
 1497TIP3    H1 4434   2.671   4.418  -0.242
 1497TIP3    H2 4435   2.650   4.436  -0.392
 1498TIP3   OH2 4436   2.213   4.492   0.526
 1498TIP3    H1 4437   2.285   4.526   0.582
 1498TIP3    H2 4438   2.258   4.463   0.446
 1499TIP3   OH2 4439   2.170   4.475   0.040
 1499TIP3    H1 4440   2.229   4.508  -0.030
 1499TIP3    H2 4441   2.117   4.555   0.059
 1500TIP3   OH2 4442   3.396   5.223   0.699
 1500TIP3    H1 4443   3.346   5.177   0.629
 1500TIP3    H2 4444   3.343   5.191   0.775
 1501TIP3   OH2 4445   3.006   4.607   0.307
 1501TIP3    H1 4446   2.925   4.611   0.361
 1501TIP3    H2 4447   3.055   4.682   0.346
 1502TIP3   OH2 4448   2.443   4.707   0.317
 1502TIP3    H1 4449   2.349   4.714   0.289
 1502TIP3    H2 4450   2.467   4.615   0.296
 1503TIP3   OH2 4451   2.713   4.707   0.009
 1503TIP3    H1 4452   2.809   4.719  -0.005
 1503TIP3    H2 4453   2.673   4.742  -0.074
 1504TIP3   OH2 4454   3.513   4.710   0.514
 1504TIP3    H1 4455   3.483   4.731   0.606
 1504TIP3    H2 4456   3.435   4.659   0.483
 1505TIP3   OH2 4457   2.540   4.762  -0.200
 1505TIP3    H1 4458   2.462   4.705  -0.206
 1505TIP3    H2 4459   2.597   4.731  -0.275
 1506TIP3   OH2 4460   3.680   6.417   0.738
 1506TIP3    H1 4461   3.677   6.444   0.645
 1506TIP3    H2 4462   3.760   6.464   0.769
 1507TIP3   OH2 4463   2.628   5.532   1.151
 1507TIP3    H1 4464   2.710   5.557   1.198
 1507TIP3    H2 4465   2.566   5.528   1.226
 1508TIP3   OH2 4466   3.053   4.884   0.336
 1508TIP3    H1 4467   3.137   4.915   0.299
 1508TIP3    H2 4468   3.067   4.920   0.427
 1509TIP3   OH2 4469   2.606   4.468   0.291
 1509TIP3    H1 4470   2.572   4.391   0.342
 1509TIP3    H2 4471   2.653   4.424   0.218
 1510TIP3   OH2 4472   3.055   4.850   0.735
 1510TIP3    H1 4473   2.971   4.897   0.715
 1510TIP3    H2 4474   3.120   4.910   0.692
 1511TIP3   OH2 4475   2.828   5.259  -0.193
 1511TIP3    H1 4476   2.748   5.208  -0.215
 1511TIP3    H2 4477   2.796   5.308  -0.113
 1512TIP3   OH2 4478   3.703   5.503   0.423
 1512TIP3    H1 4479   3.717   5.552   0.340
 1512TIP3    H2 4480   3.619   5.456   0.403
 1513TIP3   OH2 4481   3.222   5.600   0.789
 1513TIP3    H1 4482   3.232   5.550   0.871
 1513TIP3    H2 4483   3.165   5.674   0.815
 1514TIP3   OH2 4484   2.496   5.289   0.464
 1514TIP3    H1 4485   2.536   5.263   0.379
 1514TIP3    H2 4486   2.553   5.241   0.527
 1515TIP3   OH2 4487   2.380   5.218   1.086
 1515TIP3    H1 4488   2.406   5.202   1.179
 1515TIP3    H2 4489   2.318   5.144   1.070
 1516TIP3   OH2 4490   3.108   5.349   1.074
 1516TIP3    H1 4491   3.069   5.286   1.012
 1516TIP3    H2 4492   3.196   5.310   1.087
 1517TIP3   OH2 4493   3.360   5.872   0.674
 1517TIP3    H1 4494   3.268   5.848   0.694
 1517TIP3    H2 4495   3.389   5.907   0.761
 1518TIP3   OH2 4496   3.997   5.783   0.675
 1518TIP3    H1 4497   3.899   5.775   0.671
 1518TIP3    H2 4498   4.020   5.749   0.586
 1519TIP3   OH2 4499   3.477   5.375   0.323
 1519TIP3    H1 4500   3.383   5.358   0.346
 1519TIP3    H2 4501   3.505   5.287   0.292
 1520TIP3   OH2 4502   2.609   5.588   0.106
 1520TIP3    H1 4503   2.596   5.665   0.046
 1520TIP3    H2 4504   2.517   5.566   0.125
 1521TIP3   OH2 4505   2.167   4.898  -0.203
 1521TIP3    H1 4506   2.210   4.983  -0.180
 1521TIP3    H2 4507   2.089   4.900  -0.143
 1522TIP3   OH2 4508   2.745   5.362   0.042
 1522TIP3    H1 4509   2.704   5.450   0.058
 1522TIP3    H2 4510   2.704   5.309   0.112
 1523TIP3   OH2 4511   2.870   5.936   0.563
 1523TIP3    H1 4512   2.913   6.009   0.514
 1523TIP3    H2 4513   2.947   5.900   0.611
 1524TIP3   OH2 4514   2.514   5.802  -0.032
 1524TIP3    H1 4515   2.422   5.822  -0.011
 1524TIP3    H2 4516   2.554   5.891  -0.028
 1525TIP3   OH2 4517   3.258   5.581   0.523
 1525TIP3    H1 4518   3.246   5.582   0.621
 1525TIP3    H2 4519   3.317   5.504   0.514
 1526TIP3   OH2 4520   3.510   6.093   0.583
 1526TIP3    H1 4521   3.437   6.027   0.590
 1526TIP3    H2 4522   3.480   6.153   0.511
 1527TIP3   OH2 4523   2.589   4.716   1.087
 1527TIP3    H1 4524   2.493   4.718   1.101
 1527TIP3    H2 4525   2.619   4.663   1.162
 1528TIP3   OH2 4526   2.308   5.798   0.719
 1528TIP3    H1 4527   2.363   5.728   0.760
 1528TIP3    H2 4528   2.334   5.875   0.772
 1529TIP3   OH2 4529   2.277   5.139  -0.116
 1529TIP3    H1 4530   2.207   5.188  -0.066
 1529TIP3    H2 4531   2.332   5.211  -0.149
 1530TIP3   OH2 4532   3.443   4.773   0.771
 1530TIP3    H1 4533   3.508   4.818   0.827
 1530TIP3    H2 4534   3.418   4.696   0.826
 1531TIP3   OH2 4535   3.306   4.539  -0.064
 1531TIP3    H1 4536   3.278   4.585  -0.145
 1531TIP3    H2 4537   3.357   4.610  -0.019
 1532TIP3   OH2 4538   2.991   4.712   0.041
 1532TIP3    H1 4539   3.059   4.779   0.021
 1532TIP3    H2 4540   2.998   4.703   0.138
 1533TIP3   OH2 4541   3.267   5.049   0.867
 1533TIP3    H1 4542   3.300   5.086   0.951
 1533TIP3    H2 4543   3.306   4.960   0.864
 1534TIP3   OH2 4544   3.140   4.427   0.137
 1534TIP3    H1 4545   3.120   4.499   0.199
 1534TIP3    H2 4546   3.202   4.471   0.074
 1535TIP3   OH2 4547   2.651   4.445  -0.058
 1535TIP3    H1 4548   2.655   4.536  -0.023
 1535TIP3    H2 4549   2.746   4.422  -0.054
 1536TIP3   OH2 4550   3.909   4.925   0.819
 1536TIP3    H1 4551   3.813   4.934   0.839
 1536TIP3    H2 4552   3.902   4.872   0.738
 1537TIP3   OH2 4553   3.552   5.123   0.218
 1537TIP3    H1 4554   3.469   5.074   0.233
 1537TIP3    H2 4555   3.611   5.073   0.278
 1538TIP3   OH2 4556   2.238   4.638  -0.189
 1538TIP3    H1 4557   2.222   4.734  -0.195
 1538TIP3    H2 4558   2.157   4.603  -0.228
 1539TIP3   OH2 4559   3.535   6.073   0.185
 1539TIP3    H1 4560   3.489   6.083   0.098
 1539TIP3    H2 4561   3.627   6.062   0.158
 1540TIP3   OH2 4562   2.600   4.348   0.690
 1540TIP3    H1 4563   2.572   4.314   0.602
 1540TIP3    H2 4564   2.590   4.270   0.747
 1541TIP3   OH2 4565   2.114   5.558   0.055
 1541TIP3    H1 4566   2.079   5.601   0.136
 1541TIP3    H2 4567   2.178   5.625   0.025
 1542TIP3   OH2 4568   2.303   6.118   1.144
 1542TIP3    H1 4569   2.389   6.119   1.191
 1542TIP3    H2 4570   2.285   6.022   1.142
 1543TIP3   OH2 4571   2.775   6.071   1.186
 1543TIP3    H1 4572   2.868   6.048   1.199
 1543TIP3    H2 4573   2.750   6.008   1.115
 1544TIP3   OH2 4574   3.420   5.978   0.919
 1544TIP3    H1 4575   3.410   5.909   0.989
 1544TIP3    H2 4576   3.495   6.031   0.953
 1545TIP3   OH2 4577   2.428   5.518   1.344
 1545TIP3    H1 4578   2.444   5.423   1.355
 1545TIP3    H2 4579   2.341   5.519   1.298
 1546TIP3   OH2 4580   3.035   5.612   1.118
 1546TIP3    H1 4581   2.995   5.624   1.030
 1546TIP3    H2 4582   3.069   5.520   1.113
 1547TIP3   OH2 4583   3.532   5.615   0.734
 1547TIP3    H1 4584   3.600   5.668   0.688
 1547TIP3    H2 4585   3.450   5.663   0.715
 1548TIP3   OH2 4586   2.552   5.251   1.325
 1548TIP3    H1 4587   2.633   5.209   1.295
 1548TIP3    H2 4588   2.579   5.283   1.414
 1549TIP3   OH2 4589   2.622   5.070  -0.233
 1549TIP3    H1 4590   2.584   5.034  -0.152
 1549TIP3    H2 4591   2.683   4.999  -0.259
 1550TIP3   OH2 4592   2.861   5.115   0.977
 1550TIP3    H1 4593   2.801   5.192   0.988
 1550TIP3    H2 4594   2.927   5.154   0.914
 1551TIP3   OH2 4595   3.399   5.545   1.118
 1551TIP3    H1 4596   3.469   5.497   1.071
 1551TIP3    H2 4597   3.387   5.486   1.196
 1552TIP3   OH2 4598   3.009   4.926   1.114
 1552TIP3    H1 4599   3.009   4.844   1.062
 1552TIP3    H2 4600   2.966   4.989   1.052
 1553TIP3   OH2 4601   3.003   4.697   0.951
 1553TIP3    H1 4602   3.034   4.748   0.872
 1553TIP3    H2 4603   2.911   4.677   0.923
 1554TIP3   OH2 4604   3.026   5.237   0.804
 1554TIP3    H1 4605   3.088   5.188   0.746
 1554TIP3    H2 4606   2.985   5.301   0.742
 1555TIP3   OH2 4607   3.627   5.196   1.169
 1555TIP3    H1 4608   3.677   5.113   1.171
 1555TIP3    H2 4609   3.689   5.257   1.127
 1556TIP3   OH2 4610   3.662   5.470   0.918
 1556TIP3    H1 4611   3.600   5.521   0.861
 1556TIP3    H2 4612   3.747   5.494   0.876
 1557TIP3   OH2 4613   2.875   5.036   1.336
 1557TIP3    H1 4614   2.814   4.963   1.356
 1557TIP3    H2 4615   2.915   5.007   1.252
 1558TIP3   OH2 4616   3.144   4.464   0.995
 1558TIP3    H1 4617   3.093   4.547   0.977
 1558TIP3    H2 4618   3.075   4.397   0.981
 1559TIP3   OH2 4619   3.270   4.970   1.206
 1559TIP3    H1 4620   3.250   4.962   1.301
 1559TIP3    H2 4621   3.181   4.952   1.169
 1560TIP3   OH2 4622   3.502   4.916   1.060
 1560TIP3    H1 4623   3.425   4.927   1.120
 1560TIP3    H2 4624   3.573   4.893   1.123
 1561TIP3   OH2 4625   3.748   4.874   1.212
 1561TIP3    H1 4626   3.754   4.777   1.226
 1561TIP3    H2 4627   3.737   4.908   1.303
 1562TIP3   OH2 4628   2.721   4.809   1.403
 1562TIP3    H1 4629   2.730   4.718   1.371
 1562TIP3    H2 4630   2.760   4.802   1.492
 1563TIP3   OH2 4631   3.232   4.480   1.253
 1563TIP3    H1 4632   3.299   4.409   1.245
 1563TIP3    H2 4633   3.193   4.477   1.163
 1564TIP3   OH2 4634   3.298   4.697   1.410
 1564TIP3    H1 4635   3.277   4.626   1.345
 1564TIP3    H2 4636   3.220   4.756   1.402
 1565TIP3   OH2 4637   2.003   5.308  -0.269
 1565TIP3    H1 4638   2.071   5.300  -0.336
 1565TIP3    H2 4639   1.949   5.228  -0.281
 1566TIP3   OH2 4640   1.921   5.902   0.129
 1566TIP3    H1 4641   1.834   5.936   0.158
 1566TIP3    H2 4642   1.951   5.851   0.208
 1567TIP3   OH2 4643   2.071   5.760   0.320
 1567TIP3    H1 4644   2.053   5.692   0.389
 1567TIP3    H2 4645   2.117   5.825   0.377
 1568TIP3   OH2 4646   3.807   6.193   0.406
 1568TIP3    H1 4647   3.765   6.105   0.399
 1568TIP3    H2 4648   3.888   6.169   0.453
 1569TIP3   OH2 4649   3.857   5.868   0.979
 1569TIP3    H1 4650   3.784   5.876   1.045
 1569TIP3    H2 4651   3.898   5.956   0.985
 1570TIP3   OH2 4652   3.863   5.641   0.234
 1570TIP3    H1 4653   3.900   5.569   0.178
 1570TIP3    H2 4654   3.809   5.692   0.171
 1571TIP3   OH2 4655   3.683   5.939   0.428
 1571TIP3    H1 4656   3.618   5.983   0.487
 1571TIP3    H2 4657   3.626   5.890   0.367
 1572TIP3   OH2 4658   3.608   5.087  -0.047
 1572TIP3    H1 4659   3.616   4.991  -0.051
 1572TIP3    H2 4660   3.597   5.103   0.050
 1573TIP3   OH2 4661   2.237   5.183   0.695
 1573TIP3    H1 4662   2.236   5.145   0.605
 1573TIP3    H2 4663   2.334   5.181   0.713
 1574TIP3   OH2 4664   3.906   5.532   0.807
 1574TIP3    H1 4665   3.974   5.463   0.792
 1574TIP3    H2 4666   3.929   5.598   0.739
 1575TIP3   OH2 4667   4.089   5.331   0.806
 1575TIP3    H1 4668   4.013   5.284   0.847
 1575TIP3    H2 4669   4.160   5.266   0.828
 1576TIP3   OH2 4670   3.609   4.811  -0.164
 1576TIP3    H1 4671   3.646   4.721  -0.145
 1576TIP3    H2 4672   3.683   4.850  -0.213
 1577TIP3   OH2 4673   3.770   4.974   0.331
 1577TIP3    H1 4674   3.856   5.015   0.309
 1577TIP3    H2 4675   3.758   5.007   0.422
 1578TIP3   OH2 4676   3.852   5.136   0.564
 1578TIP3    H1 4677   3.778   5.167   0.621
 1578TIP3    H2 4678   3.877   5.218   0.519
 1579TIP3   OH2 4679   2.454   4.859   1.362
 1579TIP3    H1 4680   2.552   4.858   1.370
 1579TIP3    H2 4681   2.433   4.774   1.405
 1580TIP3   OH2 4682   4.295   4.737   1.121
 1580TIP3    H1 4683   4.354   4.672   1.078
 1580TIP3    H2 4684   4.261   4.788   1.044
 1581TIP3   OH2 4685   3.703   4.567  -0.114
 1581TIP3    H1 4686   3.758   4.547  -0.036
 1581TIP3    H2 4687   3.647   4.486  -0.118
 1582TIP3   OH2 4688   2.416   4.557   0.702
 1582TIP3    H1 4689   2.478   4.482   0.709
 1582TIP3    H2 4690   2.479   4.631   0.691
 1583TIP3   OH2 4691   2.216   4.830   0.769
 1583TIP3    H1 4692   2.269   4.827   0.686
 1583TIP3    H2 4693   2.252   4.908   0.811
 1584TIP3   OH2 4694   4.161   4.869   0.925
 1584TIP3    H1 4695   4.077   4.913   0.949
 1584TIP3    H2 4696   4.125   4.797   0.869
 1585TIP3   OH2 4697   2.206   4.334   0.270
 1585TIP3    H1 4698   2.115   4.329   0.303
 1585TIP3    H2 4699   2.197   4.392   0.192
 1586TIP3   OH2 4700   2.424   4.410   1.086
 1586TIP3    H1 4701   2.374   4.410   1.169
 1586TIP3    H2 4702   2.359   4.450   1.025
 1587TIP3   OH2 4703   2.462   5.850   1.161
 1587TIP3    H1 4704   2.370   5.820   1.149
 1587TIP3    H2 4705   2.480   5.822   1.252
 1588TIP3   OH2 4706   2.644   5.879   0.712
 1588TIP3    H1 4707   2.599   5.957   0.673
 1588TIP3    H2 4708   2.730   5.889   0.667
 1589TIP3   OH2 4709   3.083   6.122   0.851
 1589TIP3    H1 4710   3.126   6.117   0.939
 1589TIP3    H2 4711   3.151   6.172   0.800
 1590TIP3   OH2 4712   3.267   6.272   0.710
 1590TIP3    H1 4713   3.339   6.216   0.678
 1590TIP3    H2 4714   3.316   6.331   0.771
 1591TIP3   OH2 4715   4.062   4.631   0.807
 1591TIP3    H1 4716   3.972   4.626   0.771
 1591TIP3    H2 4717   4.091   4.538   0.797
 1592TIP3   OH2 4718   2.316   6.130   0.736
 1592TIP3    H1 4719   2.226   6.164   0.716
 1592TIP3    H2 4720   2.334   6.177   0.819
 1593TIP3   OH2 4721   2.555   6.113   0.597
 1593TIP3    H1 4722   2.467   6.124   0.638
 1593TIP3    H2 4723   2.538   6.145   0.506
 1594TIP3   OH2 4724   2.980   6.136   0.402
 1594TIP3    H1 4725   2.918   6.149   0.328
 1594TIP3    H2 4726   2.985   6.227   0.440
 1595TIP3   OH2 4727   3.246   6.073   0.429
 1595TIP3    H1 4728   3.150   6.094   0.426
 1595TIP3    H2 4729   3.286   6.160   0.414
 1596TIP3   OH2 4730   3.458   6.264   0.375
 1596TIP3    H1 4731   3.436   6.344   0.321
 1596TIP3    H2 4732   3.486   6.200   0.306
 1597TIP3   OH2 4733   2.234   5.921   0.476
 1597TIP3    H1 4734   2.256   5.893   0.568
 1597TIP3    H2 4735   2.311   5.880   0.430
 1598TIP3   OH2 4736   2.431   5.797   0.337
 1598TIP3    H1 4737   2.446   5.713   0.387
 1598TIP3    H2 4738   2.522   5.834   0.336
 1599TIP3   OH2 4739   2.693   5.886   0.350
 1599TIP3    H1 4740   2.722   5.793   0.342
 1599TIP3    H2 4741   2.744   5.912   0.429
 1600TIP3   OH2 4742   3.290   4.549   0.438
 1600TIP3    H1 4743   3.227   4.486   0.475
 1600TIP3    H2 4744   3.353   4.493   0.389
 1601TIP3   OH2 4745   3.783   4.430   0.342
 1601TIP3    H1 4746   3.816   4.481   0.265
 1601TIP3    H2 4747   3.687   4.448   0.337
 1602TIP3   OH2 4748   3.876   4.511   0.097
 1602TIP3    H1 4749   3.949   4.462   0.056
 1602TIP3    H2 4750   3.909   4.603   0.083
 1603TIP3   OH2 4751   2.513   4.253   0.441
 1603TIP3    H1 4752   2.421   4.220   0.446
 1603TIP3    H2 4753   2.562   4.168   0.438
 1604TIP3   OH2 4754   2.284   4.124   0.094
 1604TIP3    H1 4755   2.335   4.173   0.025
 1604TIP3    H2 4756   2.270   4.195   0.160
 1605TIP3   OH2 4757   2.959   4.285   0.328
 1605TIP3    H1 4758   3.009   4.338   0.264
 1605TIP3    H2 4759   2.984   4.329   0.411
 1606TIP3   OH2 4760   3.507   4.429   0.302
 1606TIP3    H1 4761   3.500   4.393   0.213
 1606TIP3    H2 4762   3.492   4.349   0.358
 1607TIP3   OH2 4763   3.531   4.360  -0.091
 1607TIP3    H1 4764   3.442   4.401  -0.093
 1607TIP3    H2 4765   3.514   4.271  -0.056
 1608TIP3   OH2 4766   2.428   4.271  -0.089
 1608TIP3    H1 4767   2.449   4.231  -0.175
 1608TIP3    H2 4768   2.504   4.332  -0.076
 1609TIP3   OH2 4769   2.928   4.458  -0.042
 1609TIP3    H1 4770   2.992   4.412   0.016
 1609TIP3    H2 4771   2.947   4.551  -0.017
 1610TIP3   OH2 4772   2.721   4.530   1.332
 1610TIP3    H1 4773   2.686   4.461   1.391
 1610TIP3    H2 4774   2.815   4.533   1.360
 1611TIP3   OH2 4775   2.970   4.533   1.451
 1611TIP3    H1 4776   3.056   4.513   1.411
 1611TIP3    H2 4777   2.962   4.462   1.517
 1612TIP3   OH2 4778   3.799   4.598   1.240
 1612TIP3    H1 4779   3.816   4.568   1.332
 1612TIP3    H2 4780   3.888   4.592   1.201
 1613TIP3   OH2 4781   3.739   6.147   0.734
 1613TIP3    H1 4782   3.658   6.116   0.687
 1613TIP3    H2 4783   3.718   6.242   0.742
 1614TIP3   OH2 4784   4.328   5.407   0.234
 1614TIP3    H1 4785   4.345   5.343   0.306
 1614TIP3    H2 4786   4.352   5.491   0.277
 1615TIP3   OH2 4787   4.204   5.080   0.098
 1615TIP3    H1 4788   4.295   5.043   0.098
 1615TIP3    H2 4789   4.186   5.095   0.004
 1616TIP3   OH2 4790   4.548   4.891   0.375
 1616TIP3    H1 4791   4.495   4.922   0.299
 1616TIP3    H2 4792   4.487   4.910   0.450
 1617TIP3   OH2 4793   4.459   4.982   0.129
 1617TIP3    H1 4794   4.518   5.057   0.149
 1617TIP3    H2 4795   4.500   4.945   0.049
 1618TIP3   OH2 4796   4.501   5.844   0.284
 1618TIP3    H1 4797   4.469   5.915   0.224
 1618TIP3    H2 4798   4.418   5.825   0.332
 1619TIP3   OH2 4799   4.903   4.593   0.140
 1619TIP3    H1 4800   4.867   4.506   0.169
 1619TIP3    H2 4801   4.823   4.649   0.160
 1620TIP3   OH2 4802   4.648   5.947   0.489
 1620TIP3    H1 4803   4.595   6.030   0.496
 1620TIP3    H2 4804   4.592   5.897   0.426
 1621TIP3   OH2 4805   4.430   5.539   0.492
 1621TIP3    H1 4806   4.438   5.626   0.536
 1621TIP3    H2 4807   4.342   5.512   0.525
 1622TIP3   OH2 4808   4.471   6.158   0.487
 1622TIP3    H1 4809   4.431   6.191   0.404
 1622TIP3    H2 4810   4.392   6.134   0.541
 1623TIP3   OH2 4811   4.057   5.675   0.434
 1623TIP3    H1 4812   3.986   5.658   0.368
 1623TIP3    H2 4813   4.088   5.585   0.457
 1624TIP3   OH2 4814   5.618   5.472   0.431
 1624TIP3    H1 4815   5.695   5.507   0.381
 1624TIP3    H2 4816   5.642   5.378   0.442
 1625TIP3   OH2 4817   4.259   5.856   0.424
 1625TIP3    H1 4818   4.305   5.847   0.509
 1625TIP3    H2 4819   4.188   5.789   0.431
 1626TIP3   OH2 4820   4.660   4.696   0.217
 1626TIP3    H1 4821   4.572   4.663   0.188
 1626TIP3    H2 4822   4.630   4.771   0.273
 1627TIP3   OH2 4823   5.228   4.765   0.463
 1627TIP3    H1 4824   5.229   4.858   0.496
 1627TIP3    H2 4825   5.130   4.750   0.465
 1628TIP3   OH2 4826   5.444   5.195   0.334
 1628TIP3    H1 4827   5.394   5.197   0.419
 1628TIP3    H2 4828   5.402   5.264   0.282
 1629TIP3   OH2 4829   4.600   5.210   0.214
 1629TIP3    H1 4830   4.552   5.220   0.299
 1629TIP3    H2 4831   4.551   5.271   0.157
 1630TIP3   OH2 4832   5.142   5.446   0.549
 1630TIP3    H1 4833   5.123   5.371   0.609
 1630TIP3    H2 4834   5.237   5.459   0.565
 1631TIP3   OH2 4835   4.414   5.221   0.427
 1631TIP3    H1 4836   4.448   5.278   0.497
 1631TIP3    H2 4837   4.394   5.139   0.476
 1632TIP3   OH2 4838   4.011   4.733   0.026
 1632TIP3    H1 4839   4.080   4.764   0.088
 1632TIP3    H2 4840   4.024   4.795  -0.050
 1633TIP3   OH2 4841   4.425   5.783   0.636
 1633TIP3    H1 4842   4.504   5.822   0.679
 1633TIP3    H2 4843   4.364   5.777   0.712
 1634TIP3   OH2 4844   4.861   5.095   0.205
 1634TIP3    H1 4845   4.779   5.146   0.191
 1634TIP3    H2 4846   4.925   5.165   0.229
 1635TIP3   OH2 4847   4.998   5.810   0.336
 1635TIP3    H1 4848   5.025   5.814   0.430
 1635TIP3    H2 4849   4.924   5.873   0.333
 1636TIP3   OH2 4850   4.179   5.458   0.568
 1636TIP3    H1 4851   4.186   5.441   0.664
 1636TIP3    H2 4852   4.104   5.399   0.546
 1637TIP3   OH2 4853   4.907   5.580   0.595
 1637TIP3    H1 4854   4.847   5.526   0.541
 1637TIP3    H2 4855   4.995   5.542   0.569
 1638TIP3   OH2 4856   4.377   4.975   0.574
 1638TIP3    H1 4857   4.279   4.983   0.586
 1638TIP3    H2 4858   4.401   4.921   0.650
 1639TIP3   OH2 4859   4.090   6.031   0.285
 1639TIP3    H1 4860   4.125   5.945   0.317
 1639TIP3    H2 4861   4.143   6.091   0.339
 1640TIP3   OH2 4862   5.201   5.051   0.294
 1640TIP3    H1 4863   5.285   5.096   0.270
 1640TIP3    H2 4864   5.229   4.959   0.292
 1641TIP3   OH2 4865   5.041   5.287   0.330
 1641TIP3    H1 4866   5.089   5.335   0.400
 1641TIP3    H2 4867   5.098   5.207   0.321
 1642TIP3   OH2 4868   4.403   4.609   0.199
 1642TIP3    H1 4869   4.366   4.576   0.114
 1642TIP3    H2 4870   4.393   4.529   0.255
 1643TIP3   OH2 4871   4.082   6.355   0.663
 1643TIP3    H1 4872   4.175   6.361   0.694
 1643TIP3    H2 4873   4.070   6.259   0.652
 1644TIP3   OH2 4874   4.573   6.315   0.693
 1644TIP3    H1 4875   4.656   6.356   0.664
 1644TIP3    H2 4876   4.546   6.265   0.613
 1645TIP3   OH2 4877   4.227   5.776   0.831
 1645TIP3    H1 4878   4.239   5.679   0.842
 1645TIP3    H2 4879   4.139   5.779   0.787
 1646TIP3   OH2 4880   4.857   5.848   0.616
 1646TIP3    H1 4881   4.784   5.865   0.552
 1646TIP3    H2 4882   4.876   5.753   0.604
 1647TIP3   OH2 4883   4.351   5.515   0.814
 1647TIP3    H1 4884   4.415   5.445   0.798
 1647TIP3    H2 4885   4.377   5.546   0.903
 1648TIP3   OH2 4886   4.654   5.383   0.490
 1648TIP3    H1 4887   4.578   5.444   0.493
 1648TIP3    H2 4888   4.709   5.426   0.421
 1649TIP3   OH2 4889   5.196   5.796   0.610
 1649TIP3    H1 4890   5.291   5.795   0.597
 1649TIP3    H2 4891   5.185   5.727   0.679
 1650TIP3   OH2 4892   4.806   5.181   0.602
 1650TIP3    H1 4893   4.806   5.099   0.550
 1650TIP3    H2 4894   4.752   5.242   0.547
 1651TIP3   OH2 4895   4.806   4.955   0.434
 1651TIP3    H1 4896   4.832   4.999   0.349
 1651TIP3    H2 4897   4.712   4.934   0.416
 1652TIP3   OH2 4898   4.824   5.507   0.321
 1652TIP3    H1 4899   4.915   5.472   0.326
 1652TIP3    H2 4900   4.837   5.581   0.257
 1653TIP3   OH2 4901   5.420   5.466   0.660
 1653TIP3    H1 4902   5.443   5.373   0.676
 1653TIP3    H2 4903   5.498   5.494   0.608
 1654TIP3   OH2 4904   4.684   5.286   0.835
 1654TIP3    H1 4905   4.615   5.218   0.852
 1654TIP3    H2 4906   4.715   5.261   0.746
 1655TIP3   OH2 4907   4.949   4.722   0.472
 1655TIP3    H1 4908   4.897   4.805   0.459
 1655TIP3    H2 4909   4.878   4.655   0.461
 1656TIP3   OH2 4910   5.061   5.232   0.698
 1656TIP3    H1 4911   5.040   5.217   0.792
 1656TIP3    H2 4912   4.974   5.210   0.659
 1657TIP3   OH2 4913   5.303   5.190   0.566
 1657TIP3    H1 4914   5.225   5.187   0.626
 1657TIP3    H2 4915   5.375   5.154   0.622
 1658TIP3   OH2 4916   5.529   5.118   0.703
 1658TIP3    H1 4917   5.542   5.023   0.718
 1658TIP3    H2 4918   5.529   5.156   0.793
 1659TIP3   OH2 4919   4.524   5.066   0.888
 1659TIP3    H1 4920   4.524   4.973   0.856
 1659TIP3    H2 4921   4.560   5.054   0.978
 1660TIP3   OH2 4922   5.038   4.749   0.731
 1660TIP3    H1 4923   5.057   4.658   0.756
 1660TIP3    H2 4924   4.996   4.739   0.642
 1661TIP3   OH2 4925   5.099   4.959   0.897
 1661TIP3    H1 4926   5.079   4.890   0.829
 1661TIP3    H2 4927   5.020   5.017   0.892
 1662TIP3   OH2 4928   4.047   5.426   0.177
 1662TIP3    H1 4929   4.054   5.417   0.081
 1662TIP3    H2 4930   4.142   5.437   0.199
 1663TIP3   OH2 4931   4.259   5.126   0.866
 1663TIP3    H1 4932   4.356   5.115   0.868
 1663TIP3    H2 4933   4.231   5.037   0.897
 1664TIP3   OH2 4934   6.086   4.994   0.596
 1664TIP3    H1 4935   6.139   4.914   0.572
 1664TIP3    H2 4936   6.124   5.057   0.530
 1665TIP3   OH2 4937   4.208   4.801   0.210
 1665TIP3    H1 4938   4.273   4.729   0.214
 1665TIP3    H2 4939   4.265   4.877   0.193
 1666TIP3   OH2 4940   4.010   5.098   0.288
 1666TIP3    H1 4941   4.078   5.085   0.218
 1666TIP3    H2 4942   4.037   5.182   0.326
 1667TIP3   OH2 4943   5.882   5.161   0.444
 1667TIP3    H1 4944   5.825   5.089   0.471
 1667TIP3    H2 4945   5.965   5.117   0.419
 1668TIP3   OH2 4946   4.222   4.663   0.572
 1668TIP3    H1 4947   4.172   4.663   0.655
 1668TIP3    H2 4948   4.158   4.709   0.513
 1669TIP3   OH2 4949   4.262   6.095   0.652
 1669TIP3    H1 4950   4.168   6.075   0.634
 1669TIP3    H2 4951   4.265   6.083   0.747
 1670TIP3   OH2 4952   5.817   4.872   0.322
 1670TIP3    H1 4953   5.738   4.835   0.278
 1670TIP3    H2 4954   5.882   4.798   0.311
 1671TIP3   OH2 4955   4.097   6.393   0.329
 1671TIP3    H1 4956   4.033   6.458   0.294
 1671TIP3    H2 4957   4.061   6.311   0.287
 1672TIP3   OH2 4958   4.302   4.500  -0.025
 1672TIP3    H1 4959   4.208   4.472  -0.026
 1672TIP3    H2 4960   4.346   4.416  -0.046
 1673TIP3   OH2 4961   4.517   4.793   0.822
 1673TIP3    H1 4962   4.479   4.723   0.878
 1673TIP3    H2 4963   4.611   4.792   0.852
 1674TIP3   OH2 4964   4.766   4.789   0.944
 1674TIP3    H1 4965   4.855   4.764   0.916
 1674TIP3    H2 4966   4.747   4.721   1.012
 1675TIP3   OH2 4967   5.590   4.847   0.726
 1675TIP3    H1 4968   5.607   4.819   0.819
 1675TIP3    H2 4969   5.680   4.845   0.689
 1676TIP3   OH2 4970   0.390   6.045   1.814
 1676TIP3    H1 4971   0.421   5.963   1.769
 1676TIP3    H2 4972   0.291   6.038   1.806
 1677TIP3   OH2 4973   1.851   6.360   0.587
 1677TIP3    H1 4974   1.890   6.445   0.616
 1677TIP3    H2 4975   1.854   6.369   0.490
 1678TIP3   OH2 4976   1.941   6.581   0.741
 1678TIP3    H1 4977   1.872   6.634   0.696
 1678TIP3    H2 4978   1.926   6.604   0.834
 1679TIP3   OH2 4979   1.679   6.266   0.782
 1679TIP3    H1 4980   1.588   6.292   0.762
 1679TIP3    H2 4981   1.729   6.296   0.702
 1680TIP3   OH2 4982   1.714   6.753   1.065
 1680TIP3    H1 4983   1.625   6.760   1.028
 1680TIP3    H2 4984   1.732   6.658   1.054
 1681TIP3   OH2 4985   1.247   6.090   1.084
 1681TIP3    H1 4986   1.319   6.058   1.143
 1681TIP3    H2 4987   1.166   6.067   1.134
 1682TIP3   OH2 4988   1.494   6.550   0.988
 1682TIP3    H1 4989   1.448   6.515   1.068
 1682TIP3    H2 4990   1.429   6.619   0.963
 1683TIP3   OH2 4991   1.185   6.782   1.247
 1683TIP3    H1 4992   1.159   6.690   1.266
 1683TIP3    H2 4993   1.276   6.782   1.282
 1684TIP3   OH2 4994   1.356   6.285   0.930
 1684TIP3    H1 4995   1.399   6.326   1.007
 1684TIP3    H2 4996   1.315   6.207   0.974
 1685TIP3   OH2 4997   1.754   6.491   0.968
 1685TIP3    H1 4998   1.657   6.501   0.976
 1685TIP3    H2 4999   1.759   6.421   0.901
 1686TIP3   OH2 5000   1.237   7.114   1.336
 1686TIP3    H1 5001   1.289   7.102   1.255
 1686TIP3    H2 5002   1.261   7.036   1.389
 1687TIP3   OH2 5003   1.461   6.767   1.319
 1687TIP3    H1 5004   1.514   6.687   1.336
 1687TIP3    H2 5005   1.530   6.831   1.293
 1688TIP3   OH2 5006   1.517   7.020   1.059
 1688TIP3    H1 5007   1.450   7.084   1.027
 1688TIP3    H2 5008   1.592   7.048   1.005
 1689TIP3   OH2 5009   0.989   6.012   1.149
 1689TIP3    H1 5010   0.956   6.056   1.067
 1689TIP3    H2 5011   0.951   5.924   1.139
 1690TIP3   OH2 5012   1.106   6.543   1.361
 1690TIP3    H1 5013   1.134   6.549   1.454
 1690TIP3    H2 5014   1.044   6.468   1.368
 1691TIP3   OH2 5015   1.355   6.471   1.204
 1691TIP3    H1 5016   1.278   6.476   1.264
 1691TIP3    H2 5017   1.428   6.449   1.266
 1692TIP3   OH2 5018   1.576   6.425   1.360
 1692TIP3    H1 5019   1.591   6.329   1.376
 1692TIP3    H2 5020   1.571   6.461   1.450
 1693TIP3   OH2 5021   1.084   6.041   1.408
 1693TIP3    H1 5022   1.146   5.966   1.401
 1693TIP3    H2 5023   1.034   6.032   1.324
 1694TIP3   OH2 5024   1.147   6.260   1.555
 1694TIP3    H1 5025   1.130   6.180   1.499
 1694TIP3    H2 5026   1.059   6.303   1.553
 1695TIP3   OH2 5027   1.704   7.445   1.136
 1695TIP3    H1 5028   1.631   7.438   1.201
 1695TIP3    H2 5029   1.738   7.534   1.156
 1696TIP3   OH2 5030   1.775   7.104   0.936
 1696TIP3    H1 5031   1.833   7.024   0.952
 1696TIP3    H2 5032   1.796   7.119   0.842
 1697TIP3   OH2 5033   1.930   6.888   0.975
 1697TIP3    H1 5034   1.855   6.836   1.012
 1697TIP3    H2 5035   2.003   6.823   0.988
 1698TIP3   OH2 5036   2.131   6.290   1.273
 1698TIP3    H1 5037   2.194   6.226   1.233
 1698TIP3    H2 5038   2.104   6.342   1.194
 1699TIP3   OH2 5039   2.004   6.425   1.074
 1699TIP3    H1 5040   1.919   6.469   1.092
 1699TIP3    H2 5041   1.973   6.350   1.020
 1700TIP3   OH2 5042   1.904   6.187   0.961
 1700TIP3    H1 5043   1.816   6.178   0.920
 1700TIP3    H2 5044   1.939   6.095   0.952
 1701TIP3   OH2 5045   1.688   5.988   0.486
 1701TIP3    H1 5046   1.710   6.071   0.442
 1701TIP3    H2 5047   1.595   5.974   0.457
 1702TIP3   OH2 5048   6.929   2.824   8.072
 1702TIP3    H1 5049   6.959   2.804   8.160
 1702TIP3    H2 5050   7.002   2.882   8.041
 1703TIP3   OH2 5051   0.812   6.078   1.624
 1703TIP3    H1 5052   0.899   6.038   1.605
 1703TIP3    H2 5053   0.776   6.013   1.686
 1704TIP3   OH2 5054   1.642   6.157   1.391
 1704TIP3    H1 5055   1.659   6.125   1.482
 1704TIP3    H2 5056   1.731   6.151   1.351
 1705TIP3   OH2 5057   2.160   6.973   0.429
 1705TIP3    H1 5058   2.190   6.900   0.490
 1705TIP3    H2 5059   2.246   7.018   0.411
 1706TIP3   OH2 5060   2.412   6.479   0.077
 1706TIP3    H1 5061   2.346   6.512   0.012
 1706TIP3    H2 5062   2.402   6.382   0.062
 1707TIP3   OH2 5063   3.718   6.830   0.249
 1707TIP3    H1 5064   3.679   6.916   0.219
 1707TIP3    H2 5065   3.777   6.861   0.320
 1708TIP3   OH2 5066   2.392   6.441   0.519
 1708TIP3    H1 5067   2.340   6.481   0.446
 1708TIP3    H2 5068   2.333   6.462   0.595
 1709TIP3   OH2 5069   2.538   7.235   0.289
 1709TIP3    H1 5070   2.445   7.257   0.311
 1709TIP3    H2 5071   2.565   7.317   0.244
 1710TIP3   OH2 5072   2.267   6.544   0.304
 1710TIP3    H1 5073   2.291   6.638   0.316
 1710TIP3    H2 5074   2.319   6.525   0.223
 1711TIP3   OH2 5075   3.409   6.489   0.227
 1711TIP3    H1 5076   3.311   6.492   0.218
 1711TIP3    H2 5077   3.431   6.580   0.196
 1712TIP3   OH2 5078   2.748   6.174   0.232
 1712TIP3    H1 5079   2.735   6.078   0.242
 1712TIP3    H2 5080   2.667   6.208   0.277
 1713TIP3   OH2 5081   3.262   7.074   0.383
 1713TIP3    H1 5082   3.241   7.135   0.456
 1713TIP3    H2 5083   3.171   7.056   0.347
 1714TIP3   OH2 5084   2.437   6.980   0.230
 1714TIP3    H1 5085   2.420   6.968   0.135
 1714TIP3    H2 5086   2.485   7.065   0.232
 1715TIP3   OH2 5087   2.551   7.434   0.548
 1715TIP3    H1 5088   2.511   7.522   0.558
 1715TIP3    H2 5089   2.491   7.391   0.486
 1716TIP3   OH2 5090   2.292   7.109   0.658
 1716TIP3    H1 5091   2.295   7.193   0.708
 1716TIP3    H2 5092   2.198   7.086   0.664
 1717TIP3   OH2 5093   3.497   7.006   0.527
 1717TIP3    H1 5094   3.420   7.016   0.468
 1717TIP3    H2 5095   3.507   6.909   0.530
 1718TIP3   OH2 5096   2.088   7.417   0.603
 1718TIP3    H1 5097   2.165   7.401   0.661
 1718TIP3    H2 5098   2.035   7.337   0.618
 1719TIP3   OH2 5099   2.508   6.244   0.358
 1719TIP3    H1 5100   2.421   6.213   0.326
 1719TIP3    H2 5101   2.479   6.323   0.408
 1720TIP3   OH2 5102   3.041   6.362   0.553
 1720TIP3    H1 5103   3.110   6.331   0.615
 1720TIP3    H2 5104   2.958   6.339   0.600
 1721TIP3   OH2 5105   3.275   6.791   0.467
 1721TIP3    H1 5106   3.225   6.791   0.552
 1721TIP3    H2 5107   3.247   6.874   0.426
 1722TIP3   OH2 5108   2.437   6.758   0.385
 1722TIP3    H1 5109   2.383   6.783   0.463
 1722TIP3    H2 5110   2.432   6.839   0.330
 1723TIP3   OH2 5111   2.990   7.003   0.698
 1723TIP3    H1 5112   2.966   6.931   0.761
 1723TIP3    H2 5113   3.084   7.015   0.722
 1724TIP3   OH2 5114   2.267   6.782   0.608
 1724TIP3    H1 5115   2.323   6.822   0.675
 1724TIP3    H2 5116   2.250   6.693   0.645
 1725TIP3   OH2 5117   3.011   7.000   0.310
 1725TIP3    H1 5118   2.991   6.988   0.215
 1725TIP3    H2 5119   2.961   6.928   0.352
 1726TIP3   OH2 5120   2.668   6.472  -0.024
 1726TIP3    H1 5121   2.582   6.496   0.018
 1726TIP3    H2 5122   2.727   6.465   0.053
 1727TIP3   OH2 5123   3.138   6.505   0.199
 1727TIP3    H1 5124   3.102   6.562   0.270
 1727TIP3    H2 5125   3.059   6.456   0.171
 1728TIP3   OH2 5126   2.275   7.349   0.797
 1728TIP3    H1 5127   2.354   7.372   0.851
 1728TIP3    H2 5128   2.208   7.335   0.867
 1729TIP3   OH2 5129   2.837   6.760   0.124
 1729TIP3    H1 5130   2.774   6.718   0.063
 1729TIP3    H2 5131   2.805   6.727   0.211
 1730TIP3   OH2 5132   2.338   6.231  -0.012
 1730TIP3    H1 5133   2.263   6.170   0.001
 1730TIP3    H2 5134   2.315   6.280  -0.093
 1731TIP3   OH2 5135   2.700   6.688   0.353
 1731TIP3    H1 5136   2.607   6.719   0.360
 1731TIP3    H2 5137   2.749   6.752   0.410
 1732TIP3   OH2 5138   2.866   7.445   0.433
 1732TIP3    H1 5139   2.884   7.371   0.492
 1732TIP3    H2 5140   2.777   7.472   0.465
 1733TIP3   OH2 5141   2.012   7.054   0.740
 1733TIP3    H1 5142   2.045   7.028   0.829
 1733TIP3    H2 5143   1.989   6.968   0.702
 1734TIP3   OH2 5144   2.752   7.130   0.744
 1734TIP3    H1 5145   2.689   7.081   0.688
 1734TIP3    H2 5146   2.837   7.095   0.712
 1735TIP3   OH2 5147   2.227   6.527   0.729
 1735TIP3    H1 5148   2.129   6.531   0.737
 1735TIP3    H2 5149   2.251   6.469   0.803
 1736TIP3   OH2 5150   3.052   6.613   0.440
 1736TIP3    H1 5151   3.140   6.643   0.469
 1736TIP3    H2 5152   3.045   6.525   0.484
 1737TIP3   OH2 5153   2.889   6.831   0.490
 1737TIP3    H1 5154   2.927   6.880   0.566
 1737TIP3    H2 5155   2.946   6.751   0.487
 1738TIP3   OH2 5156   3.539   6.735   0.479
 1738TIP3    H1 5157   3.440   6.732   0.478
 1738TIP3    H2 5158   3.560   6.734   0.385
 1739TIP3   OH2 5159   2.245   6.157   0.326
 1739TIP3    H1 5160   2.220   6.117   0.241
 1739TIP3    H2 5161   2.238   6.081   0.388
 1740TIP3   OH2 5162   2.058   7.294   0.965
 1740TIP3    H1 5163   2.096   7.204   0.959
 1740TIP3    H2 5164   1.969   7.273   1.000
 1741TIP3   OH2 5165   2.685   7.393   0.781
 1741TIP3    H1 5166   2.643   7.404   0.692
 1741TIP3    H2 5167   2.723   7.303   0.772
 1742TIP3   OH2 5168   3.142   7.434   0.386
 1742TIP3    H1 5169   3.164   7.511   0.330
 1742TIP3    H2 5170   3.048   7.454   0.404
 1743TIP3   OH2 5171   2.196   7.060   0.964
 1743TIP3    H1 5172   2.274   7.009   0.940
 1743TIP3    H2 5173   2.220   7.092   1.054
 1744TIP3   OH2 5174   2.517   6.948   0.629
 1744TIP3    H1 5175   2.443   7.014   0.631
 1744TIP3    H2 5176   2.572   6.984   0.555
 1745TIP3   OH2 5177   3.045   7.343   0.756
 1745TIP3    H1 5178   3.119   7.309   0.702
 1745TIP3    H2 5179   3.042   7.278   0.829
 1746TIP3   OH2 5180   2.643   6.740   0.752
 1746TIP3    H1 5181   2.644   6.660   0.696
 1746TIP3    H2 5182   2.601   6.806   0.693
 1747TIP3   OH2 5183   2.646   6.523   0.571
 1747TIP3    H1 5184   2.672   6.564   0.486
 1747TIP3    H2 5185   2.553   6.497   0.553
 1748TIP3   OH2 5186   2.680   7.063   0.450
 1748TIP3    H1 5187   2.767   7.050   0.409
 1748TIP3    H2 5188   2.637   7.126   0.389
 1749TIP3   OH2 5189   3.253   7.026   0.811
 1749TIP3    H1 5190   3.300   6.942   0.818
 1749TIP3    H2 5191   3.322   7.084   0.775
 1750TIP3   OH2 5192   3.270   7.282   0.572
 1750TIP3    H1 5193   3.223   7.341   0.508
 1750TIP3    H2 5194   3.363   7.293   0.541
 1751TIP3   OH2 5195   2.521   6.845   0.984
 1751TIP3    H1 5196   2.456   6.773   1.000
 1751TIP3    H2 5197   2.556   6.820   0.896
 1752TIP3   OH2 5198   2.781   6.285   0.629
 1752TIP3    H1 5199   2.729   6.366   0.609
 1752TIP3    H2 5200   2.712   6.216   0.618
 1753TIP3   OH2 5201   2.904   6.788   0.842
 1753TIP3    H1 5202   2.887   6.772   0.937
 1753TIP3    H2 5203   2.815   6.766   0.807
 1754TIP3   OH2 5204   3.148   6.747   0.702
 1754TIP3    H1 5205   3.071   6.743   0.763
 1754TIP3    H2 5206   3.221   6.714   0.758
 1755TIP3   OH2 5207   3.376   6.684   0.849
 1755TIP3    H1 5208   3.388   6.588   0.863
 1755TIP3    H2 5209   3.371   6.719   0.940
 1756TIP3   OH2 5210   2.364   6.624   1.039
 1756TIP3    H1 5211   2.366   6.532   1.006
 1756TIP3    H2 5212   2.402   6.611   1.129
 1757TIP3   OH2 5213   2.870   6.298   0.888
 1757TIP3    H1 5214   2.936   6.226   0.883
 1757TIP3    H2 5215   2.832   6.292   0.798
 1758TIP3   OH2 5216   2.939   6.513   1.043
 1758TIP3    H1 5217   2.918   6.440   0.981
 1758TIP3    H2 5218   2.860   6.569   1.037
 1759TIP3   OH2 5219   3.518   7.708   0.582
 1759TIP3    H1 5220   3.444   7.687   0.644
 1759TIP3    H2 5221   3.566   7.775   0.631
 1760TIP3   OH2 5222   3.535   7.334   0.497
 1760TIP3    H1 5223   3.606   7.269   0.515
 1760TIP3    H2 5224   3.555   7.351   0.403
 1761TIP3   OH2 5225   3.725   7.142   0.541
 1761TIP3    H1 5226   3.644   7.088   0.529
 1761TIP3    H2 5227   3.792   7.084   0.501
 1762TIP3   OH2 5228   2.099   6.680   1.012
 1762TIP3    H1 5229   2.196   6.671   1.014
 1762TIP3    H2 5230   2.073   6.591   1.041
 1763TIP3   OH2 5231   3.928   6.551   0.764
 1763TIP3    H1 5232   3.987   6.482   0.725
 1763TIP3    H2 5233   3.903   6.602   0.684
 1764TIP3   OH2 5234   2.058   6.366   0.338
 1764TIP3    H1 5235   2.129   6.301   0.353
 1764TIP3    H2 5236   2.111   6.447   0.324
 1765TIP3   OH2 5237   3.794   6.684   0.565
 1765TIP3    H1 5238   3.707   6.725   0.583
 1765TIP3    H2 5239   3.765   6.608   0.512
 1766TIP3   OH2 5240   2.060   6.227   0.722
 1766TIP3    H1 5241   2.009   6.224   0.805
 1766TIP3    H2 5242   1.995   6.267   0.661
 1767TIP3   OH2 5243   3.698   6.441   0.448
 1767TIP3    H1 5244   3.604   6.423   0.431
 1767TIP3    H2 5245   3.735   6.349   0.443
 1768TIP3   OH2 5246   2.937   6.341   0.083
 1768TIP3    H1 5247   2.874   6.292   0.139
 1768TIP3    H2 5248   2.942   6.283   0.006
 1769TIP3   OH2 5249   2.144   6.048   0.081
 1769TIP3    H1 5250   2.058   6.001   0.089
 1769TIP3    H2 5251   2.204   5.970   0.076
 1770TIP3   OH2 5252   2.610   6.050   0.009
 1770TIP3    H1 5253   2.698   6.036  -0.032
 1770TIP3    H2 5254   2.629   6.123   0.069
 1771TIP3   OH2 5255   2.358   6.349   0.973
 1771TIP3    H1 5256   2.324   6.277   1.030
 1771TIP3    H2 5257   2.452   6.349   1.000
 1772TIP3   OH2 5258   2.609   6.348   1.090
 1772TIP3    H1 5259   2.694   6.322   1.051
 1772TIP3    H2 5260   2.598   6.278   1.158
 1773TIP3   OH2 5261   3.437   6.413   0.877
 1773TIP3    H1 5262   3.453   6.382   0.969
 1773TIP3    H2 5263   3.527   6.407   0.838
 1774TIP3   OH2 5264   3.856   7.553   0.496
 1774TIP3    H1 5265   3.893   7.464   0.478
 1774TIP3    H2 5266   3.801   7.567   0.417
 1775TIP3   OH2 5267   3.993   7.322   0.458
 1775TIP3    H1 5268   4.027   7.234   0.448
 1775TIP3    H2 5269   4.024   7.348   0.548
 1776TIP3   OH2 5270   4.321   7.096   0.452
 1776TIP3    H1 5271   4.257   7.033   0.492
 1776TIP3    H2 5272   4.371   7.034   0.394
 1777TIP3   OH2 5273   4.150   6.897   0.537
 1777TIP3    H1 5274   4.150   6.803   0.506
 1777TIP3    H2 5275   4.189   6.884   0.626
 1778TIP3   OH2 5276   4.720   6.757   0.524
 1778TIP3    H1 5277   4.683   6.716   0.445
 1778TIP3    H2 5278   4.654   6.828   0.540
 1779TIP3   OH2 5279   3.888   6.927   0.464
 1779TIP3    H1 5280   3.983   6.926   0.485
 1779TIP3    H2 5281   3.860   6.846   0.512
 1780TIP3   OH2 5282   3.828   6.507   0.208
 1780TIP3    H1 5283   3.786   6.477   0.291
 1780TIP3    H2 5284   3.804   6.601   0.209
 1781TIP3   OH2 5285   4.154   6.631   0.483
 1781TIP3    H1 5286   4.132   6.539   0.462
 1781TIP3    H2 5287   4.246   6.621   0.517
 1782TIP3   OH2 5288   4.403   6.607   0.596
 1782TIP3    H1 5289   4.494   6.587   0.568
 1782TIP3    H2 5290   4.383   6.533   0.657
 1783TIP3   OH2 5291   1.391   0.044   3.994
 1783TIP3    H1 5292   1.390  -0.006   4.076
 1783TIP3    H2 5293   1.422   0.132   4.022
 1784TIP3   OH2 5294   1.053   0.505   3.981
 1784TIP3    H1 5295   1.090   0.419   3.957
 1784TIP3    H2 5296   1.029   0.491   4.074
 1785TIP3   OH2 5297   1.991  -0.503   4.517
 1785TIP3    H1 5298   1.912  -0.448   4.498
 1785TIP3    H2 5299   2.048  -0.442   4.565
 1786TIP3   OH2 5300   1.460   0.301   4.134
 1786TIP3    H1 5301   1.366   0.297   4.163
 1786TIP3    H2 5302   1.460   0.388   4.090
 1787TIP3   OH2 5303   1.685   0.208   4.480
 1787TIP3    H1 5304   1.675   0.133   4.418
 1787TIP3    H2 5305   1.668   0.285   4.422
 1788TIP3   OH2 5306   1.880  -0.147   4.326
 1788TIP3    H1 5307   1.796  -0.095   4.327
 1788TIP3    H2 5308   1.910  -0.129   4.235
 1789TIP3   OH2 5309   1.207   0.316   4.228
 1789TIP3    H1 5310   1.197   0.398   4.281
 1789TIP3    H2 5311   1.196   0.245   4.294
 1790TIP3   OH2 5312   1.923   0.559   4.533
 1790TIP3    H1 5313   1.923   0.461   4.544
 1790TIP3    H2 5314   1.835   0.581   4.570
 1791TIP3   OH2 5315   1.055   0.369   4.623
 1791TIP3    H1 5316   1.044   0.453   4.673
 1791TIP3    H2 5317   0.980   0.317   4.658
 1792TIP3   OH2 5318   1.817  -0.325   4.801
 1792TIP3    H1 5319   1.732  -0.277   4.800
 1792TIP3    H2 5320   1.788  -0.417   4.789
 1793TIP3   OH2 5321   1.618   0.903   4.626
 1793TIP3    H1 5322   1.612   0.930   4.533
 1793TIP3    H2 5323   1.697   0.953   4.655
 1794TIP3   OH2 5324   1.645   0.000   4.304
 1794TIP3    H1 5325   1.681   0.053   4.228
 1794TIP3    H2 5326   1.566  -0.042   4.263
 1795TIP3   OH2 5327   1.325   0.338   4.600
 1795TIP3    H1 5328   1.228   0.349   4.593
 1795TIP3    H2 5329   1.343   0.395   4.677
 1796TIP3   OH2 5330   1.937   0.276   4.563
 1796TIP3    H1 5331   1.840   0.263   4.559
 1796TIP3    H2 5332   1.961   0.245   4.472
 1797TIP3   OH2 5333   1.429  -0.151   4.213
 1797TIP3    H1 5334   1.339  -0.170   4.246
 1797TIP3    H2 5335   1.442  -0.220   4.147
 1798TIP3   OH2 5336   0.832   0.446   4.472
 1798TIP3    H1 5337   0.857   0.513   4.406
 1798TIP3    H2 5338   0.917   0.427   4.515
 1799TIP3   OH2 5339   1.248   0.101   4.411
 1799TIP3    H1 5340   1.215   0.113   4.500
 1799TIP3    H2 5341   1.345   0.100   4.427
 1800TIP3   OH2 5342   1.446   0.594   4.463
 1800TIP3    H1 5343   1.363   0.544   4.452
 1800TIP3    H2 5344   1.436   0.660   4.391
 1801TIP3   OH2 5345   1.472   0.566   4.059
 1801TIP3    H1 5346   1.426   0.615   3.986
 1801TIP3    H2 5347   1.565   0.588   4.037
 1802TIP3   OH2 5348   1.363   0.464   4.847
 1802TIP3    H1 5349   1.402   0.392   4.899
 1802TIP3    H2 5350   1.430   0.534   4.859
 1803TIP3   OH2 5351   1.472   0.109   4.624
 1803TIP3    H1 5352   1.556   0.139   4.584
 1803TIP3    H2 5353   1.422   0.194   4.621
 1804TIP3   OH2 5354   1.636  -0.064   4.785
 1804TIP3    H1 5355   1.578  -0.009   4.729
 1804TIP3    H2 5356   1.723  -0.036   4.750
 1805TIP3   OH2 5357   1.725   0.656   4.021
 1805TIP3    H1 5358   1.751   0.695   4.106
 1805TIP3    H2 5359   1.787   0.698   3.959
 1806TIP3   OH2 5360   1.748   0.680   4.303
 1806TIP3    H1 5361   1.705   0.592   4.297
 1806TIP3    H2 5362   1.828   0.656   4.354
 1807TIP3   OH2 5363   1.793   0.354   4.872
 1807TIP3    H1 5364   1.722   0.357   4.940
 1807TIP3    H2 5365   1.837   0.440   4.886
 1808TIP3   OH2 5366   1.801   0.131   4.125
 1808TIP3    H1 5367   1.852   0.062   4.077
 1808TIP3    H2 5368   1.802   0.205   4.060
 1809TIP3   OH2 5369   1.624   0.428   4.324
 1809TIP3    H1 5370   1.552   0.473   4.372
 1809TIP3    H2 5371   1.576   0.384   4.251
 1810TIP3   OH2 5372   1.871   0.026   4.684
 1810TIP3    H1 5373   1.939  -0.045   4.676
 1810TIP3    H2 5374   1.904   0.095   4.624
 1811TIP3   OH2 5375   2.033  -0.189   4.701
 1811TIP3    H1 5376   1.957  -0.238   4.741
 1811TIP3    H2 5377   2.107  -0.247   4.730
 1812TIP3   OH2 5378   1.704  -0.513   4.247
 1812TIP3    H1 5379   1.784  -0.489   4.195
 1812TIP3    H2 5380   1.724  -0.467   4.330
 1813TIP3   OH2 5381   1.762  -0.354   4.467
 1813TIP3    H1 5382   1.676  -0.316   4.494
 1813TIP3    H2 5383   1.804  -0.277   4.423
 1814TIP3   OH2 5384   1.282   0.562   3.650
 1814TIP3    H1 5385   1.330   0.491   3.605
 1814TIP3    H2 5386   1.342   0.586   3.723
 1815TIP3   OH2 5387   1.029   0.615   4.749
 1815TIP3    H1 5388   1.067   0.606   4.838
 1815TIP3    H2 5389   1.097   0.670   4.703
 1816TIP3   OH2 5390   1.214   0.760   4.607
 1816TIP3    H1 5391   1.285   0.714   4.561
 1816TIP3    H2 5392   1.266   0.819   4.667
 1817TIP3   OH2 5393   0.932   0.629   4.280
 1817TIP3    H1 5394   0.853   0.647   4.224
 1817TIP3    H2 5395   0.947   0.717   4.320
 1818TIP3   OH2 5396   1.196   0.569   4.340
 1818TIP3    H1 5397   1.101   0.586   4.324
 1818TIP3    H2 5398   1.237   0.645   4.296
 1819TIP3   OH2 5399   1.399   0.756   4.249
 1819TIP3    H1 5400   1.384   0.840   4.201
 1819TIP3    H2 5401   1.425   0.696   4.175
 1820TIP3   OH2 5402   1.674   0.634   4.627
 1820TIP3    H1 5403   1.597   0.604   4.574
 1820TIP3    H2 5404   1.654   0.730   4.633
 1821TIP3   OH2 5405   2.941   0.002   3.393
 1821TIP3    H1 5406   2.910   0.093   3.375
 1821TIP3    H2 5407   2.871  -0.048   3.348
 1822TIP3   OH2 5408   2.940   0.013   3.779
 1822TIP3    H1 5409   2.975  -0.009   3.868
 1822TIP3    H2 5410   2.904  -0.072   3.750
 1823TIP3   OH2 5411   2.234  -0.098   4.141
 1823TIP3    H1 5412   2.267  -0.170   4.199
 1823TIP3    H2 5413   2.316  -0.048   4.129
 1824TIP3   OH2 5414   3.189   0.314   3.459
 1824TIP3    H1 5415   3.176   0.248   3.529
 1824TIP3    H2 5416   3.220   0.391   3.509
 1825TIP3   OH2 5417   2.214   0.310   3.860
 1825TIP3    H1 5418   2.205   0.213   3.862
 1825TIP3    H2 5419   2.311   0.319   3.850
 1826TIP3   OH2 5420   1.998  -0.176   3.796
 1826TIP3    H1 5421   2.028  -0.262   3.835
 1826TIP3    H2 5422   2.077  -0.119   3.803
 1827TIP3   OH2 5423   2.840   0.772   3.477
 1827TIP3    H1 5424   2.878   0.702   3.420
 1827TIP3    H2 5425   2.838   0.728   3.563
 1828TIP3   OH2 5426   2.740   0.234   3.823
 1828TIP3    H1 5427   2.785   0.157   3.783
 1828TIP3    H2 5428   2.820   0.285   3.848
 1829TIP3   OH2 5429   3.157  -0.266   3.869
 1829TIP3    H1 5430   3.179  -0.356   3.896
 1829TIP3    H2 5431   3.119  -0.279   3.779
 1830TIP3   OH2 5432   2.445  -0.652   3.799
 1830TIP3    H1 5433   2.431  -0.568   3.752
 1830TIP3    H2 5434   2.397  -0.715   3.745
 1831TIP3   OH2 5435   3.153  -0.486   3.492
 1831TIP3    H1 5436   3.214  -0.533   3.552
 1831TIP3    H2 5437   3.206  -0.486   3.410
 1832TIP3   OH2 5438   2.098  -0.407   3.909
 1832TIP3    H1 5439   2.190  -0.398   3.943
 1832TIP3    H2 5440   2.105  -0.491   3.863
 1833TIP3   OH2 5441   2.558  -0.210   3.722
 1833TIP3    H1 5442   2.655  -0.225   3.737
 1833TIP3    H2 5443   2.529  -0.301   3.705
 1834TIP3   OH2 5444   3.785  -0.255   4.026
 1834TIP3    H1 5445   3.713  -0.200   3.989
 1834TIP3    H2 5446   3.850  -0.188   4.053
 1835TIP3   OH2 5447   2.817   0.219   3.268
 1835TIP3    H1 5448   2.800   0.220   3.173
 1835TIP3    H2 5449   2.780   0.306   3.294
 1836TIP3   OH2 5450   2.594   0.154   4.042
 1836TIP3    H1 5451   2.537   0.225   4.079
 1836TIP3    H2 5452   2.639   0.201   3.969
 1837TIP3   OH2 5453   2.353  -0.431   3.986
 1837TIP3    H1 5454   2.426  -0.389   4.035
 1837TIP3    H2 5455   2.383  -0.524   3.988
 1838TIP3   OH2 5456   2.426   0.353   4.145
 1838TIP3    H1 5457   2.401   0.441   4.109
 1838TIP3    H2 5458   2.346   0.336   4.199
 1839TIP3   OH2 5459   3.252   0.555   3.617
 1839TIP3    H1 5460   3.162   0.548   3.656
 1839TIP3    H2 5461   3.247   0.643   3.574
 1840TIP3   OH2 5462   2.949   0.601   3.287
 1840TIP3    H1 5463   2.999   0.518   3.270
 1840TIP3    H2 5464   3.014   0.666   3.249
 1841TIP3   OH2 5465   3.089   0.381   3.210
 1841TIP3    H1 5466   3.086   0.301   3.157
 1841TIP3    H2 5467   3.130   0.349   3.294
 1842TIP3   OH2 5468   3.479   0.463   3.968
 1842TIP3    H1 5469   3.469   0.388   3.905
 1842TIP3    H2 5470   3.462   0.540   3.910
 1843TIP3   OH2 5471   2.781  -0.141   3.217
 1843TIP3    H1 5472   2.701  -0.092   3.192
 1843TIP3    H2 5473   2.825  -0.156   3.131
 1844TIP3   OH2 5474   3.675   0.103   3.804
 1844TIP3    H1 5475   3.593   0.157   3.805
 1844TIP3    H2 5476   3.714   0.131   3.719
 1845TIP3   OH2 5477   3.126  -0.045   3.196
 1845TIP3    H1 5478   3.070  -0.028   3.275
 1845TIP3    H2 5479   3.210  -0.070   3.239
 1846TIP3   OH2 5480   3.353  -0.018   4.116
 1846TIP3    H1 5481   3.350   0.065   4.167
 1846TIP3    H2 5482   3.267  -0.013   4.070
 1847TIP3   OH2 5483   2.356  -0.064   3.610
 1847TIP3    H1 5484   2.338  -0.109   3.526
 1847TIP3    H2 5485   2.432  -0.114   3.646
 1848TIP3   OH2 5486   2.480   0.348   3.760
 1848TIP3    H1 5487   2.466   0.322   3.667
 1848TIP3    H2 5488   2.570   0.313   3.777
 1849TIP3   OH2 5489   2.482  -0.086   3.969
 1849TIP3    H1 5490   2.520  -0.117   3.884
 1849TIP3    H2 5491   2.532  -0.003   3.986
 1850TIP3   OH2 5492   3.011   0.551   3.742
 1850TIP3    H1 5493   3.001   0.632   3.795
 1850TIP3    H2 5494   2.997   0.479   3.807
 1851TIP3   OH2 5495   2.630   0.468   4.293
 1851TIP3    H1 5496   2.568   0.529   4.337
 1851TIP3    H2 5497   2.567   0.414   4.240
 1852TIP3   OH2 5498   2.977  -0.194   3.021
 1852TIP3    H1 5499   3.033  -0.133   3.073
 1852TIP3    H2 5500   3.003  -0.174   2.929
 1853TIP3   OH2 5501   2.375   0.032   4.391
 1853TIP3    H1 5502   2.379   0.119   4.436
 1853TIP3    H2 5503   2.281   0.008   4.406
 1854TIP3   OH2 5504   2.708   0.475   3.304
 1854TIP3    H1 5505   2.791   0.527   3.305
 1854TIP3    H2 5506   2.650   0.532   3.250
 1855TIP3   OH2 5507   2.422   0.631   4.376
 1855TIP3    H1 5508   2.389   0.637   4.285
 1855TIP3    H2 5509   2.340   0.612   4.427
 1856TIP3   OH2 5510   2.000   0.168   4.324
 1856TIP3    H1 5511   1.935   0.147   4.254
 1856TIP3    H2 5512   2.039   0.080   4.345
 1857TIP3   OH2 5513   1.859   0.355   3.961
 1857TIP3    H1 5514   1.954   0.356   3.947
 1857TIP3    H2 5515   1.846   0.437   4.010
 1858TIP3   OH2 5516   3.717   0.800   4.012
 1858TIP3    H1 5517   3.716   0.706   4.039
 1858TIP3    H2 5518   3.638   0.835   4.058
 1859TIP3   OH2 5519   2.823   0.599   4.147
 1859TIP3    H1 5520   2.819   0.691   4.180
 1859TIP3    H2 5521   2.754   0.556   4.203
 1860TIP3   OH2 5522   2.587   0.722   3.106
 1860TIP3    H1 5523   2.551   0.709   3.016
 1860TIP3    H2 5524   2.556   0.812   3.128
 1861TIP3   OH2 5525   2.033   0.590   3.487
 1861TIP3    H1 5526   2.078   0.577   3.573
 1861TIP3    H2 5527   1.988   0.503   3.478
 1862TIP3   OH2 5528   2.802   0.615   2.741
 1862TIP3    H1 5529   2.883   0.570   2.713
 1862TIP3    H2 5530   2.822   0.632   2.836
 1863TIP3   OH2 5531   2.837   0.677   3.008
 1863TIP3    H1 5532   2.750   0.681   3.054
 1863TIP3    H2 5533   2.895   0.646   3.079
 1864TIP3   OH2 5534   3.602  -0.078   4.296
 1864TIP3    H1 5535   3.528  -0.044   4.244
 1864TIP3    H2 5536   3.596  -0.173   4.276
 1865TIP3   OH2 5537   2.204   0.352   4.307
 1865TIP3    H1 5538   2.254   0.335   4.389
 1865TIP3    H2 5539   2.130   0.287   4.314
 1866TIP3   OH2 5540   3.374  -0.276   4.234
 1866TIP3    H1 5541   3.351  -0.240   4.320
 1866TIP3    H2 5542   3.359  -0.200   4.174
 1867TIP3   OH2 5543   3.044  -0.138   2.757
 1867TIP3    H1 5544   3.040  -0.152   2.661
 1867TIP3    H2 5545   3.122  -0.080   2.761
 1868TIP3   OH2 5546   2.555  -0.300   4.131
 1868TIP3    H1 5547   2.494  -0.285   4.206
 1868TIP3    H2 5548   2.538  -0.220   4.076
 1869TIP3   OH2 5549   2.419  -0.445   3.619
 1869TIP3    H1 5550   2.326  -0.430   3.596
 1869TIP3    H2 5551   2.462  -0.454   3.532
 1870TIP3   OH2 5552   2.905  -0.344   3.355
 1870TIP3    H1 5553   2.865  -0.269   3.306
 1870TIP3    H2 5554   2.967  -0.380   3.288
 1871TIP3   OH2 5555   3.093  -0.033   4.428
 1871TIP3    H1 5556   3.068  -0.113   4.479
 1871TIP3    H2 5557   3.188  -0.025   4.453
 1872TIP3   OH2 5558   3.044  -0.271   3.616
 1872TIP3    H1 5559   2.993  -0.224   3.548
 1872TIP3    H2 5560   3.069  -0.352   3.565
 1873TIP3   OH2 5561   2.355  -0.278   4.323
 1873TIP3    H1 5562   2.377  -0.216   4.394
 1873TIP3    H2 5563   2.339  -0.361   4.371
 1874TIP3   OH2 5564   3.067  -0.062   4.018
 1874TIP3    H1 5565   3.107  -0.132   3.961
 1874TIP3    H2 5566   3.044  -0.116   4.096
 1875TIP3   OH2 5567   3.418   1.164   4.090
 1875TIP3    H1 5568   3.398   1.192   3.999
 1875TIP3    H2 5569   3.507   1.207   4.098
 1876TIP3   OH2 5570   2.364   0.276   4.531
 1876TIP3    H1 5571   2.445   0.303   4.577
 1876TIP3    H2 5572   2.301   0.272   4.606
 1877TIP3   OH2 5573   2.815  -0.270   3.788
 1877TIP3    H1 5574   2.898  -0.299   3.747
 1877TIP3    H2 5575   2.822  -0.306   3.879
 1878TIP3   OH2 5576   2.827  -0.345   4.048
 1878TIP3    H1 5577   2.737  -0.345   4.088
 1878TIP3    H2 5578   2.880  -0.302   4.119
 1879TIP3   OH2 5579   2.532   0.001   3.181
 1879TIP3    H1 5580   2.436  -0.010   3.186
 1879TIP3    H2 5581   2.545   0.042   3.270
 1880TIP3   OH2 5582   3.442   0.250   3.796
 1880TIP3    H1 5583   3.468   0.301   3.716
 1880TIP3    H2 5584   3.357   0.209   3.769
 1881TIP3   OH2 5585   2.932   0.328   4.172
 1881TIP3    H1 5586   2.980   0.319   4.255
 1881TIP3    H2 5587   2.904   0.421   4.173
 1882TIP3   OH2 5588   3.067  -0.423   3.148
 1882TIP3    H1 5589   3.163  -0.409   3.150
 1882TIP3    H2 5590   3.036  -0.350   3.091
 1883TIP3   OH2 5591   2.226   0.015   3.843
 1883TIP3    H1 5592   2.273  -0.001   3.758
 1883TIP3    H2 5593   2.290  -0.023   3.907
 1884TIP3   OH2 5594   2.689   0.162   3.013
 1884TIP3    H1 5595   2.647   0.251   3.024
 1884TIP3    H2 5596   2.635   0.109   3.074
 1885TIP3   OH2 5597   2.117  -0.045   4.464
 1885TIP3    H1 5598   2.134  -0.064   4.558
 1885TIP3    H2 5599   2.047  -0.110   4.443
 1886TIP3   OH2 5600   2.844   0.074   4.487
 1886TIP3    H1 5601   2.782   0.020   4.434
 1886TIP3    H2 5602   2.931   0.046   4.450
 1887TIP3   OH2 5603   3.098   0.584   4.075
 1887TIP3    H1 5604   3.002   0.592   4.084
 1887TIP3    H2 5605   3.128   0.641   4.148
 1888TIP3   OH2 5606   3.513  -0.340   2.962
 1888TIP3    H1 5607   3.458  -0.393   2.900
 1888TIP3    H2 5608   3.497  -0.250   2.925
 1889TIP3   OH2 5609   3.729   0.514   4.060
 1889TIP3    H1 5610   3.632   0.512   4.047
 1889TIP3    H2 5611   3.758   0.493   3.968
 1890TIP3   OH2 5612   3.220   0.480   2.860
 1890TIP3    H1 5613   3.193   0.408   2.918
 1890TIP3    H2 5614   3.197   0.447   2.772
 1891TIP3   OH2 5615   3.207   0.117   3.713
 1891TIP3    H1 5616   3.113   0.091   3.727
 1891TIP3    H2 5617   3.241   0.036   3.670
 1892TIP3   OH2 5618   2.337   0.343   3.474
 1892TIP3    H1 5619   2.336   0.424   3.420
 1892TIP3    H2 5620   2.243   0.322   3.477
 1893TIP3   OH2 5621   2.470   0.108   3.419
 1893TIP3    H1 5622   2.438   0.199   3.433
 1893TIP3    H2 5623   2.439   0.064   3.501
 1894TIP3   OH2 5624   2.609   0.681   3.940
 1894TIP3    H1 5625   2.651   0.755   3.890
 1894TIP3    H2 5626   2.686   0.646   3.987
 1895TIP3   OH2 5627   2.256   0.582   3.322
 1895TIP3    H1 5628   2.173   0.592   3.373
 1895TIP3    H2 5629   2.290   0.674   3.325
 1896TIP3   OH2 5630   2.989   0.319   3.904
 1896TIP3    H1 5631   2.978   0.314   4.001
 1896TIP3    H2 5632   3.072   0.270   3.891
 1897TIP3   OH2 5633   2.968   0.186   2.788
 1897TIP3    H1 5634   3.020   0.175   2.870
 1897TIP3    H2 5635   2.877   0.183   2.820
 1898TIP3   OH2 5636   3.242   0.850   3.946
 1898TIP3    H1 5637   3.159   0.798   3.937
 1898TIP3    H2 5638   3.229   0.917   3.876
 1899TIP3   OH2 5639   3.133   0.152   3.007
 1899TIP3    H1 5640   3.125   0.083   3.076
 1899TIP3    H2 5641   3.229   0.146   2.988
 1900TIP3   OH2 5642   2.045   0.546   4.099
 1900TIP3    H1 5643   2.100   0.476   4.138
 1900TIP3    H2 5644   2.075   0.624   4.148
 1901TIP3   OH2 5645   2.281   0.204   3.035
 1901TIP3    H1 5646   2.335   0.184   3.111
 1901TIP3    H2 5647   2.277   0.302   3.041
 1902TIP3   OH2 5648   2.553   0.392   3.027
 1902TIP3    H1 5649   2.467   0.428   3.055
 1902TIP3    H2 5650   2.549   0.407   2.930
 1903TIP3   OH2 5651   2.710  -0.528   3.406
 1903TIP3    H1 5652   2.777  -0.456   3.395
 1903TIP3    H2 5653   2.762  -0.593   3.456
 1904TIP3   OH2 5654   3.016  -0.226   4.228
 1904TIP3    H1 5655   3.014  -0.167   4.306
 1904TIP3    H2 5656   3.071  -0.299   4.262
 1905TIP3   OH2 5657   2.290   0.471   3.074
 1905TIP3    H1 5658   2.265   0.545   3.014
 1905TIP3    H2 5659   2.276   0.510   3.163
 1906TIP3   OH2 5660   3.294  -0.128   3.598
 1906TIP3    H1 5661   3.215  -0.181   3.619
 1906TIP3    H2 5662   3.365  -0.176   3.647
 1907TIP3   OH2 5663   3.263   0.824   3.541
 1907TIP3    H1 5664   3.222   0.872   3.465
 1907TIP3    H2 5665   3.358   0.844   3.523
 1908TIP3   OH2 5666   1.926   0.341   3.458
 1908TIP3    H1 5667   1.829   0.330   3.460
 1908TIP3    H2 5668   1.947   0.295   3.374
 1909TIP3   OH2 5669   2.039   0.857   4.532
 1909TIP3    H1 5670   2.127   0.859   4.577
 1909TIP3    H2 5671   2.028   0.761   4.518
 1910TIP3   OH2 5672   2.504   0.813   4.570
 1910TIP3    H1 5673   2.601   0.815   4.575
 1910TIP3    H2 5674   2.490   0.747   4.498
 1911TIP3   OH2 5675   2.514   0.404   2.753
 1911TIP3    H1 5676   2.446   0.335   2.741
 1911TIP3    H2 5677   2.556   0.398   2.666
 1912TIP3   OH2 5678   3.150   0.727   4.305
 1912TIP3    H1 5679   3.147   0.657   4.374
 1912TIP3    H2 5680   3.229   0.779   4.331
 1913TIP3   OH2 5681   2.165   0.265   4.725
 1913TIP3    H1 5682   2.182   0.169   4.731
 1913TIP3    H2 5683   2.078   0.267   4.678
 1914TIP3   OH2 5684   2.769   0.348   4.500
 1914TIP3    H1 5685   2.733   0.371   4.411
 1914TIP3    H2 5686   2.801   0.256   4.486
 1915TIP3   OH2 5687   2.669   0.100   2.744
 1915TIP3    H1 5688   2.669   0.128   2.838
 1915TIP3    H2 5689   2.695   0.006   2.752
 1916TIP3   OH2 5690   3.262   0.362   4.106
 1916TIP3    H1 5691   3.341   0.400   4.062
 1916TIP3    H2 5692   3.197   0.433   4.090
 1917TIP3   OH2 5693   2.286   0.007   4.709
 1917TIP3    H1 5694   2.364  -0.043   4.682
 1917TIP3    H2 5695   2.313   0.036   4.799
 1918TIP3   OH2 5696   2.621  -0.089   4.368
 1918TIP3    H1 5697   2.537  -0.037   4.361
 1918TIP3    H2 5698   2.669  -0.063   4.286
 1919TIP3   OH2 5699   3.141   0.283   4.500
 1919TIP3    H1 5700   3.212   0.249   4.443
 1919TIP3    H2 5701   3.130   0.211   4.565
 1920TIP3   OH2 5702   3.287  -0.051   2.643
 1920TIP3    H1 5703   3.252  -0.092   2.561
 1920TIP3    H2 5704   3.254   0.041   2.629
 1921TIP3   OH2 5705   2.703  -0.313   4.491
 1921TIP3    H1 5706   2.657  -0.373   4.429
 1921TIP3    H2 5707   2.679  -0.226   4.449
 1922TIP3   OH2 5708   2.780  -0.003   4.169
 1922TIP3    H1 5709   2.865   0.007   4.124
 1922TIP3    H2 5710   2.724   0.062   4.122
 1923TIP3   OH2 5711   3.345  -0.038   4.535
 1923TIP3    H1 5712   3.381  -0.095   4.608
 1923TIP3    H2 5713   3.425   0.007   4.504
 1924TIP3   OH2 5714   3.393   0.213   4.289
 1924TIP3    H1 5715   3.335   0.268   4.231
 1924TIP3    H2 5716   3.480   0.236   4.250
 1925TIP3   OH2 5717   2.608  -0.194   4.735
 1925TIP3    H1 5718   2.545  -0.263   4.755
 1925TIP3    H2 5719   2.658  -0.231   4.659
 1926TIP3   OH2 5720   2.986  -0.255   4.529
 1926TIP3    H1 5721   3.017  -0.293   4.613
 1926TIP3    H2 5722   2.890  -0.273   4.534
 1927TIP3   OH2 5723   2.263   0.669   2.886
 1927TIP3    H1 5724   2.361   0.666   2.877
 1927TIP3    H2 5725   2.243   0.722   2.807
 1928TIP3   OH2 5726   1.651   0.659   3.510
 1928TIP3    H1 5727   1.600   0.587   3.471
 1928TIP3    H2 5728   1.700   0.611   3.580
 1929TIP3   OH2 5729   1.775   0.531   3.712
 1929TIP3    H1 5730   1.779   0.447   3.759
 1929TIP3    H2 5731   1.836   0.585   3.766
 1930TIP3   OH2 5732   3.519   0.911   3.506
 1930TIP3    H1 5733   3.538   0.945   3.595
 1930TIP3    H2 5734   3.583   0.959   3.452
 1931TIP3   OH2 5735   3.543   0.940   3.785
 1931TIP3    H1 5736   3.517   0.846   3.791
 1931TIP3    H2 5737   3.618   0.941   3.847
 1932TIP3   OH2 5738   3.595   0.610   4.364
 1932TIP3    H1 5739   3.522   0.622   4.428
 1932TIP3    H2 5740   3.637   0.698   4.364
 1933TIP3   OH2 5741   3.408   0.122   2.973
 1933TIP3    H1 5742   3.471   0.190   2.942
 1933TIP3    H2 5743   3.455   0.088   3.052
 1934TIP3   OH2 5744   3.537  -0.004   3.177
 1934TIP3    H1 5745   3.471  -0.041   3.240
 1934TIP3    H2 5746   3.603   0.037   3.237
 1935TIP3   OH2 5747   3.596   0.384   3.610
 1935TIP3    H1 5748   3.648   0.322   3.555
 1935TIP3    H2 5749   3.593   0.463   3.552
 1936TIP3   OH2 5750   3.421   0.680   3.810
 1936TIP3    H1 5751   3.351   0.731   3.857
 1936TIP3    H2 5752   3.370   0.639   3.737
 1937TIP3   OH2 5753   3.469  -0.106   2.831
 1937TIP3    H1 5754   3.405  -0.088   2.757
 1937TIP3    H2 5755   3.447  -0.029   2.887
 1938TIP3   OH2 5756   3.340  -0.441   2.771
 1938TIP3    H1 5757   3.323  -0.352   2.735
 1938TIP3    H2 5758   3.247  -0.471   2.786
 1939TIP3   OH2 5759   3.350  -0.136   3.326
 1939TIP3    H1 5760   3.347  -0.231   3.302
 1939TIP3    H2 5761   3.336  -0.137   3.423
 1940TIP3   OH2 5762   1.971  -0.080   4.072
 1940TIP3    H1 5763   1.968  -0.109   3.979
 1940TIP3    H2 5764   2.069  -0.078   4.088
 1941TIP3   OH2 5765   3.639   0.274   4.185
 1941TIP3    H1 5766   3.711   0.208   4.175
 1941TIP3    H2 5767   3.667   0.346   4.125
 1942TIP3   OH2 5768   3.814   0.069   4.202
 1942TIP3    H1 5769   3.743   0.013   4.240
 1942TIP3    H2 5770   3.892   0.012   4.219
 1943TIP3   OH2 5771   3.342  -0.388   3.191
 1943TIP3    H1 5772   3.369  -0.467   3.244
 1943TIP3    H2 5773   3.409  -0.387   3.120
 1944TIP3   OH2 5774   3.502  -0.256   3.725
 1944TIP3    H1 5775   3.587  -0.235   3.682
 1944TIP3    H2 5776   3.519  -0.220   3.814
 1945TIP3   OH2 5777   3.570  -0.105   3.950
 1945TIP3    H1 5778   3.492  -0.068   3.996
 1945TIP3    H2 5779   3.604  -0.028   3.900
 1946TIP3   OH2 5780   2.203  -0.398   4.750
 1946TIP3    H1 5781   2.290  -0.427   4.721
 1946TIP3    H2 5782   2.162  -0.483   4.775
 1947TIP3   OH2 5783   1.947  -0.422   4.146
 1947TIP3    H1 5784   1.996  -0.415   4.061
 1947TIP3    H2 5785   1.985  -0.349   4.197
 1948TIP3   OH2 5786   3.096   0.784   3.154
 1948TIP3    H1 5787   3.151   0.773   3.073
 1948TIP3    H2 5788   3.149   0.847   3.205
 1949TIP3   OH2 5789   2.200   0.592   4.540
 1949TIP3    H1 5790   2.108   0.562   4.527
 1949TIP3    H2 5791   2.217   0.567   4.631
 1950TIP3   OH2 5792   2.383   0.624   4.091
 1950TIP3    H1 5793   2.337   0.701   4.052
 1950TIP3    H2 5794   2.470   0.636   4.046
 1951TIP3   OH2 5795   2.818   0.867   4.228
 1951TIP3    H1 5796   2.862   0.865   4.316
 1951TIP3    H2 5797   2.885   0.917   4.177
 1952TIP3   OH2 5798   3.002   1.019   4.092
 1952TIP3    H1 5799   3.073   0.971   4.046
 1952TIP3    H2 5800   3.056   1.077   4.150
 1953TIP3   OH2 5801   2.055   0.876   4.120
 1953TIP3    H1 5802   1.963   0.904   4.098
 1953TIP3    H2 5803   2.074   0.936   4.194
 1954TIP3   OH2 5804   2.291   0.855   3.976
 1954TIP3    H1 5805   2.203   0.867   4.018
 1954TIP3    H2 5806   2.274   0.887   3.885
 1955TIP3   OH2 5807   2.716   0.880   3.775
 1955TIP3    H1 5808   2.650   0.901   3.707
 1955TIP3    H2 5809   2.730   0.968   3.816
 1956TIP3   OH2 5810   2.987   0.816   3.827
 1956TIP3    H1 5811   2.895   0.839   3.806
 1956TIP3    H2 5812   3.036   0.888   3.781
 1957TIP3   OH2 5813   3.175   1.006   3.729
 1957TIP3    H1 5814   3.161   1.090   3.679
 1957TIP3    H2 5815   3.210   0.947   3.658
 1958TIP3   OH2 5816   1.967   0.669   3.860
 1958TIP3    H1 5817   1.993   0.640   3.950
 1958TIP3    H2 5818   2.039   0.627   3.808
 1959TIP3   OH2 5819   2.165   0.545   3.723
 1959TIP3    H1 5820   2.179   0.458   3.769
 1959TIP3    H2 5821   2.256   0.579   3.720
 1960TIP3   OH2 5822   2.432   0.635   3.726
 1960TIP3    H1 5823   2.463   0.544   3.714
 1960TIP3    H2 5824   2.482   0.658   3.807
 1961TIP3   OH2 5825   1.701   0.452   3.288
 1961TIP3    H1 5826   1.652   0.446   3.206
 1961TIP3    H2 5827   1.738   0.541   3.282
 1962TIP3   OH2 5828   2.533   0.663   2.836
 1962TIP3    H1 5829   2.621   0.682   2.797
 1962TIP3    H2 5830   2.522   0.571   2.802
 1963TIP3   OH2 5831   3.251   0.745   2.927
 1963TIP3    H1 5832   3.244   0.649   2.907
 1963TIP3    H2 5833   3.207   0.783   2.846
 1964TIP3   OH2 5834   3.470   0.895   4.115
 1964TIP3    H1 5835   3.392   0.870   4.061
 1964TIP3    H2 5836   3.463   0.993   4.111
 1965TIP3   OH2 5837   4.972   0.550   2.960
 1965TIP3    H1 5838   4.982   0.504   3.044
 1965TIP3    H2 5839   4.996   0.641   2.984
 1966TIP3   OH2 5840   4.009   0.560   3.345
 1966TIP3    H1 5841   4.003   0.463   3.353
 1966TIP3    H2 5842   4.104   0.573   3.363
 1967TIP3   OH2 5843   3.701  -0.220   3.143
 1967TIP3    H1 5844   3.652  -0.137   3.157
 1967TIP3    H2 5845   3.636  -0.271   3.091
 1968TIP3   OH2 5846   3.766   0.072   3.310
 1968TIP3    H1 5847   3.810  -0.012   3.336
 1968TIP3    H2 5848   3.840   0.121   3.269
 1969TIP3   OH2 5849   4.634   1.032   2.959
 1969TIP3    H1 5850   4.680   0.959   2.913
 1969TIP3    H2 5851   4.613   0.994   3.045
 1970TIP3   OH2 5852   4.545   0.482   3.266
 1970TIP3    H1 5853   4.508   0.421   3.333
 1970TIP3    H2 5854   4.623   0.520   3.313
 1971TIP3   OH2 5855   4.955  -0.007   3.331
 1971TIP3    H1 5856   4.962  -0.090   3.380
 1971TIP3    H2 5857   4.873  -0.019   3.280
 1972TIP3   OH2 5858   4.278  -0.396   3.272
 1972TIP3    H1 5859   4.255  -0.306   3.240
 1972TIP3    H2 5860   4.191  -0.439   3.267
 1973TIP3   OH2 5861   4.952  -0.214   2.999
 1973TIP3    H1 5862   5.003  -0.272   3.059
 1973TIP3    H2 5863   4.999  -0.233   2.916
 1974TIP3   OH2 5864   3.897  -0.148   3.402
 1974TIP3    H1 5865   3.989  -0.145   3.437
 1974TIP3    H2 5866   3.912  -0.210   3.329
 1975TIP3   OH2 5867   4.374   0.051   3.154
 1975TIP3    H1 5868   4.429   0.050   3.234
 1975TIP3    H2 5869   4.326  -0.034   3.160
 1976TIP3   OH2 5870   5.585   0.003   3.502
 1976TIP3    H1 5871   5.508   0.053   3.467
 1976TIP3    H2 5872   5.638   0.073   3.542
 1977TIP3   OH2 5873   4.647   0.476   2.754
 1977TIP3    H1 5874   4.593   0.451   2.677
 1977TIP3    H2 5875   4.601   0.559   2.781
 1978TIP3   OH2 5876   4.155  -0.182   3.469
 1978TIP3    H1 5877   4.219  -0.129   3.521
 1978TIP3    H2 5878   4.192  -0.270   3.480
 1979TIP3   OH2 5879   4.228   0.623   3.637
 1979TIP3    H1 5880   4.196   0.710   3.604
 1979TIP3    H2 5881   4.148   0.591   3.684
 1980TIP3   OH2 5882   3.607   0.294   2.875
 1980TIP3    H1 5883   3.571   0.311   2.785
 1980TIP3    H2 5884   3.636   0.384   2.902
 1981TIP3   OH2 5885   5.051   0.809   3.100
 1981TIP3    H1 5886   4.964   0.803   3.146
 1981TIP3    H2 5887   5.044   0.897   3.058
 1982TIP3   OH2 5888   4.758   0.855   2.785
 1982TIP3    H1 5889   4.808   0.774   2.763
 1982TIP3    H2 5890   4.817   0.922   2.743
 1983TIP3   OH2 5891   4.899   0.635   2.701
 1983TIP3    H1 5892   4.848   0.566   2.657
 1983TIP3    H2 5893   4.927   0.590   2.783
 1984TIP3   OH2 5894   5.280   0.726   3.455
 1984TIP3    H1 5895   5.269   0.649   3.396
 1984TIP3    H2 5896   5.259   0.801   3.395
 1985TIP3   OH2 5897   4.579   0.126   2.706
 1985TIP3    H1 5898   4.496   0.178   2.697
 1985TIP3    H2 5899   4.607   0.120   2.613
 1986TIP3   OH2 5900   4.524  -0.098   2.424
 1986TIP3    H1 5901   4.597  -0.048   2.464
 1986TIP3    H2 5902   4.572  -0.168   2.378
 1987TIP3   OH2 5903   5.476   0.367   3.301
 1987TIP3    H1 5904   5.391   0.415   3.302
 1987TIP3    H2 5905   5.506   0.386   3.210
 1988TIP3   OH2 5906   4.914   0.203   2.665
 1988TIP3    H1 5907   4.866   0.246   2.736
 1988TIP3    H2 5908   4.998   0.177   2.711
 1989TIP3   OH2 5909   5.161   0.244   3.605
 1989TIP3    H1 5910   5.149   0.324   3.659
 1989TIP3    H2 5911   5.072   0.239   3.563
 1990TIP3   OH2 5912   4.150   0.198   3.097
 1990TIP3    H1 5913   4.114   0.138   3.028
 1990TIP3    H2 5914   4.232   0.151   3.123
 1991TIP3   OH2 5915   4.286   0.624   3.236
 1991TIP3    H1 5916   4.259   0.570   3.160
 1991TIP3    H2 5917   4.374   0.586   3.256
 1992TIP3   OH2 5918   4.820   0.802   3.235
 1992TIP3    H1 5919   4.800   0.886   3.280
 1992TIP3    H2 5920   4.789   0.735   3.300
 1993TIP3   OH2 5921   4.431   0.724   3.781
 1993TIP3    H1 5922   4.365   0.784   3.823
 1993TIP3    H2 5923   4.371   0.671   3.725
 1994TIP3   OH2 5924   4.757   0.047   2.499
 1994TIP3    H1 5925   4.811   0.113   2.549
 1994TIP3    H2 5926   4.784   0.068   2.407
 1995TIP3   OH2 5927   4.176   0.270   3.911
 1995TIP3    H1 5928   4.181   0.362   3.943
 1995TIP3    H2 5929   4.082   0.266   3.884
 1996TIP3   OH2 5930   4.513   0.723   2.779
 1996TIP3    H1 5931   4.588   0.785   2.792
 1996TIP3    H2 5932   4.444   0.781   2.744
 1997TIP3   OH2 5933   4.219   0.886   3.866
 1997TIP3    H1 5934   4.183   0.894   3.776
 1997TIP3    H2 5935   4.139   0.858   3.917
 1998TIP3   OH2 5936   4.020   0.037   2.888
 1998TIP3    H1 5937   3.948   0.085   2.842
 1998TIP3    H2 5938   3.975  -0.043   2.917
 1999TIP3   OH2 5939   5.072   0.664   2.106
 1999TIP3    H1 5940   5.081   0.761   2.090
 1999TIP3    H2 5941   5.165   0.636   2.096
 2000TIP3   OH2 5942   3.791   0.426   3.812
 2000TIP3    H1 5943   3.725   0.405   3.744
 2000TIP3    H2 5944   3.826   0.338   3.838
 2001TIP3   OH2 5945   3.652   0.615   3.449
 2001TIP3    H1 5946   3.748   0.616   3.438
 2001TIP3    H2 5947   3.639   0.696   3.500
 2002TIP3   OH2 5948   5.516   1.074   3.503
 2002TIP3    H1 5949   5.514   0.977   3.518
 2002TIP3    H2 5950   5.431   1.099   3.547
 2003TIP3   OH2 5951   4.618   0.854   3.631
 2003TIP3    H1 5952   4.616   0.946   3.664
 2003TIP3    H2 5953   4.547   0.813   3.686
 2004TIP3   OH2 5954   4.388   0.984   2.585
 2004TIP3    H1 5955   4.335   0.968   2.505
 2004TIP3    H2 5956   4.352   1.069   2.618
 2005TIP3   OH2 5957   3.824   0.828   2.972
 2005TIP3    H1 5958   3.870   0.820   3.059
 2005TIP3    H2 5959   3.768   0.749   2.973
 2006TIP3   OH2 5960   4.583   0.886   2.222
 2006TIP3    H1 5961   4.642   0.815   2.188
 2006TIP3    H2 5962   4.618   0.897   2.313
 2007TIP3   OH2 5963   4.637   0.933   2.491
 2007TIP3    H1 5964   4.548   0.944   2.531
 2007TIP3    H2 5965   4.687   0.897   2.565
 2008TIP3   OH2 5966   5.403   0.181   3.775
 2008TIP3    H1 5967   5.324   0.221   3.735
 2008TIP3    H2 5968   5.378   0.087   3.770
 2009TIP3   OH2 5969   3.998   0.606   3.785
 2009TIP3    H1 5970   4.043   0.601   3.871
 2009TIP3    H2 5971   3.922   0.545   3.798
 2010TIP3   OH2 5972   5.198  -0.009   3.728
 2010TIP3    H1 5973   5.140   0.003   3.804
 2010TIP3    H2 5974   5.168   0.060   3.667
 2011TIP3   OH2 5975   4.838   0.095   2.249
 2011TIP3    H1 5976   4.797   0.080   2.162
 2011TIP3    H2 5977   4.919   0.143   2.223
 2012TIP3   OH2 5978   4.357  -0.066   3.623
 2012TIP3    H1 5979   4.299  -0.053   3.701
 2012TIP3    H2 5980   4.349   0.023   3.581
 2013TIP3   OH2 5981   4.214  -0.175   3.126
 2013TIP3    H1 5982   4.119  -0.192   3.138
 2013TIP3    H2 5983   4.228  -0.202   3.032
 2014TIP3   OH2 5984   4.696  -0.070   2.847
 2014TIP3    H1 5985   4.650   0.001   2.796
 2014TIP3    H2 5986   4.762  -0.102   2.782
 2015TIP3   OH2 5987   4.890   0.223   3.913
 2015TIP3    H1 5988   4.862   0.144   3.963
 2015TIP3    H2 5989   4.984   0.228   3.940
 2016TIP3   OH2 5990   4.834   0.031   3.054
 2016TIP3    H1 5991   4.763   0.003   2.991
 2016TIP3    H2 5992   4.887  -0.052   3.045
 2017TIP3   OH2 5993   4.188  -0.042   3.834
 2017TIP3    H1 5994   4.158   0.046   3.862
 2017TIP3    H2 5995   4.141  -0.103   3.893
 2018TIP3   OH2 5996   3.785  -0.418   2.942
 2018TIP3    H1 5997   3.799  -0.405   2.846
 2018TIP3    H2 5998   3.692  -0.389   2.949
 2019TIP3   OH2 5999   4.913   0.205   3.495
 2019TIP3    H1 6000   4.923   0.127   3.438
 2019TIP3    H2 6001   4.862   0.167   3.569
 2020TIP3   OH2 6002   3.959  -0.295   3.164
 2020TIP3    H1 6003   3.867  -0.260   3.153
 2020TIP3    H2 6004   3.953  -0.369   3.102
 2021TIP3   OH2 6005   4.258  -0.273   2.874
 2021TIP3    H1 6006   4.345  -0.283   2.833
 2021TIP3    H2 6007   4.197  -0.282   2.797
 2022TIP3   OH2 6008   4.094  -0.293   2.649
 2022TIP3    H1 6009   4.020  -0.306   2.587
 2022TIP3    H2 6010   4.155  -0.244   2.589
 2023TIP3   OH2 6011   5.212   1.417   3.601
 2023TIP3    H1 6012   5.206   1.443   3.507
 2023TIP3    H2 6013   5.290   1.468   3.630
 2024TIP3   OH2 6014   4.160   0.527   4.021
 2024TIP3    H1 6015   4.240   0.561   4.066
 2024TIP3    H2 6016   4.093   0.543   4.091
 2025TIP3   OH2 6017   4.646  -0.004   3.288
 2025TIP3    H1 6018   4.652  -0.091   3.250
 2025TIP3    H2 6019   4.628  -0.025   3.383
 2026TIP3   OH2 6020   4.624  -0.086   3.541
 2026TIP3    H1 6021   4.532  -0.096   3.577
 2026TIP3    H2 6022   4.671  -0.043   3.614
 2027TIP3   OH2 6023   4.343   0.266   2.661
 2027TIP3    H1 6024   4.269   0.204   2.648
 2027TIP3    H2 6025   4.322   0.302   2.751
 2028TIP3   OH2 6026   5.244   0.514   3.281
 2028TIP3    H1 6027   5.280   0.566   3.205
 2028TIP3    H2 6028   5.151   0.504   3.257
 2029TIP3   OH2 6029   4.772  -0.344   2.482
 2029TIP3    H1 6030   4.713  -0.398   2.538
 2029TIP3    H2 6031   4.808  -0.282   2.549
 2030TIP3   OH2 6032   4.759   0.608   3.655
 2030TIP3    H1 6033   4.738   0.548   3.728
 2030TIP3    H2 6034   4.699   0.684   3.671
 2031TIP3   OH2 6035   4.872  -0.152   2.652
 2031TIP3    H1 6036   4.970  -0.140   2.658
 2031TIP3    H2 6037   4.845  -0.080   2.592
 2032TIP3   OH2 6038   4.041   0.272   3.356
 2032TIP3    H1 6039   4.075   0.250   3.267
 2032TIP3    H2 6040   4.123   0.260   3.409
 2033TIP3   OH2 6041   4.484   0.418   2.482
 2033TIP3    H1 6042   4.437   0.505   2.487
 2033TIP3    H2 6043   4.429   0.364   2.543
 2034TIP3   OH2 6044   3.902   0.213   3.949
 2034TIP3    H1 6045   3.934   0.203   4.041
 2034TIP3    H2 6046   3.833   0.145   3.944
 2035TIP3   OH2 6047   4.633   0.329   3.970
 2035TIP3    H1 6048   4.568   0.282   3.914
 2035TIP3    H2 6049   4.718   0.300   3.931
 2036TIP3   OH2 6050   4.900   0.855   3.549
 2036TIP3    H1 6051   4.805   0.842   3.567
 2036TIP3    H2 6052   4.927   0.904   3.630
 2037TIP3   OH2 6053   5.308  -0.079   2.447
 2037TIP3    H1 6054   5.248  -0.129   2.387
 2037TIP3    H2 6055   5.292   0.011   2.411
 2038TIP3   OH2 6056   5.530   0.783   3.541
 2038TIP3    H1 6057   5.432   0.777   3.534
 2038TIP3    H2 6058   5.555   0.752   3.451
 2039TIP3   OH2 6059   5.012   0.740   2.372
 2039TIP3    H1 6060   4.981   0.670   2.430
 2039TIP3    H2 6061   5.023   0.694   2.286
 2040TIP3   OH2 6062   4.946   0.331   3.186
 2040TIP3    H1 6063   4.953   0.320   3.284
 2040TIP3    H2 6064   5.019   0.271   3.156
 2041TIP3   OH2 6065   4.130   0.594   2.948
 2041TIP3    H1 6066   4.124   0.678   2.898
 2041TIP3    H2 6067   4.039   0.582   2.977
 2042TIP3   OH2 6068   3.695  -0.095   2.669
 2042TIP3    H1 6069   3.742  -0.011   2.690
 2042TIP3    H2 6070   3.620  -0.090   2.732
 2043TIP3   OH2 6071   4.271   0.361   2.902
 2043TIP3    H1 6072   4.233   0.450   2.918
 2043TIP3    H2 6073   4.235   0.311   2.978
 2044TIP3   OH2 6074   4.403   0.941   3.427
 2044TIP3    H1 6075   4.447   1.014   3.378
 2044TIP3    H2 6076   4.478   0.903   3.475
 2045TIP3   OH2 6077   4.052   0.835   2.810
 2045TIP3    H1 6078   3.966   0.844   2.857
 2045TIP3    H2 6079   4.084   0.928   2.813
 2046TIP3   OH2 6080   4.791   0.555   3.394
 2046TIP3    H1 6081   4.762   0.567   3.488
 2046TIP3    H2 6082   4.885   0.543   3.411
 2047TIP3   OH2 6083   4.766   0.471   2.270
 2047TIP3    H1 6084   4.820   0.446   2.348
 2047TIP3    H2 6085   4.678   0.442   2.299
 2048TIP3   OH2 6086   5.039   1.103   3.436
 2048TIP3    H1 6087   4.959   1.047   3.433
 2048TIP3    H2 6088   5.020   1.167   3.364
 2049TIP3   OH2 6089   5.104   0.940   2.090
 2049TIP3    H1 6090   5.141   1.013   2.038
 2049TIP3    H2 6091   5.024   0.984   2.125
 2050TIP3   OH2 6092   4.932   0.404   2.477
 2050TIP3    H1 6093   4.920   0.332   2.542
 2050TIP3    H2 6094   5.030   0.402   2.467
 2051TIP3   OH2 6095   3.843   0.799   3.588
 2051TIP3    H1 6096   3.900   0.733   3.630
 2051TIP3    H2 6097   3.858   0.876   3.643
 2052TIP3   OH2 6098   4.131   0.446   2.270
 2052TIP3    H1 6099   4.143   0.352   2.247
 2052TIP3    H2 6100   4.112   0.440   2.366
 2053TIP3   OH2 6101   4.077   0.454   2.540
 2053TIP3    H1 6102   4.142   0.428   2.606
 2053TIP3    H2 6103   4.078   0.552   2.550
 2054TIP3   OH2 6104   3.806   0.146   2.750
 2054TIP3    H1 6105   3.740   0.192   2.806
 2054TIP3    H2 6106   3.818   0.215   2.681
 2055TIP3   OH2 6107   4.344   0.650   2.489
 2055TIP3    H1 6108   4.256   0.670   2.527
 2055TIP3    H2 6109   4.358   0.731   2.437
 2056TIP3   OH2 6110   4.553  -0.300   2.863
 2056TIP3    H1 6111   4.598  -0.212   2.866
 2056TIP3    H2 6112   4.535  -0.317   2.956
 2057TIP3   OH2 6113   4.814   0.045   3.708
 2057TIP3    H1 6114   4.811   0.116   3.776
 2057TIP3    H2 6115   4.844  -0.029   3.763
 2058TIP3   OH2 6116   4.090   0.724   2.562
 2058TIP3    H1 6117   4.058   0.794   2.501
 2058TIP3    H2 6118   4.072   0.766   2.649
 2059TIP3   OH2 6119   5.103   0.128   3.086
 2059TIP3    H1 6120   5.026   0.074   3.112
 2059TIP3    H2 6121   5.176   0.081   3.132
 2060TIP3   OH2 6122   3.812   0.349   2.549
 2060TIP3    H1 6123   3.878   0.419   2.558
 2060TIP3    H2 6124   3.857   0.293   2.483
 2061TIP3   OH2 6125   3.751  -0.363   2.677
 2061TIP3    H1 6126   3.742  -0.265   2.668
 2061TIP3    H2 6127   3.661  -0.393   2.658
 2062TIP3   OH2 6128   5.061   1.080   3.028
 2062TIP3    H1 6129   5.017   1.127   2.954
 2062TIP3    H2 6130   5.155   1.100   3.008
 2063TIP3   OH2 6131   3.664   0.565   2.930
 2063TIP3    H1 6132   3.605   0.598   2.999
 2063TIP3    H2 6133   3.630   0.612   2.850
 2064TIP3   OH2 6134   4.323   1.057   4.062
 2064TIP3    H1 6135   4.416   1.032   4.053
 2064TIP3    H2 6136   4.283   1.005   3.989
 2065TIP3   OH2 6137   4.291   0.647   2.177
 2065TIP3    H1 6138   4.234   0.578   2.218
 2065TIP3    H2 6139   4.369   0.594   2.153
 2066TIP3   OH2 6140   4.954   0.981   3.787
 2066TIP3    H1 6141   4.946   0.913   3.857
 2066TIP3    H2 6142   5.028   1.036   3.819
 2067TIP3   OH2 6143   4.728   0.687   2.096
 2067TIP3    H1 6144   4.766   0.621   2.157
 2067TIP3    H2 6145   4.787   0.683   2.018
 2068TIP3   OH2 6146   3.959   0.516   4.215
 2068TIP3    H1 6147   3.978   0.420   4.213
 2068TIP3    H2 6148   3.873   0.521   4.167
 2069TIP3   OH2 6149   3.945   0.161   2.407
 2069TIP3    H1 6150   4.002   0.135   2.482
 2069TIP3    H2 6151   4.013   0.168   2.336
 2070TIP3   OH2 6152   4.567   0.605   3.986
 2070TIP3    H1 6153   4.524   0.628   3.901
 2070TIP3    H2 6154   4.593   0.511   3.973
 2071TIP3   OH2 6155   4.459   0.370   2.213
 2071TIP3    H1 6156   4.457   0.382   2.310
 2071TIP3    H2 6157   4.460   0.272   2.207
 2072TIP3   OH2 6158   5.057   0.607   3.576
 2072TIP3    H1 6159   5.128   0.666   3.545
 2072TIP3    H2 6160   4.982   0.668   3.585
 2073TIP3   OH2 6161   4.074   0.252   4.196
 2073TIP3    H1 6162   4.157   0.231   4.149
 2073TIP3    H2 6163   4.109   0.284   4.283
 2074TIP3   OH2 6164   4.141   0.077   2.624
 2074TIP3    H1 6165   4.116   0.044   2.712
 2074TIP3    H2 6166   4.179  -0.002   2.581
 2075TIP3   OH2 6167   4.421   0.177   3.841
 2075TIP3    H1 6168   4.333   0.213   3.867
 2075TIP3    H2 6169   4.415   0.188   3.745
 2076TIP3   OH2 6170   4.246  -0.135   2.475
 2076TIP3    H1 6171   4.219  -0.128   2.381
 2076TIP3    H2 6172   4.344  -0.131   2.466
 2077TIP3   OH2 6173   4.942   0.543   3.993
 2077TIP3    H1 6174   5.000   0.496   3.931
 2077TIP3    H2 6175   4.922   0.473   4.058
 2078TIP3   OH2 6176   5.067   0.191   2.132
 2078TIP3    H1 6177   5.050   0.149   2.045
 2078TIP3    H2 6178   5.035   0.283   2.112
 2079TIP3   OH2 6179   4.501  -0.047   3.971
 2079TIP3    H1 6180   4.443  -0.106   3.918
 2079TIP3    H2 6181   4.478   0.039   3.927
 2080TIP3   OH2 6182   4.594   0.301   3.634
 2080TIP3    H1 6183   4.628   0.236   3.571
 2080TIP3    H2 6184   4.500   0.301   3.606
 2081TIP3   OH2 6185   5.143   0.213   4.018
 2081TIP3    H1 6186   5.173   0.155   4.092
 2081TIP3    H2 6187   5.220   0.271   4.005
 2082TIP3   OH2 6188   5.190   0.473   3.773
 2082TIP3    H1 6189   5.130   0.523   3.713
 2082TIP3    H2 6190   5.277   0.497   3.733
 2083TIP3   OH2 6191   4.397   0.064   4.216
 2083TIP3    H1 6192   4.338  -0.010   4.232
 2083TIP3    H2 6193   4.448   0.033   4.139
 2084TIP3   OH2 6194   4.779  -0.002   4.007
 2084TIP3    H1 6195   4.801  -0.033   4.097
 2084TIP3    H2 6196   4.682  -0.010   4.008
 2085TIP3   OH2 6197   4.058   0.925   2.372
 2085TIP3    H1 6198   4.153   0.917   2.352
 2085TIP3    H2 6199   4.030   0.980   2.297
 2086TIP3   OH2 6200   3.552   0.290   2.605
 2086TIP3    H1 6201   3.642   0.318   2.577
 2086TIP3    H2 6202   3.535   0.212   2.549
 2087TIP3   OH2 6203   3.450   0.920   3.009
 2087TIP3    H1 6204   3.387   0.859   2.965
 2087TIP3    H2 6205   3.496   0.859   3.070
 2088TIP3   OH2 6206   3.589   0.762   3.188
 2088TIP3    H1 6207   3.575   0.696   3.259
 2088TIP3    H2 6208   3.641   0.829   3.238
 2089TIP3   OH2 6209   5.319   1.164   2.993
 2089TIP3    H1 6210   5.341   1.200   3.081
 2089TIP3    H2 6211   5.377   1.215   2.935
 2090TIP3   OH2 6212   5.342   1.191   3.274
 2090TIP3    H1 6213   5.296   1.104   3.270
 2090TIP3    H2 6214   5.416   1.167   3.332
 2091TIP3   OH2 6215   5.392   0.867   3.848
 2091TIP3    H1 6216   5.319   0.878   3.913
 2091TIP3    H2 6217   5.433   0.956   3.851
 2092TIP3   OH2 6218   5.208   0.382   2.461
 2092TIP3    H1 6219   5.272   0.449   2.431
 2092TIP3    H2 6220   5.253   0.346   2.541
 2093TIP3   OH2 6221   5.331   0.253   2.668
 2093TIP3    H1 6222   5.263   0.217   2.729
 2093TIP3    H2 6223   5.397   0.293   2.729
 2094TIP3   OH2 6224   5.391   0.645   3.097
 2094TIP3    H1 6225   5.445   0.578   3.050
 2094TIP3    H2 6226   5.391   0.719   3.033
 2095TIP3   OH2 6227   5.215   0.941   3.293
 2095TIP3    H1 6228   5.144   0.985   3.344
 2095TIP3    H2 6229   5.165   0.899   3.220
 2096TIP3   OH2 6230   5.263   0.156   2.315
 2096TIP3    H1 6231   5.194   0.164   2.244
 2096TIP3    H2 6232   5.238   0.234   2.370
 2097TIP3   OH2 6233   5.135  -0.183   2.254
 2097TIP3    H1 6234   5.110  -0.106   2.202
 2097TIP3    H2 6235   5.085  -0.254   2.210
 2098TIP3   OH2 6236   5.135   0.122   2.808
 2098TIP3    H1 6237   5.142   0.029   2.779
 2098TIP3    H2 6238   5.132   0.115   2.906
 2099TIP3   OH2 6239   3.791   0.180   3.560
 2099TIP3    H1 6240   3.768   0.139   3.474
 2099TIP3    H2 6241   3.881   0.211   3.540
 2100TIP3   OH2 6242   5.439   0.532   3.670
 2100TIP3    H1 6243   5.509   0.464   3.658
 2100TIP3    H2 6244   5.463   0.600   3.605
 2101TIP3   OH2 6245   5.618   0.325   3.682
 2101TIP3    H1 6246   5.544   0.271   3.718
 2101TIP3    H2 6247   5.694   0.269   3.708
 2102TIP3   OH2 6248   5.146  -0.124   2.683
 2102TIP3    H1 6249   5.169  -0.204   2.736
 2102TIP3    H2 6250   5.208  -0.131   2.608
 2103TIP3   OH2 6251   5.305  -0.000   3.211
 2103TIP3    H1 6252   5.392   0.024   3.170
 2103TIP3    H2 6253   5.319   0.036   3.300
 2104TIP3   OH2 6254   5.367   0.151   3.435
 2104TIP3    H1 6255   5.295   0.186   3.490
 2104TIP3    H2 6256   5.402   0.232   3.392
 2105TIP3   OH2 6257   3.988  -0.140   4.237
 2105TIP3    H1 6258   4.075  -0.168   4.205
 2105TIP3    H2 6259   3.953  -0.225   4.272
 2106TIP3   OH2 6260   3.747  -0.171   3.637
 2106TIP3    H1 6261   3.795  -0.167   3.551
 2106TIP3    H2 6262   3.774  -0.088   3.678
 2107TIP3   OH2 6263   4.899   1.038   2.646
 2107TIP3    H1 6264   4.952   1.032   2.564
 2107TIP3    H2 6265   4.945   1.109   2.694
 2108TIP3   OH2 6266   3.997   0.826   4.024
 2108TIP3    H1 6267   3.901   0.820   4.005
 2108TIP3    H2 6268   3.996   0.875   4.107
 2109TIP3   OH2 6269   4.176   0.888   3.579
 2109TIP3    H1 6270   4.128   0.965   3.540
 2109TIP3    H2 6271   4.260   0.898   3.531
 2110TIP3   OH2 6272   4.619   1.116   3.715
 2110TIP3    H1 6273   4.659   1.118   3.804
 2110TIP3    H2 6274   4.683   1.171   3.664
 2111TIP3   OH2 6275   4.797   1.274   3.579
 2111TIP3    H1 6276   4.868   1.224   3.537
 2111TIP3    H2 6277   4.848   1.332   3.639
 2112TIP3   OH2 6278   3.850   1.133   3.614
 2112TIP3    H1 6279   3.762   1.168   3.590
 2112TIP3    H2 6280   3.853   1.157   3.708
 2113TIP3   OH2 6281   4.083   1.119   3.462
 2113TIP3    H1 6282   3.998   1.131   3.509
 2113TIP3    H2 6283   4.061   1.153   3.373
 2114TIP3   OH2 6284   4.515   1.138   3.257
 2114TIP3    H1 6285   4.441   1.154   3.196
 2114TIP3    H2 6286   4.525   1.226   3.299
 2115TIP3   OH2 6287   4.783   1.074   3.306
 2115TIP3    H1 6288   4.688   1.093   3.291
 2115TIP3    H2 6289   4.825   1.151   3.266
 2116TIP3   OH2 6290   4.989   1.268   3.222
 2116TIP3    H1 6291   4.975   1.353   3.176
 2116TIP3    H2 6292   5.015   1.208   3.148
 2117TIP3   OH2 6293   3.763   0.920   3.345
 2117TIP3    H1 6294   3.790   0.893   3.436
 2117TIP3    H2 6295   3.838   0.880   3.294
 2118TIP3   OH2 6296   3.962   0.794   3.207
 2118TIP3    H1 6297   3.978   0.710   3.256
 2118TIP3    H2 6298   4.052   0.832   3.204
 2119TIP3   OH2 6299   4.227   0.891   3.211
 2119TIP3    H1 6300   4.254   0.797   3.205
 2119TIP3    H2 6301   4.275   0.915   3.292
 2120TIP3   OH2 6302   3.548   0.701   2.726
 2120TIP3    H1 6303   3.464   0.659   2.705
 2120TIP3    H2 6304   3.534   0.792   2.692
 2121TIP3   OH2 6305   4.325   0.880   2.319
 2121TIP3    H1 6306   4.412   0.904   2.282
 2121TIP3    H2 6307   4.302   0.805   2.259
 2122TIP3   OH2 6308   5.046   1.008   2.413
 2122TIP3    H1 6309   5.038   0.910   2.403
 2122TIP3    H2 6310   4.998   1.039   2.334
 2123TIP3   OH2 6311   3.622   0.722   2.372
 2123TIP3    H1 6312   3.618   0.750   2.465
 2123TIP3    H2 6313   3.712   0.682   2.366
 2124TIP3   OH2 6314   5.266   1.147   3.599
 2124TIP3    H1 6315   5.187   1.117   3.549
 2124TIP3    H2 6316   5.247   1.243   3.606
 2125TIP3   OH2 6317   6.529   0.523   2.370
 2125TIP3    H1 6318   6.502   0.615   2.348
 2125TIP3    H2 6319   6.454   0.474   2.332
 2126TIP3   OH2 6320   6.536   0.522   2.756
 2126TIP3    H1 6321   6.571   0.500   2.844
 2126TIP3    H2 6322   6.494   0.439   2.730
 2127TIP3   OH2 6323   5.829   0.416   3.113
 2127TIP3    H1 6324   5.860   0.345   3.173
 2127TIP3    H2 6325   5.913   0.461   3.095
 2128TIP3   OH2 6326   6.781   0.825   2.434
 2128TIP3    H1 6327   6.765   0.759   2.503
 2128TIP3    H2 6328   6.811   0.902   2.486
 2129TIP3   OH2 6329   5.808   0.826   2.833
 2129TIP3    H1 6330   5.799   0.728   2.834
 2129TIP3    H2 6331   5.905   0.835   2.826
 2130TIP3   OH2 6332   5.498   0.039   2.628
 2130TIP3    H1 6333   5.445   0.120   2.644
 2130TIP3    H2 6334   5.435  -0.014   2.578
 2131TIP3   OH2 6335   5.562   0.328   2.797
 2131TIP3    H1 6336   5.605   0.244   2.826
 2131TIP3    H2 6337   5.631   0.369   2.743
 2132TIP3   OH2 6338   6.433   1.287   2.448
 2132TIP3    H1 6339   6.473   1.215   2.395
 2132TIP3    H2 6340   6.421   1.244   2.533
 2133TIP3   OH2 6341   6.332   0.749   2.795
 2133TIP3    H1 6342   6.374   0.671   2.754
 2133TIP3    H2 6343   6.414   0.797   2.821
 2134TIP3   OH2 6344   6.748   0.246   2.839
 2134TIP3    H1 6345   6.770   0.159   2.876
 2134TIP3    H2 6346   6.718   0.223   2.748
 2135TIP3   OH2 6347   6.073  -0.134   2.763
 2135TIP3    H1 6348   6.045  -0.045   2.734
 2135TIP3    H2 6349   5.995  -0.187   2.743
 2136TIP3   OH2 6350   3.537   6.593   8.969
 2136TIP3    H1 6351   3.583   6.532   9.033
 2136TIP3    H2 6352   3.534   6.539   8.888
 2137TIP3   OH2 6353   5.695   0.110   2.888
 2137TIP3    H1 6354   5.787   0.113   2.923
 2137TIP3    H2 6355   5.709   0.049   2.813
 2138TIP3   OH2 6356   6.154   0.312   2.702
 2138TIP3    H1 6357   6.249   0.288   2.712
 2138TIP3    H2 6358   6.115   0.226   2.679
 2139TIP3   OH2 6359   7.409   0.285   2.947
 2139TIP3    H1 6360   7.315   0.313   2.946
 2139TIP3    H2 6361   7.439   0.316   3.032
 2140TIP3   OH2 6362   6.423   0.742   2.234
 2140TIP3    H1 6363   6.387   0.732   2.145
 2140TIP3    H2 6364   6.378   0.825   2.263
 2141TIP3   OH2 6365   6.188   0.668   3.015
 2141TIP3    H1 6366   6.128   0.737   3.052
 2141TIP3    H2 6367   6.231   0.715   2.941
 2142TIP3   OH2 6368   5.952   0.077   2.955
 2142TIP3    H1 6369   6.021   0.122   3.007
 2142TIP3    H2 6370   5.979  -0.015   2.969
 2143TIP3   OH2 6371   6.018   0.866   3.117
 2143TIP3    H1 6372   5.993   0.954   3.082
 2143TIP3    H2 6373   5.939   0.847   3.171
 2144TIP3   OH2 6374   5.404   0.554   2.356
 2144TIP3    H1 6375   5.365   0.579   2.270
 2144TIP3    H2 6376   5.435   0.641   2.389
 2145TIP3   OH2 6377   6.848   1.070   2.591
 2145TIP3    H1 6378   6.759   1.061   2.633
 2145TIP3    H2 6379   6.839   1.157   2.548
 2146TIP3   OH2 6380   6.545   1.113   2.263
 2146TIP3    H1 6381   6.597   1.030   2.245
 2146TIP3    H2 6382   6.609   1.179   2.225
 2147TIP3   OH2 6383   6.695   0.897   2.182
 2147TIP3    H1 6384   6.654   0.815   2.148
 2147TIP3    H2 6385   6.732   0.866   2.267
 2148TIP3   OH2 6386   7.076   0.978   2.939
 2148TIP3    H1 6387   7.060   0.901   2.882
 2148TIP3    H2 6388   7.055   1.053   2.879
 2149TIP3   OH2 6389   6.362   0.376   2.198
 2149TIP3    H1 6390   6.285   0.432   2.175
 2149TIP3    H2 6391   6.406   0.364   2.112
 2150TIP3   OH2 6392   7.261   0.613   2.775
 2150TIP3    H1 6393   7.179   0.667   2.783
 2150TIP3    H2 6394   7.296   0.646   2.690
 2151TIP3   OH2 6395   6.710   0.452   2.179
 2151TIP3    H1 6396   6.660   0.479   2.260
 2151TIP3    H2 6397   6.798   0.433   2.215
 2152TIP3   OH2 6398   6.952   0.504   3.068
 2152TIP3    H1 6399   6.943   0.572   3.137
 2152TIP3    H2 6400   6.860   0.499   3.036
 2153TIP3   OH2 6401   5.947   0.450   2.584
 2153TIP3    H1 6402   5.913   0.391   2.514
 2153TIP3    H2 6403   6.024   0.400   2.619
 2154TIP3   OH2 6404   6.076   0.865   2.732
 2154TIP3    H1 6405   6.057   0.833   2.642
 2154TIP3    H2 6406   6.165   0.828   2.749
 2155TIP3   OH2 6407   6.077   0.424   2.947
 2155TIP3    H1 6408   6.110   0.395   2.860
 2155TIP3    H2 6409   6.124   0.509   2.961
 2156TIP3   OH2 6410   6.610   1.063   2.718
 2156TIP3    H1 6411   6.595   1.143   2.771
 2156TIP3    H2 6412   6.592   0.990   2.780
 2157TIP3   OH2 6413   6.221   0.982   3.264
 2157TIP3    H1 6414   6.158   1.043   3.309
 2157TIP3    H2 6415   6.158   0.928   3.212
 2158TIP3   OH2 6416   6.565   0.292   2.009
 2158TIP3    H1 6417   6.623   0.348   2.066
 2158TIP3    H2 6418   6.597   0.315   1.921
 2159TIP3   OH2 6419   5.968   0.545   3.367
 2159TIP3    H1 6420   5.971   0.633   3.410
 2159TIP3    H2 6421   5.874   0.522   3.380
 2160TIP3   OH2 6422   6.301   0.988   2.270
 2160TIP3    H1 6423   6.382   1.042   2.276
 2160TIP3    H2 6424   6.240   1.048   2.225
 2161TIP3   OH2 6425   6.014   1.146   3.352
 2161TIP3    H1 6426   5.979   1.150   3.260
 2161TIP3    H2 6427   5.933   1.124   3.403
 2162TIP3   OH2 6428   5.819   0.294   2.371
 2162TIP3    H1 6429   5.744   0.342   2.328
 2162TIP3    H2 6430   5.774   0.219   2.410
 2163TIP3   OH2 6431   6.802   0.942   1.649
 2163TIP3    H1 6432   6.835   1.031   1.625
 2163TIP3    H2 6433   6.874   0.886   1.617
 2164TIP3   OH2 6434   5.592   0.682   3.298
 2164TIP3    H1 6435   5.528   0.661   3.228
 2164TIP3    H2 6436   5.631   0.594   3.318
 2165TIP3   OH2 6437   5.447   0.871   2.933
 2165TIP3    H1 6438   5.544   0.873   2.924
 2165TIP3    H2 6439   5.431   0.953   2.984
 2166TIP3   OH2 6440   7.316   1.332   2.991
 2166TIP3    H1 6441   7.316   1.235   3.004
 2166TIP3    H2 6442   7.231   1.356   3.034
 2167TIP3   OH2 6443   6.417   1.110   3.122
 2167TIP3    H1 6444   6.412   1.203   3.154
 2167TIP3    H2 6445   6.345   1.069   3.175
 2168TIP3   OH2 6446   6.184   1.237   2.077
 2168TIP3    H1 6447   6.138   1.219   1.992
 2168TIP3    H2 6448   6.148   1.324   2.102
 2169TIP3   OH2 6449   5.618   1.087   2.459
 2169TIP3    H1 6450   5.664   1.078   2.545
 2169TIP3    H2 6451   5.564   1.006   2.459
 2170TIP3   OH2 6452   6.377   1.147   1.716
 2170TIP3    H1 6453   6.432   1.072   1.685
 2170TIP3    H2 6454   6.410   1.159   1.807
 2171TIP3   OH2 6455   6.433   1.191   1.982
 2171TIP3    H1 6456   6.344   1.200   2.023
 2171TIP3    H2 6457   6.484   1.155   2.056
 2172TIP3   OH2 6458   7.191   0.441   3.262
 2172TIP3    H1 6459   7.106   0.469   3.224
 2172TIP3    H2 6460   7.172   0.348   3.278
 2173TIP3   OH2 6461   5.797   0.864   3.280
 2173TIP3    H1 6462   5.845   0.849   3.364
 2173TIP3    H2 6463   5.723   0.801   3.288
 2174TIP3   OH2 6464   7.042   0.205   3.113
 2174TIP3    H1 6465   6.992   0.222   3.196
 2174TIP3    H2 6466   7.010   0.279   3.060
 2175TIP3   OH2 6467   6.147   0.210   3.105
 2175TIP3    H1 6468   6.086   0.227   3.179
 2175TIP3    H2 6469   6.132   0.289   3.050
 2176TIP3   OH2 6470   6.011   0.092   2.612
 2176TIP3    H1 6471   5.917   0.069   2.626
 2176TIP3    H2 6472   6.026   0.061   2.520
 2177TIP3   OH2 6473   6.505   0.184   2.322
 2177TIP3    H1 6474   6.442   0.252   2.289
 2177TIP3    H2 6475   6.577   0.193   2.258
 2178TIP3   OH2 6476   6.680   0.509   3.442
 2178TIP3    H1 6477   6.642   0.426   3.477
 2178TIP3    H2 6478   6.762   0.472   3.405
 2179TIP3   OH2 6479   6.655   0.212   2.581
 2179TIP3    H1 6480   6.591   0.242   2.515
 2179TIP3    H2 6481   6.707   0.148   2.526
 2180TIP3   OH2 6482   5.947   0.236   3.297
 2180TIP3    H1 6483   5.972   0.298   3.366
 2180TIP3    H2 6484   5.931   0.154   3.346
 2181TIP3   OH2 6485   5.578  -0.158   2.429
 2181TIP3    H1 6486   5.594  -0.147   2.334
 2181TIP3    H2 6487   5.484  -0.132   2.435
 2182TIP3   OH2 6488   6.661   0.447   2.996
 2182TIP3    H1 6489   6.699   0.377   2.938
 2182TIP3    H2 6490   6.642   0.393   3.076
 2183TIP3   OH2 6491   5.759  -0.029   2.650
 2183TIP3    H1 6492   5.666   0.003   2.634
 2183TIP3    H2 6493   5.751  -0.116   2.610
 2184TIP3   OH2 6494   6.045  -0.015   2.360
 2184TIP3    H1 6495   6.128  -0.048   2.320
 2184TIP3    H2 6496   5.985  -0.029   2.284
 2185TIP3   OH2 6497   5.855  -0.046   2.140
 2185TIP3    H1 6498   5.756  -0.055   2.142
 2185TIP3    H2 6499   5.864   0.025   2.074
 2186TIP3   OH2 6500   7.007   1.675   3.088
 2186TIP3    H1 6501   7.002   1.699   2.993
 2186TIP3    H2 6502   7.086   1.724   3.116
 2187TIP3   OH2 6503   5.958   0.788   3.507
 2187TIP3    H1 6504   6.039   0.816   3.555
 2187TIP3    H2 6505   5.893   0.789   3.580
 2188TIP3   OH2 6506   6.414   0.239   2.754
 2188TIP3    H1 6507   6.501   0.206   2.725
 2188TIP3    H2 6508   6.415   0.213   2.849
 2189TIP3   OH2 6509   6.424   0.181   3.017
 2189TIP3    H1 6510   6.336   0.169   3.060
 2189TIP3    H2 6511   6.481   0.207   3.092
 2190TIP3   OH2 6512   6.133   0.523   2.146
 2190TIP3    H1 6513   6.054   0.467   2.133
 2190TIP3    H2 6514   6.114   0.559   2.237
 2191TIP3   OH2 6515   7.031   0.764   2.772
 2191TIP3    H1 6516   7.053   0.815   2.692
 2191TIP3    H2 6517   6.947   0.721   2.747
 2192TIP3   OH2 6518   6.532   0.846   3.142
 2192TIP3    H1 6519   6.568   0.827   3.230
 2192TIP3    H2 6520   6.496   0.935   3.152
 2193TIP3   OH2 6521   5.829   0.546   2.817
 2193TIP3    H1 6522   5.868   0.519   2.732
 2193TIP3    H2 6523   5.878   0.491   2.880
 2194TIP3   OH2 6524   6.287   0.682   1.987
 2194TIP3    H1 6525   6.237   0.767   1.988
 2194TIP3    H2 6526   6.230   0.627   2.046
 2195TIP3   OH2 6527   5.709   0.467   3.437
 2195TIP3    H1 6528   5.723   0.448   3.532
 2195TIP3    H2 6529   5.637   0.406   3.414
 2196TIP3   OH2 6530   6.419   0.595   3.469
 2196TIP3    H1 6531   6.364   0.536   3.414
 2196TIP3    H2 6532   6.510   0.569   3.441
 2197TIP3   OH2 6533   6.693   1.107   3.041
 2197TIP3    H1 6534   6.596   1.104   3.054
 2197TIP3    H2 6535   6.720   1.159   3.119
 2198TIP3   OH2 6536   7.327   1.045   3.023
 2198TIP3    H1 6537   7.230   1.033   3.015
 2198TIP3    H2 6538   7.356   1.013   2.935
 2199TIP3   OH2 6539   6.794   1.012   1.920
 2199TIP3    H1 6540   6.772   0.953   1.994
 2199TIP3    H2 6541   6.789   0.954   1.842
 2200TIP3   OH2 6542   6.798   0.630   2.684
 2200TIP3    H1 6543   6.705   0.603   2.702
 2200TIP3    H2 6544   6.833   0.548   2.645
 2201TIP3   OH2 6545   5.932   0.855   2.447
 2201TIP3    H1 6546   5.928   0.936   2.392
 2201TIP3    H2 6547   5.838   0.839   2.461
 2202TIP3   OH2 6548   5.494   0.160   2.165
 2202TIP3    H1 6549   5.536   0.248   2.183
 2202TIP3    H2 6550   5.414   0.166   2.222
 2203TIP3   OH2 6551   6.057   0.616   2.386
 2203TIP3    H1 6552   6.026   0.707   2.406
 2203TIP3    H2 6553   6.025   0.568   2.464
 2204TIP3   OH2 6554   6.201   1.196   2.914
 2204TIP3    H1 6555   6.243   1.268   2.864
 2204TIP3    H2 6556   6.278   1.158   2.960
 2205TIP3   OH2 6557   5.849   1.091   2.299
 2205TIP3    H1 6558   5.763   1.101   2.344
 2205TIP3    H2 6559   5.882   1.184   2.301
 2206TIP3   OH2 6560   6.583   0.831   2.876
 2206TIP3    H1 6561   6.571   0.830   2.973
 2206TIP3    H2 6562   6.663   0.777   2.866
 2207TIP3   OH2 6563   6.531   0.709   1.798
 2207TIP3    H1 6564   6.576   0.711   1.886
 2207TIP3    H2 6565   6.438   0.716   1.824
 2208TIP3   OH2 6566   6.835   1.361   2.924
 2208TIP3    H1 6567   6.755   1.305   2.920
 2208TIP3    H2 6568   6.818   1.425   2.851
 2209TIP3   OH2 6569   6.890   1.193   1.574
 2209TIP3    H1 6570   6.912   1.257   1.504
 2209TIP3    H2 6571   6.817   1.243   1.616
 2210TIP3   OH2 6572   6.697   0.668   2.009
 2210TIP3    H1 6573   6.694   0.593   2.072
 2210TIP3    H2 6574   6.794   0.684   2.006
 2211TIP3   OH2 6575   5.639   1.057   3.071
 2211TIP3    H1 6576   5.694   0.988   3.111
 2211TIP3    H2 6577   5.662   1.134   3.125
 2212TIP3   OH2 6578   5.934   0.711   1.761
 2212TIP3    H1 6579   5.927   0.626   1.715
 2212TIP3    H2 6580   5.905   0.688   1.852
 2213TIP3   OH2 6581   5.869   0.707   2.035
 2213TIP3    H1 6582   5.943   0.690   2.094
 2213TIP3    H2 6583   5.868   0.805   2.033
 2214TIP3   OH2 6584   5.604   0.406   2.239
 2214TIP3    H1 6585   5.537   0.452   2.293
 2214TIP3    H2 6586   5.615   0.472   2.167
 2215TIP3   OH2 6587   6.140   0.905   1.984
 2215TIP3    H1 6588   6.052   0.932   2.018
 2215TIP3    H2 6589   6.148   0.965   1.908
 2216TIP3   OH2 6590   6.388  -0.030   2.439
 2216TIP3    H1 6591   6.423   0.048   2.391
 2216TIP3    H2 6592   6.341   0.011   2.513
 2217TIP3   OH2 6593   6.615   0.283   3.214
 2217TIP3    H1 6594   6.574   0.306   3.299
 2217TIP3    H2 6595   6.708   0.270   3.245
 2218TIP3   OH2 6596   5.884   0.979   2.048
 2218TIP3    H1 6597   5.854   1.049   1.985
 2218TIP3    H2 6598   5.868   1.023   2.134
 2219TIP3   OH2 6599   6.885   0.386   2.574
 2219TIP3    H1 6600   6.809   0.329   2.592
 2219TIP3    H2 6601   6.958   0.339   2.620
 2220TIP3   OH2 6602   5.596   0.609   2.042
 2220TIP3    H1 6603   5.668   0.675   2.046
 2220TIP3    H2 6604   5.636   0.548   1.976
 2221TIP3   OH2 6605   5.593  -0.091   2.158
 2221TIP3    H1 6606   5.550  -0.002   2.159
 2221TIP3    H2 6607   5.523  -0.146   2.119
 2222TIP3   OH2 6608   6.855   1.341   2.516
 2222TIP3    H1 6609   6.812   1.387   2.441
 2222TIP3    H2 6610   6.950   1.360   2.496
 2223TIP3   OH2 6611   5.463   0.820   2.421
 2223TIP3    H1 6612   5.403   0.853   2.489
 2223TIP3    H2 6613   5.428   0.866   2.341
 2224TIP3   OH2 6614   5.631   1.376   3.496
 2224TIP3    H1 6615   5.717   1.376   3.544
 2224TIP3    H2 6616   5.610   1.281   3.496
 2225TIP3   OH2 6617   6.106   1.324   3.544
 2225TIP3    H1 6618   6.201   1.307   3.547
 2225TIP3    H2 6619   6.078   1.264   3.471
 2226TIP3   OH2 6620   6.083   0.923   1.686
 2226TIP3    H1 6621   6.033   0.844   1.715
 2226TIP3    H2 6622   6.152   0.882   1.629
 2227TIP3   OH2 6623   6.744   1.240   3.277
 2227TIP3    H1 6624   6.739   1.169   3.346
 2227TIP3    H2 6625   6.823   1.290   3.306
 2228TIP3   OH2 6626   6.536   0.960   1.585
 2228TIP3    H1 6627   6.616   0.935   1.637
 2228TIP3    H2 6628   6.575   1.026   1.525
 2229TIP3   OH2 6629   5.757   0.774   3.698
 2229TIP3    H1 6630   5.770   0.678   3.701
 2229TIP3    H2 6631   5.670   0.781   3.652
 2230TIP3   OH2 6632   5.731   0.417   1.910
 2230TIP3    H1 6633   5.796   0.397   1.980
 2230TIP3    H2 6634   5.790   0.425   1.832
 2231TIP3   OH2 6635   6.361   0.869   3.472
 2231TIP3    H1 6636   6.321   0.889   3.385
 2231TIP3    H2 6637   6.386   0.774   3.463
 2232TIP3   OH2 6638   6.258   0.631   1.711
 2232TIP3    H1 6639   6.244   0.637   1.807
 2232TIP3    H2 6640   6.182   0.580   1.679
 2233TIP3   OH2 6641   6.858   0.875   3.083
 2233TIP3    H1 6642   6.935   0.916   3.039
 2233TIP3    H2 6643   6.789   0.942   3.064
 2234TIP3   OH2 6644   5.882   0.512   3.682
 2234TIP3    H1 6645   5.966   0.476   3.649
 2234TIP3    H2 6646   5.910   0.553   3.766
 2235TIP3   OH2 6647   5.936   0.327   2.118
 2235TIP3    H1 6648   5.905   0.312   2.210
 2235TIP3    H2 6649   6.001   0.257   2.107
 2236TIP3   OH2 6650   6.210   0.421   3.341
 2236TIP3    H1 6651   6.128   0.475   3.334
 2236TIP3    H2 6652   6.260   0.449   3.260
 2237TIP3   OH2 6653   6.734   0.796   3.468
 2237TIP3    H1 6654   6.815   0.768   3.424
 2237TIP3    H2 6655   6.704   0.711   3.505
 2238TIP3   OH2 6656   6.285   0.196   3.464
 2238TIP3    H1 6657   6.242   0.134   3.401
 2238TIP3    H2 6658   6.264   0.281   3.419
 2239TIP3   OH2 6659   6.372   0.511   3.147
 2239TIP3    H1 6660   6.456   0.513   3.099
 2239TIP3    H2 6661   6.317   0.574   3.096
 2240TIP3   OH2 6662   6.973   0.532   3.541
 2240TIP3    H1 6663   6.960   0.436   3.523
 2240TIP3    H2 6664   7.010   0.560   3.457
 2241TIP3   OH2 6665   6.990   0.724   3.268
 2241TIP3    H1 6666   6.930   0.776   3.210
 2241TIP3    H2 6667   7.076   0.746   3.227
 2242TIP3   OH2 6668   6.181   0.310   3.699
 2242TIP3    H1 6669   6.143   0.222   3.706
 2242TIP3    H2 6670   6.243   0.295   3.624
 2243TIP3   OH2 6671   6.556   0.278   3.504
 2243TIP3    H1 6672   6.611   0.232   3.570
 2243TIP3    H2 6673   6.467   0.244   3.526
 2244TIP3   OH2 6674   5.852   1.182   1.862
 2244TIP3    H1 6675   5.948   1.180   1.845
 2244TIP3    H2 6676   5.823   1.234   1.784
 2245TIP3   OH2 6677   5.330   0.571   2.084
 2245TIP3    H1 6678   5.423   0.593   2.064
 2245TIP3    H2 6679   5.321   0.484   2.039
 2246TIP3   OH2 6680   5.251   1.177   2.492
 2246TIP3    H1 6681   5.184   1.117   2.451
 2246TIP3    H2 6682   5.294   1.116   2.555
 2247TIP3   OH2 6683   5.385   1.020   2.676
 2247TIP3    H1 6684   5.368   0.954   2.745
 2247TIP3    H2 6685   5.437   1.085   2.727
 2248TIP3   OH2 6686   7.112   1.422   2.480
 2248TIP3    H1 6687   7.138   1.461   2.566
 2248TIP3    H2 6688   7.178   1.461   2.419
 2249TIP3   OH2 6689   7.136   1.449   2.762
 2249TIP3    H1 6690   7.091   1.362   2.757
 2249TIP3    H2 6691   7.215   1.424   2.812
 2250TIP3   OH2 6692   7.186   1.125   3.335
 2250TIP3    H1 6693   7.114   1.134   3.400
 2250TIP3    H2 6694   7.226   1.214   3.338
 2251TIP3   OH2 6695   6.965   0.685   1.990
 2251TIP3    H1 6696   7.024   0.762   1.973
 2251TIP3    H2 6697   7.025   0.631   2.046
 2252TIP3   OH2 6698   7.122   0.522   2.152
 2252TIP3    H1 6699   7.054   0.463   2.193
 2252TIP3    H2 6700   7.173   0.548   2.229
 2253TIP3   OH2 6701   7.186   0.902   2.587
 2253TIP3    H1 6702   7.230   0.836   2.531
 2253TIP3    H2 6703   7.182   0.980   2.528
 2254TIP3   OH2 6704   7.012   1.198   2.780
 2254TIP3    H1 6705   6.940   1.241   2.832
 2254TIP3    H2 6706   6.962   1.153   2.709
 2255TIP3   OH2 6707   6.945   0.371   2.306
 2255TIP3    H1 6708   6.952   0.275   2.309
 2255TIP3    H2 6709   6.927   0.391   2.401
 2256TIP3   OH2 6710   5.566   0.438   3.050
 2256TIP3    H1 6711   5.562   0.406   2.958
 2256TIP3    H2 6712   5.664   0.439   3.065
 2257TIP3   OH2 6713   7.235   0.790   3.158
 2257TIP3    H1 6714   7.304   0.720   3.148
 2257TIP3    H2 6715   7.260   0.853   3.089
 2258TIP3   OH2 6716   7.408   0.581   3.173
 2258TIP3    H1 6717   7.332   0.528   3.207
 2258TIP3    H2 6718   7.482   0.520   3.192
 2259TIP3   OH2 6719   7.098   0.259   2.692
 2259TIP3    H1 6720   7.181   0.285   2.647
 2259TIP3    H2 6721   7.115   0.294   2.782
 2260TIP3   OH2 6722   7.162   0.405   2.918
 2260TIP3    H1 6723   7.090   0.448   2.970
 2260TIP3    H2 6724   7.201   0.482   2.872
 2261TIP3   OH2 6725   5.796   0.117   3.729
 2261TIP3    H1 6726   5.864   0.076   3.673
 2261TIP3    H2 6727   5.752   0.038   3.765
 2262TIP3   OH2 6728   5.547   0.089   3.122
 2262TIP3    H1 6729   5.593   0.093   3.035
 2262TIP3    H2 6730   5.583   0.167   3.166
 2263TIP3   OH2 6731   6.695   1.297   2.135
 2263TIP3    H1 6732   6.748   1.292   2.053
 2263TIP3    H2 6733   6.743   1.365   2.186
 2264TIP3   OH2 6734   5.793   1.100   3.515
 2264TIP3    H1 6735   5.699   1.079   3.500
 2264TIP3    H2 6736   5.801   1.086   3.610
 2265TIP3   OH2 6737   5.976   1.137   3.066
 2265TIP3    H1 6738   5.927   1.213   3.027
 2265TIP3    H2 6739   6.061   1.151   3.019
 2266TIP3   OH2 6740   6.412   1.377   3.203
 2266TIP3    H1 6741   6.455   1.375   3.291
 2266TIP3    H2 6742   6.478   1.429   3.151
 2267TIP3   OH2 6743   6.592   1.532   3.066
 2267TIP3    H1 6744   6.661   1.481   3.020
 2267TIP3    H2 6745   6.646   1.588   3.125
 2268TIP3   OH2 6746   5.647   1.388   3.092
 2268TIP3    H1 6747   5.557   1.418   3.068
 2268TIP3    H2 6748   5.661   1.438   3.173
 2269TIP3   OH2 6749   5.884   1.370   2.950
 2269TIP3    H1 6750   5.796   1.381   2.992
 2269TIP3    H2 6751   5.866   1.401   2.859
 2270TIP3   OH2 6752   6.309   1.394   2.747
 2270TIP3    H1 6753   6.240   1.411   2.681
 2270TIP3    H2 6754   6.321   1.483   2.787
 2271TIP3   OH2 6755   6.579   1.334   2.800
 2271TIP3    H1 6756   6.485   1.352   2.779
 2271TIP3    H2 6757   6.624   1.405   2.752
 2272TIP3   OH2 6758   6.783   1.524   2.709
 2272TIP3    H1 6759   6.770   1.609   2.662
 2272TIP3    H2 6760   6.810   1.464   2.636
 2273TIP3   OH2 6761   5.560   1.182   2.830
 2273TIP3    H1 6762   5.585   1.153   2.921
 2273TIP3    H2 6763   5.633   1.139   2.780
 2274TIP3   OH2 6764   5.756   1.055   2.693
 2274TIP3    H1 6765   5.771   0.971   2.743
 2274TIP3    H2 6766   5.847   1.091   2.690
 2275TIP3   OH2 6767   6.023   1.146   2.700
 2275TIP3    H1 6768   6.052   1.053   2.690
 2275TIP3    H2 6769   6.072   1.170   2.781
 2276TIP3   OH2 6770   5.347   0.962   2.222
 2276TIP3    H1 6771   5.261   0.928   2.190
 2276TIP3    H2 6772   5.339   1.055   2.194
 2277TIP3   OH2 6773   6.119   1.155   1.814
 2277TIP3    H1 6774   6.206   1.176   1.774
 2277TIP3    H2 6775   6.095   1.079   1.757
 2278TIP3   OH2 6776   6.846   1.276   1.904
 2278TIP3    H1 6777   6.832   1.178   1.909
 2278TIP3    H2 6778   6.794   1.299   1.824
 2279TIP3   OH2 6779   5.424   0.978   1.859
 2279TIP3    H1 6780   5.429   0.998   1.953
 2279TIP3    H2 6781   5.510   0.932   1.842
 2280TIP3   OH2 6782   7.065   1.405   3.086
 2280TIP3    H1 6783   6.987   1.374   3.035
 2280TIP3    H2 6784   7.044   1.500   3.092
 2281TIP3   OH2 6785   7.579   1.072   2.355
 2281TIP3    H1 6786   7.542   1.001   2.301
 2281TIP3    H2 6787   7.673   1.069   2.331
 2282TIP3   OH2 6788   7.391   0.574   2.282
 2282TIP3    H1 6789   7.417   0.481   2.276
 2282TIP3    H2 6790   7.383   0.600   2.189
 2283TIP3   OH2 6791   7.172   0.855   1.949
 2283TIP3    H1 6792   7.216   0.810   1.873
 2283TIP3    H2 6793   7.213   0.944   1.944
 2284TIP3   OH2 6794   7.757   1.452   2.819
 2284TIP3    H1 6795   7.728   1.435   2.729
 2284TIP3    H2 6796   7.677   1.436   2.873
 2285TIP3   OH2 6797   7.395   0.944   2.779
 2285TIP3    H1 6798   7.321   0.917   2.722
 2285TIP3    H2 6799   7.427   0.859   2.817
 2286TIP3   OH2 6800   7.249   1.132   2.421
 2286TIP3    H1 6801   7.346   1.143   2.426
 2286TIP3    H2 6802   7.220   1.211   2.471
 2287TIP3   OH2 6803   7.408   1.349   1.939
 2287TIP3    H1 6804   7.458   1.340   2.023
 2287TIP3    H2 6805   7.369   1.259   1.933
 2288TIP3   OH2 6806   7.603   1.121   2.751
 2288TIP3    H1 6807   7.650   1.088   2.830
 2288TIP3    H2 6808   7.524   1.063   2.755
 2289TIP3   OH2 6809   7.735   1.011   2.962
 2289TIP3    H1 6810   7.797   1.086   2.974
 2289TIP3    H2 6811   7.693   1.007   3.050
 2290TIP3   OH2 6812   7.486   0.733   2.924
 2290TIP3    H1 6813   7.532   0.728   3.010
 2290TIP3    H2 6814   7.431   0.654   2.926
 2291TIP3   OH2 6815   7.435   1.315   2.561
 2291TIP3    H1 6816   7.492   1.250   2.607
 2291TIP3    H2 6817   7.462   1.399   2.601
 2292TIP3   OH2 6818   7.260   1.114   1.917
 2292TIP3    H1 6819   7.196   1.150   1.980
 2292TIP3    H2 6820   7.223   1.143   1.830
 2293TIP3   OH2 6821   7.423   1.625   2.985
 2293TIP3    H1 6822   7.511   1.618   3.026
 2293TIP3    H2 6823   7.395   1.532   2.984
 2294TIP3   OH2 6824   7.550   1.030   3.189
 2294TIP3    H1 6825   7.567   0.934   3.190
 2294TIP3    H2 6826   7.466   1.034   3.138
 2295TIP3   OH2 6827   7.660   0.771   3.169
 2295TIP3    H1 6828   7.721   0.699   3.152
 2295TIP3    H2 6829   7.690   0.801   3.257
 2296TIP3   OH2 6830   7.053   1.439   1.978
 2296TIP3    H1 6831   6.983   1.381   1.939
 2296TIP3    H2 6832   7.093   1.378   2.044
 2297TIP3   OH2 6833   7.173   1.279   2.167
 2297TIP3    H1 6834   7.165   1.210   2.235
 2297TIP3    H2 6835   7.229   1.343   2.214
 2298TIP3   OH2 6836   7.373   0.691   2.532
 2298TIP3    H1 6837   7.371   0.648   2.444
 2298TIP3    H2 6838   7.463   0.725   2.535
 2299TIP3   OH2 6839   7.582   0.376   3.221
 2299TIP3    H1 6840   7.675   0.351   3.220
 2299TIP3    H2 6841   7.541   0.292   3.250
 2300TIP3   OH2 6842   7.340   0.349   2.590
 2300TIP3    H1 6843   7.428   0.333   2.555
 2300TIP3    H2 6844   7.355   0.423   2.651
 2301TIP3   OH2 6845   7.591   1.356   3.015
 2301TIP3    H1 6846   7.501   1.327   2.991
 2301TIP3    H2 6847   7.596   1.327   3.107
 2302TIP3   OH2 6848   7.437   1.630   2.583
 2302TIP3    H1 6849   7.350   1.667   2.558
 2302TIP3    H2 6850   7.462   1.692   2.653
 2303TIP3   OH2 6851   7.694   1.619   2.445
 2303TIP3    H1 6852   7.604   1.624   2.482
 2303TIP3    H2 6853   7.679   1.655   2.355
 2304TIP3   OH2 6854   7.347   1.443   2.321
 2304TIP3    H1 6855   7.379   1.421   2.411
 2304TIP3    H2 6856   7.420   1.402   2.269
 2305TIP3   OH2 6857   7.534   1.307   2.181
 2305TIP3    H1 6858   7.542   1.221   2.223
 2305TIP3    H2 6859   7.627   1.322   2.151
 2306TIP3   OH2 6860   7.146   1.216   1.692
 2306TIP3    H1 6861   7.058   1.179   1.669
 2306TIP3    H2 6862   7.128   1.311   1.675
 2307TIP3   OH2 6863   7.221   1.268   1.374
 2307TIP3    H1 6864   7.196   1.283   1.466
 2307TIP3    H2 6865   7.274   1.186   1.378
 2308TIP3   OH2 6866   0.786   1.578   3.540
 2308TIP3    H1 6867   0.754   1.665   3.507
 2308TIP3    H2 6868   0.706   1.546   3.583
 2309TIP3   OH2 6869   0.779   1.567   3.934
 2309TIP3    H1 6870   0.821   1.550   4.021
 2309TIP3    H2 6871   0.746   1.478   3.913
 2310TIP3   OH2 6872   0.087   1.458   4.293
 2310TIP3    H1 6873   0.119   1.393   4.359
 2310TIP3    H2 6874   0.159   1.522   4.296
 2311TIP3   OH2 6875   1.029   1.871   3.610
 2311TIP3    H1 6876   1.017   1.800   3.674
 2311TIP3    H2 6877   1.062   1.944   3.665
 2312TIP3   OH2 6878   0.086   1.872   4.033
 2312TIP3    H1 6879   0.066   1.776   4.029
 2312TIP3    H2 6880   0.175   1.873   3.991
 2313TIP3   OH2 6881   0.679   2.328   3.628
 2313TIP3    H1 6882   0.718   2.260   3.568
 2313TIP3    H2 6883   0.682   2.283   3.713
 2314TIP3   OH2 6884   0.581   1.796   3.973
 2314TIP3    H1 6885   0.622   1.717   3.935
 2314TIP3    H2 6886   0.664   1.844   3.997
 2315TIP3   OH2 6887   1.599   1.112   3.972
 2315TIP3    H1 6888   1.628   1.195   4.014
 2315TIP3    H2 6889   1.620   1.129   3.878
 2316TIP3   OH2 6890   0.998   1.295   4.001
 2316TIP3    H1 6891   1.038   1.208   4.021
 2316TIP3    H2 6892   0.959   1.277   3.913
 2317TIP3   OH2 6893   1.022   1.055   3.605
 2317TIP3    H1 6894   1.101   1.034   3.660
 2317TIP3    H2 6895   1.063   1.074   3.519
 2318TIP3   OH2 6896   0.413   1.345   3.866
 2318TIP3    H1 6897   0.510   1.346   3.884
 2318TIP3    H2 6898   0.400   1.250   3.859
 2319TIP3   OH2 6899   1.672   1.322   4.140
 2319TIP3    H1 6900   1.585   1.366   4.124
 2319TIP3    H2 6901   1.694   1.358   4.228
 2320TIP3   OH2 6902   0.355   0.929   4.396
 2320TIP3    H1 6903   0.297   0.968   4.327
 2320TIP3    H2 6904   0.294   0.922   4.471
 2321TIP3   OH2 6905   0.652   1.784   3.416
 2321TIP3    H1 6906   0.655   1.793   3.320
 2321TIP3    H2 6907   0.612   1.869   3.443
 2322TIP3   OH2 6908   0.437   1.714   4.193
 2322TIP3    H1 6909   0.388   1.785   4.238
 2322TIP3    H2 6910   0.484   1.763   4.122
 2323TIP3   OH2 6911   1.239   1.047   3.770
 2323TIP3    H1 6912   1.211   1.010   3.855
 2323TIP3    H2 6913   1.287   1.127   3.798
 2324TIP3   OH2 6914   0.204   1.040   4.202
 2324TIP3    H1 6915   0.257   1.122   4.208
 2324TIP3    H2 6916   0.221   1.011   4.112
 2325TIP3   OH2 6917   0.258   1.910   4.289
 2325TIP3    H1 6918   0.199   1.899   4.212
 2325TIP3    H2 6919   0.192   1.898   4.362
 2326TIP3   OH2 6920   1.092   2.116   3.772
 2326TIP3    H1 6921   1.002   2.108   3.810
 2326TIP3    H2 6922   1.085   2.202   3.725
 2327TIP3   OH2 6923   1.391   1.010   4.137
 2327TIP3    H1 6924   1.304   1.036   4.103
 2327TIP3    H2 6925   1.451   1.043   4.066
 2328TIP3   OH2 6926   0.704   0.673   4.126
 2328TIP3    H1 6927   0.674   0.582   4.116
 2328TIP3    H2 6928   0.620   0.715   4.155
 2329TIP3   OH2 6929   0.790   2.159   3.439
 2329TIP3    H1 6930   0.839   2.075   3.421
 2329TIP3    H2 6931   0.856   2.223   3.403
 2330TIP3   OH2 6932   0.930   1.940   3.360
 2330TIP3    H1 6933   0.946   1.864   3.301
 2330TIP3    H2 6934   0.969   1.907   3.445
 2331TIP3   OH2 6935   1.322   2.023   4.115
 2331TIP3    H1 6936   1.310   1.945   4.057
 2331TIP3    H2 6937   1.305   2.097   4.052
 2332TIP3   OH2 6938   1.516   1.664   3.963
 2332TIP3    H1 6939   1.432   1.715   3.966
 2332TIP3    H2 6940   1.547   1.687   3.873
 2333TIP3   OH2 6941   0.963   1.504   3.344
 2333TIP3    H1 6942   0.906   1.527   3.421
 2333TIP3    H2 6943   1.046   1.478   3.389
 2334TIP3   OH2 6944   1.196   1.537   4.263
 2334TIP3    H1 6945   1.192   1.619   4.316
 2334TIP3    H2 6946   1.110   1.542   4.217
 2335TIP3   OH2 6947   0.193   1.491   3.762
 2335TIP3    H1 6948   0.171   1.444   3.680
 2335TIP3    H2 6949   0.272   1.442   3.793
 2336TIP3   OH2 6950   0.326   1.897   3.904
 2336TIP3    H1 6951   0.318   1.865   3.813
 2336TIP3    H2 6952   0.415   1.864   3.928
 2337TIP3   OH2 6953   0.325   1.477   4.106
 2337TIP3    H1 6954   0.368   1.452   4.022
 2337TIP3    H2 6955   0.374   1.558   4.133
 2338TIP3   OH2 6956   0.851   2.112   3.897
 2338TIP3    H1 6957   0.845   2.186   3.959
 2338TIP3    H2 6958   0.839   2.034   3.955
 2339TIP3   OH2 6959   0.470   2.031   4.436
 2339TIP3    H1 6960   0.416   2.090   4.493
 2339TIP3    H2 6961   0.400   1.984   4.386
 2340TIP3   OH2 6962   0.237   1.602   4.518
 2340TIP3    H1 6963   0.240   1.681   4.575
 2340TIP3    H2 6964   0.151   1.563   4.544
 2341TIP3   OH2 6965   0.542   2.044   3.442
 2341TIP3    H1 6966   0.630   2.086   3.449
 2341TIP3    H2 6967   0.489   2.116   3.405
 2342TIP3   OH2 6968   0.252   2.186   4.534
 2342TIP3    H1 6969   0.197   2.142   4.468
 2342TIP3    H2 6970   0.188   2.184   4.610
 2343TIP3   OH2 6971   1.128   1.975   2.777
 2343TIP3    H1 6972   1.131   2.071   2.757
 2343TIP3    H2 6973   1.221   1.949   2.759
 2344TIP3   OH2 6974  -0.135   1.713   4.456
 2344TIP3    H1 6975  -0.210   1.674   4.409
 2344TIP3    H2 6976  -0.106   1.638   4.510
 2345TIP3   OH2 6977  -0.288   1.950   4.075
 2345TIP3    H1 6978  -0.213   1.889   4.091
 2345TIP3    H2 6979  -0.319   1.966   4.166
 2346TIP3   OH2 6980   1.558   2.366   4.167
 2346TIP3    H1 6981   1.563   2.269   4.177
 2346TIP3    H2 6982   1.478   2.385   4.218
 2347TIP3   OH2 6983   0.665   2.156   4.292
 2347TIP3    H1 6984   0.662   2.248   4.326
 2347TIP3    H2 6985   0.595   2.113   4.347
 2348TIP3   OH2 6986   0.431   2.275   3.263
 2348TIP3    H1 6987   0.394   2.260   3.173
 2348TIP3    H2 6988   0.399   2.365   3.283
 2349TIP3   OH2 6989  -0.140   2.140   3.632
 2349TIP3    H1 6990  -0.117   2.109   3.722
 2349TIP3    H2 6991  -0.189   2.061   3.597
 2350TIP3   OH2 6992   0.630   2.173   2.895
 2350TIP3    H1 6993   0.693   2.108   2.856
 2350TIP3    H2 6994   0.669   2.188   2.984
 2351TIP3   OH2 6995   0.683   2.237   3.163
 2351TIP3    H1 6996   0.595   2.243   3.205
 2351TIP3    H2 6997   0.735   2.199   3.236
 2352TIP3   OH2 6998   1.448   1.498   4.439
 2352TIP3    H1 6999   1.364   1.506   4.393
 2352TIP3    H2 7000   1.466   1.402   4.431
 2353TIP3   OH2 7001   0.043   1.921   4.461
 2353TIP3    H1 7002   0.095   1.899   4.541
 2353TIP3    H2 7003  -0.023   1.848   4.462
 2354TIP3   OH2 7004   0.451   0.748   4.206
 2354TIP3    H1 7005   0.370   0.694   4.201
 2354TIP3    H2 7006   0.428   0.811   4.277
 2355TIP3   OH2 7007   1.019   0.848   4.428
 2355TIP3    H1 7008   1.083   0.819   4.497
 2355TIP3    H2 7009   0.933   0.834   4.473
 2356TIP3   OH2 7010   1.215   1.275   4.363
 2356TIP3    H1 7011   1.166   1.272   4.448
 2356TIP3    H2 7012   1.192   1.363   4.327
 2357TIP3   OH2 7013   0.373   1.252   4.253
 2357TIP3    H1 7014   0.337   1.277   4.340
 2357TIP3    H2 7015   0.357   1.334   4.202
 2358TIP3   OH2 7016   0.770   1.252   3.497
 2358TIP3    H1 7017   0.686   1.275   3.455
 2358TIP3    H2 7018   0.831   1.257   3.422
 2359TIP3   OH2 7019   0.926   1.493   4.592
 2359TIP3    H1 7020   0.902   1.422   4.656
 2359TIP3    H2 7021   1.020   1.507   4.617
 2360TIP3   OH2 7022   0.906   1.255   3.745
 2360TIP3    H1 7023   0.851   1.281   3.668
 2360TIP3    H2 7024   0.944   1.172   3.707
 2361TIP3   OH2 7025   0.201   1.284   4.474
 2361TIP3    H1 7026   0.265   1.339   4.524
 2361TIP3    H2 7027   0.205   1.199   4.519
 2362TIP3   OH2 7028   0.917   1.492   4.164
 2362TIP3    H1 7029   0.952   1.420   4.105
 2362TIP3    H2 7030   0.888   1.438   4.241
 2363TIP3   OH2 7031   0.587   0.986   3.860
 2363TIP3    H1 7032   0.528   0.915   3.890
 2363TIP3    H2 7033   0.674   0.954   3.891
 2364TIP3   OH2 7034   1.080   1.031   4.042
 2364TIP3    H1 7035   1.049   1.046   4.134
 2364TIP3    H2 7036   1.010   0.972   4.008
 2365TIP3   OH2 7037   0.204   1.837   4.672
 2365TIP3    H1 7038   0.286   1.855   4.722
 2365TIP3    H2 7039   0.141   1.829   4.747
 2366TIP3   OH2 7040   0.672   1.298   3.942
 2366TIP3    H1 7041   0.731   1.242   3.888
 2366TIP3    H2 7042   0.669   1.248   4.026
 2367TIP3   OH2 7043   0.648   1.196   4.218
 2367TIP3    H1 7044   0.558   1.228   4.238
 2367TIP3    H2 7045   0.705   1.253   4.271
 2368TIP3   OH2 7046   1.281   1.809   3.948
 2368TIP3    H1 7047   1.306   1.858   3.867
 2368TIP3    H2 7048   1.198   1.765   3.920
 2369TIP3   OH2 7049   0.787   1.890   4.320
 2369TIP3    H1 7050   0.812   1.860   4.408
 2369TIP3    H2 7051   0.744   1.975   4.337
 2370TIP3   OH2 7052   0.076   1.599   4.000
 2370TIP3    H1 7053   0.106   1.562   3.914
 2370TIP3    H2 7054   0.127   1.543   4.061
 2371TIP3   OH2 7055   0.514   1.712   3.149
 2371TIP3    H1 7056   0.488   1.806   3.140
 2371TIP3    H2 7057   0.473   1.690   3.233
 2372TIP3   OH2 7058  -0.002   1.494   4.614
 2372TIP3    H1 7059   0.038   1.501   4.704
 2372TIP3    H2 7060  -0.097   1.489   4.638
 2373TIP3   OH2 7061   0.692   1.646   4.613
 2373TIP3    H1 7062   0.630   1.571   4.611
 2373TIP3    H2 7063   0.778   1.600   4.599
 2374TIP3   OH2 7064   0.939   2.165   4.208
 2374TIP3    H1 7065   0.844   2.152   4.226
 2374TIP3    H2 7066   0.967   2.208   4.292
 2375TIP3   OH2 7067   1.343   1.220   3.104
 2375TIP3    H1 7068   1.253   1.191   3.081
 2375TIP3    H2 7069   1.340   1.312   3.070
 2376TIP3   OH2 7070   1.572   2.086   4.201
 2376TIP3    H1 7071   1.475   2.074   4.194
 2376TIP3    H2 7072   1.599   2.053   4.113
 2377TIP3   OH2 7073   1.057   2.041   3.039
 2377TIP3    H1 7074   1.021   1.966   3.089
 2377TIP3    H2 7075   1.070   2.003   2.950
 2378TIP3   OH2 7076   1.048   1.672   3.862
 2378TIP3    H1 7077   0.956   1.645   3.877
 2378TIP3    H2 7078   1.084   1.590   3.821
 2379TIP3   OH2 7079   0.174   1.898   3.632
 2379TIP3    H1 7080   0.173   1.989   3.592
 2379TIP3    H2 7081   0.080   1.885   3.649
 2380TIP3   OH2 7082   0.337   1.675   3.605
 2380TIP3    H1 7083   0.291   1.761   3.606
 2380TIP3    H2 7084   0.282   1.620   3.662
 2381TIP3   OH2 7085   0.438   2.256   4.090
 2381TIP3    H1 7086   0.495   2.324   4.046
 2381TIP3    H2 7087   0.503   2.213   4.148
 2382TIP3   OH2 7088   0.121   2.144   3.534
 2382TIP3    H1 7089   0.025   2.158   3.541
 2382TIP3    H2 7090   0.150   2.232   3.502
 2383TIP3   OH2 7091   0.833   1.878   4.052
 2383TIP3    H1 7092   0.822   1.876   4.150
 2383TIP3    H2 7093   0.910   1.820   4.041
 2384TIP3   OH2 7094   0.832   1.792   2.952
 2384TIP3    H1 7095   0.872   1.769   3.038
 2384TIP3    H2 7096   0.745   1.750   2.959
 2385TIP3   OH2 7097   1.082   2.409   4.105
 2385TIP3    H1 7098   1.007   2.346   4.103
 2385TIP3    H2 7099   1.062   2.468   4.029
 2386TIP3   OH2 7100   1.151   2.249   2.753
 2386TIP3    H1 7101   1.187   2.323   2.701
 2386TIP3    H2 7102   1.070   2.292   2.787
 2387TIP3   OH2 7103   0.978   1.727   3.179
 2387TIP3    H1 7104   0.959   1.646   3.231
 2387TIP3    H2 7105   1.069   1.706   3.149
 2388TIP3   OH2 7106  -0.033   2.121   4.249
 2388TIP3    H1 7107  -0.019   2.048   4.312
 2388TIP3    H2 7108  -0.075   2.188   4.306
 2389TIP3   OH2 7109   1.011   1.090   4.301
 2389TIP3    H1 7110   1.091   1.134   4.335
 2389TIP3    H2 7111   1.010   1.006   4.352
 2390TIP3   OH2 7112   0.405   1.956   3.152
 2390TIP3    H1 7113   0.351   1.976   3.230
 2390TIP3    H2 7114   0.398   2.040   3.101
 2391TIP3   OH2 7115   0.847   1.332   4.373
 2391TIP3    H1 7116   0.871   1.381   4.454
 2391TIP3    H2 7117   0.897   1.249   4.383
 2392TIP3   OH2 7118   1.483   1.231   4.362
 2392TIP3    H1 7119   1.384   1.230   4.369
 2392TIP3    H2 7120   1.493   1.187   4.276
 2393TIP3   OH2 7121   1.135   1.428   3.747
 2393TIP3    H1 7122   1.058   1.369   3.759
 2393TIP3    H2 7123   1.205   1.379   3.794
 2394TIP3   OH2 7124   1.104   2.386   3.693
 2394TIP3    H1 7125   1.062   2.435   3.618
 2394TIP3    H2 7126   1.199   2.405   3.674
 2395TIP3   OH2 7127  -0.093   2.430   4.642
 2395TIP3    H1 7128  -0.017   2.441   4.702
 2395TIP3    H2 7129  -0.136   2.354   4.683
 2396TIP3   OH2 7130   0.352   2.372   4.724
 2396TIP3    H1 7131   0.447   2.355   4.737
 2396TIP3    H2 7132   0.334   2.318   4.645
 2397TIP3   OH2 7133   1.002   2.277   4.452
 2397TIP3    H1 7134   0.978   2.205   4.516
 2397TIP3    H2 7135   1.089   2.302   4.486
 2398TIP3   OH2 7136   0.785   1.988   2.759
 2398TIP3    H1 7137   0.814   1.918   2.822
 2398TIP3    H2 7138   0.856   1.984   2.692
 2399TIP3   OH2 7139  -0.000   1.816   4.864
 2399TIP3    H1 7140   0.044   1.739   4.905
 2399TIP3    H2 7141  -0.093   1.791   4.873
 2400TIP3   OH2 7142   0.622   1.913   4.649
 2400TIP3    H1 7143   0.575   1.923   4.565
 2400TIP3    H2 7144   0.652   1.819   4.644
 2401TIP3   OH2 7145   1.106   1.918   4.256
 2401TIP3    H1 7146   1.182   1.961   4.212
 2401TIP3    H2 7147   1.035   1.981   4.238
 2402TIP3   OH2 7148   0.106   1.541   4.855
 2402TIP3    H1 7149   0.203   1.558   4.843
 2402TIP3    H2 7150   0.101   1.564   4.950
 2403TIP3   OH2 7151   0.451   1.422   4.511
 2403TIP3    H1 7152   0.393   1.501   4.524
 2403TIP3    H2 7153   0.513   1.456   4.442
 2404TIP3   OH2 7154   0.983   1.844   4.645
 2404TIP3    H1 7155   1.061   1.804   4.603
 2404TIP3    H2 7156   0.971   1.784   4.721
 2405TIP3   OH2 7157   0.601   1.222   4.638
 2405TIP3    H1 7158   0.600   1.149   4.572
 2405TIP3    H2 7159   0.542   1.288   4.598
 2406TIP3   OH2 7160   0.608   1.022   4.442
 2406TIP3    H1 7161   0.629   1.062   4.355
 2406TIP3    H2 7162   0.519   0.985   4.426
 2407TIP3   OH2 7163   0.603   1.530   4.314
 2407TIP3    H1 7164   0.694   1.550   4.290
 2407TIP3    H2 7165   0.553   1.604   4.274
 2408TIP3   OH2 7166   1.195   1.508   4.697
 2408TIP3    H1 7167   1.241   1.426   4.720
 2408TIP3    H2 7168   1.268   1.562   4.663
 2409TIP3   OH2 7169   1.237   1.768   4.440
 2409TIP3    H1 7170   1.179   1.823   4.383
 2409TIP3    H2 7171   1.325   1.789   4.401
 2410TIP3   OH2 7172   0.760   0.800   4.498
 2410TIP3    H1 7173   0.711   0.883   4.478
 2410TIP3    H2 7174   0.685   0.739   4.506
 2411TIP3   OH2 7175   0.848   1.278   4.737
 2411TIP3    H1 7176   0.829   1.264   4.832
 2411TIP3    H2 7177   0.761   1.252   4.700
 2412TIP3   OH2 7178   1.082   1.227   4.591
 2412TIP3    H1 7179   1.007   1.230   4.654
 2412TIP3    H2 7180   1.156   1.197   4.649
 2413TIP3   OH2 7181   1.318   1.172   4.738
 2413TIP3    H1 7182   1.328   1.076   4.756
 2413TIP3    H2 7183   1.310   1.210   4.828
 2414TIP3   OH2 7184   0.795   0.760   4.767
 2414TIP3    H1 7185   0.875   0.703   4.769
 2414TIP3    H2 7186   0.788   0.779   4.672
 2415TIP3   OH2 7187   0.880   0.999   4.912
 2415TIP3    H1 7188   0.843   0.924   4.860
 2415TIP3    H2 7189   0.803   1.059   4.919
 2416TIP3   OH2 7190  -0.395   2.091   3.859
 2416TIP3    H1 7191  -0.375   2.016   3.917
 2416TIP3    H2 7192  -0.346   2.161   3.904
 2417TIP3   OH2 7193   1.361   2.472   3.658
 2417TIP3    H1 7194   1.389   2.514   3.741
 2417TIP3    H2 7195   1.424   2.509   3.594
 2418TIP3   OH2 7196   1.385   2.492   3.950
 2418TIP3    H1 7197   1.339   2.406   3.937
 2418TIP3    H2 7198   1.469   2.460   3.988
 2419TIP3   OH2 7199   1.428   2.176   4.510
 2419TIP3    H1 7200   1.358   2.188   4.577
 2419TIP3    H2 7201   1.476   2.261   4.516
 2420TIP3   OH2 7202   1.257   1.680   3.124
 2420TIP3    H1 7203   1.321   1.748   3.097
 2420TIP3    H2 7204   1.299   1.645   3.206
 2421TIP3   OH2 7205   1.379   1.546   3.332
 2421TIP3    H1 7206   1.312   1.507   3.392
 2421TIP3    H2 7207   1.444   1.583   3.395
 2422TIP3   OH2 7208   1.435   1.945   3.762
 2422TIP3    H1 7209   1.489   1.876   3.719
 2422TIP3    H2 7210   1.434   2.016   3.695
 2423TIP3   OH2 7211   1.260   2.242   3.955
 2423TIP3    H1 7212   1.185   2.280   4.004
 2423TIP3    H2 7213   1.215   2.195   3.882
 2424TIP3   OH2 7214   1.294   1.456   2.973
 2424TIP3    H1 7215   1.208   1.460   2.930
 2424TIP3    H2 7216   1.285   1.534   3.032
 2425TIP3   OH2 7217   1.189   1.409   3.477
 2425TIP3    H1 7218   1.181   1.312   3.468
 2425TIP3    H2 7219   1.176   1.421   3.574
 2426TIP3   OH2 7220  -0.178   1.482   4.245
 2426TIP3    H1 7221  -0.175   1.487   4.149
 2426TIP3    H2 7222  -0.082   1.482   4.266
 2427TIP3   OH2 7223   1.484   1.834   4.335
 2427TIP3    H1 7224   1.553   1.764   4.326
 2427TIP3    H2 7225   1.511   1.898   4.267
 2428TIP3   OH2 7226   1.663   1.632   4.342
 2428TIP3    H1 7227   1.589   1.582   4.383
 2428TIP3    H2 7228   1.737   1.570   4.359
 2429TIP3   OH2 7229   1.187   1.142   3.391
 2429TIP3    H1 7230   1.231   1.058   3.419
 2429TIP3    H2 7231   1.249   1.170   3.322
 2430TIP3   OH2 7232   1.346   1.293   3.867
 2430TIP3    H1 7233   1.432   1.318   3.825
 2430TIP3    H2 7234   1.361   1.331   3.956
 2431TIP3   OH2 7235   1.420   1.441   4.096
 2431TIP3    H1 7236   1.344   1.475   4.147
 2431TIP3    H2 7237   1.453   1.523   4.052
 2432TIP3   OH2 7238   1.866   1.027   4.657
 2432TIP3    H1 7239   1.933   0.968   4.615
 2432TIP3    H2 7240   1.838   1.082   4.581
 2433TIP3   OH2 7241   1.316   0.910   3.437
 2433TIP3    H1 7242   1.345   0.880   3.526
 2433TIP3    H2 7243   1.281   0.828   3.399
 2434TIP3   OH2 7244   1.738   1.166   4.461
 2434TIP3    H1 7245   1.654   1.213   4.480
 2434TIP3    H2 7246   1.705   1.096   4.402
 2435TIP3   OH2 7247   0.943   2.341   3.312
 2435TIP3    H1 7248   0.992   2.330   3.228
 2435TIP3    H2 7249   0.996   2.409   3.357
 2436TIP3   OH2 7250   0.045   2.140   4.708
 2436TIP3    H1 7251  -0.017   2.067   4.702
 2436TIP3    H2 7252   0.070   2.137   4.802
 2437TIP3   OH2 7253   0.665   2.419   4.378
 2437TIP3    H1 7254   0.702   2.415   4.468
 2437TIP3    H2 7255   0.733   2.473   4.332
 2438TIP3   OH2 7256   0.848   2.571   4.238
 2438TIP3    H1 7257   0.889   2.504   4.181
 2438TIP3    H2 7258   0.921   2.634   4.250
 2439TIP3   OH2 7259   1.638   0.934   4.338
 2439TIP3    H1 7260   1.549   0.924   4.301
 2439TIP3    H2 7261   1.673   0.842   4.329
 2440TIP3   OH2 7262  -0.095   2.402   4.262
 2440TIP3    H1 7263  -0.184   2.440   4.243
 2440TIP3    H2 7264  -0.068   2.460   4.335
 2441TIP3   OH2 7265   0.558   2.443   3.924
 2441TIP3    H1 7266   0.494   2.464   3.853
 2441TIP3    H2 7267   0.573   2.531   3.964
 2442TIP3   OH2 7268   0.827   2.388   3.983
 2442TIP3    H1 7269   0.734   2.401   3.956
 2442TIP3    H2 7270   0.874   2.451   3.925
 2443TIP3   OH2 7271   1.030   2.569   3.886
 2443TIP3    H1 7272   1.019   2.654   3.840
 2443TIP3    H2 7273   1.060   2.510   3.813
 2444TIP3   OH2 7274  -0.194   2.238   4.006
 2444TIP3    H1 7275  -0.202   2.207   4.098
 2444TIP3    H2 7276  -0.145   2.165   3.963
 2445TIP3   OH2 7277  -0.002   2.091   3.893
 2445TIP3    H1 7278   0.021   2.004   3.934
 2445TIP3    H2 7279   0.084   2.116   3.853
 2446TIP3   OH2 7280   0.254   2.183   3.912
 2446TIP3    H1 7281   0.293   2.101   3.876
 2446TIP3    H2 7282   0.330   2.211   3.969
 2447TIP3   OH2 7283   0.844   0.860   3.957
 2447TIP3    H1 7284   0.803   0.791   4.014
 2447TIP3    H2 7285   0.913   0.810   3.910
 2448TIP3   OH2 7286   1.363   0.725   3.871
 2448TIP3    H1 7287   1.406   0.776   3.798
 2448TIP3    H2 7288   1.269   0.749   3.858
 2449TIP3   OH2 7289   1.481   0.831   3.648
 2449TIP3    H1 7290   1.547   0.776   3.601
 2449TIP3    H2 7291   1.512   0.921   3.626
 2450TIP3   OH2 7292   1.079   0.734   3.837
 2450TIP3    H1 7293   1.092   0.697   3.748
 2450TIP3    H2 7294   1.071   0.652   3.891
 2451TIP3   OH2 7295   0.376   2.191   3.002
 2451TIP3    H1 7296   0.461   2.190   2.952
 2451TIP3    H2 7297   0.312   2.163   2.934
 2452TIP3   OH2 7298   1.088   2.308   3.080
 2452TIP3    H1 7299   1.081   2.210   3.069
 2452TIP3    H2 7300   1.042   2.339   2.999
 2453TIP3   OH2 7301   1.381   0.900   4.772
 2453TIP3    H1 7302   1.399   0.872   4.864
 2453TIP3    H2 7303   1.470   0.897   4.732
 2454TIP3   OH2 7304   1.303   2.461   4.267
 2454TIP3    H1 7305   1.224   2.425   4.221
 2454TIP3    H2 7306   1.326   2.533   4.206
 2455TIP3   OH2 7307   2.581   1.823   3.025
 2455TIP3    H1 7308   2.550   1.914   3.006
 2455TIP3    H2 7309   2.504   1.772   2.998
 2456TIP3   OH2 7310   2.573   1.826   3.420
 2456TIP3    H1 7311   2.614   1.804   3.506
 2456TIP3    H2 7312   2.539   1.740   3.392
 2457TIP3   OH2 7313   1.874   1.713   3.780
 2457TIP3    H1 7314   1.904   1.645   3.844
 2457TIP3    H2 7315   1.955   1.764   3.770
 2458TIP3   OH2 7316   2.823   2.130   3.097
 2458TIP3    H1 7317   2.815   2.059   3.162
 2458TIP3    H2 7318   2.858   2.203   3.150
 2459TIP3   OH2 7319   1.853   2.128   3.497
 2459TIP3    H1 7320   1.844   2.030   3.498
 2459TIP3    H2 7321   1.950   2.136   3.490
 2460TIP3   OH2 7322   1.560   1.331   3.274
 2460TIP3    H1 7323   1.515   1.414   3.297
 2460TIP3    H2 7324   1.485   1.275   3.251
 2461TIP3   OH2 7325   1.614   1.617   3.462
 2461TIP3    H1 7326   1.664   1.539   3.496
 2461TIP3    H2 7327   1.680   1.660   3.406
 2462TIP3   OH2 7328   2.477   2.585   3.112
 2462TIP3    H1 7329   2.517   2.515   3.057
 2462TIP3    H2 7330   2.472   2.541   3.198
 2463TIP3   OH2 7331   2.378   2.050   3.460
 2463TIP3    H1 7332   2.421   1.971   3.423
 2463TIP3    H2 7333   2.459   2.100   3.483
 2464TIP3   OH2 7334   3.394   1.362   3.458
 2464TIP3    H1 7335   3.424   1.447   3.496
 2464TIP3    H2 7336   3.434   1.366   3.368
 2465TIP3   OH2 7337   2.786   1.551   3.487
 2465TIP3    H1 7338   2.833   1.468   3.511
 2465TIP3    H2 7339   2.757   1.530   3.396
 2466TIP3   OH2 7340   2.129   1.209   3.455
 2466TIP3    H1 7341   2.114   1.282   3.392
 2466TIP3    H2 7342   2.080   1.137   3.411
 2467TIP3   OH2 7343   2.826   1.301   3.074
 2467TIP3    H1 7344   2.896   1.288   3.142
 2467TIP3    H2 7345   2.882   1.334   3.000
 2468TIP3   OH2 7346   1.763   1.411   3.562
 2468TIP3    H1 7347   1.846   1.393   3.612
 2468TIP3    H2 7348   1.779   1.355   3.483
 2469TIP3   OH2 7349   2.202   1.609   3.362
 2469TIP3    H1 7350   2.297   1.586   3.372
 2469TIP3    H2 7351   2.165   1.525   3.329
 2470TIP3   OH2 7352   3.469   1.578   3.620
 2470TIP3    H1 7353   3.384   1.623   3.600
 2470TIP3    H2 7354   3.465   1.580   3.717
 2471TIP3   OH2 7355   2.125   1.193   3.890
 2471TIP3    H1 7356   2.067   1.231   3.822
 2471TIP3    H2 7357   2.072   1.211   3.971
 2472TIP3   OH2 7358   2.461   2.041   2.899
 2472TIP3    H1 7359   2.427   2.035   2.809
 2472TIP3    H2 7360   2.421   2.126   2.928
 2473TIP3   OH2 7361   2.231   1.969   3.678
 2473TIP3    H1 7362   2.173   2.040   3.715
 2473TIP3    H2 7363   2.277   2.016   3.605
 2474TIP3   OH2 7364   3.025   1.312   3.256
 2474TIP3    H1 7365   3.023   1.268   3.342
 2474TIP3    H2 7366   3.085   1.387   3.275
 2475TIP3   OH2 7367   1.997   1.308   3.674
 2475TIP3    H1 7368   2.059   1.381   3.698
 2475TIP3    H2 7369   2.048   1.268   3.599
 2476TIP3   OH2 7370   2.062   2.168   3.783
 2476TIP3    H1 7371   2.036   2.255   3.747
 2476TIP3    H2 7372   1.983   2.149   3.838
 2477TIP3   OH2 7373   1.452   1.857   3.018
 2477TIP3    H1 7374   1.410   1.887   2.935
 2477TIP3    H2 7375   1.484   1.943   3.055
 2478TIP3   OH2 7376   2.889   2.373   3.257
 2478TIP3    H1 7377   2.798   2.364   3.295
 2478TIP3    H2 7378   2.883   2.459   3.213
 2479TIP3   OH2 7379   3.176   1.254   3.609
 2479TIP3    H1 7380   3.097   1.303   3.583
 2479TIP3    H2 7381   3.247   1.295   3.555
 2480TIP3   OH2 7382   2.473   0.906   3.602
 2480TIP3    H1 7383   2.461   0.812   3.626
 2480TIP3    H2 7384   2.398   0.947   3.651
 2481TIP3   OH2 7385   2.588   2.414   2.925
 2481TIP3    H1 7386   2.640   2.331   2.908
 2481TIP3    H2 7387   2.651   2.480   2.888
 2482TIP3   OH2 7388   2.734   2.198   2.845
 2482TIP3    H1 7389   2.705   2.114   2.807
 2482TIP3    H2 7390   2.773   2.168   2.930
 2483TIP3   OH2 7391   3.117   2.280   3.603
 2483TIP3    H1 7392   3.107   2.202   3.543
 2483TIP3    H2 7393   3.103   2.354   3.541
 2484TIP3   OH2 7394   2.408   1.672   2.863
 2484TIP3    H1 7395   2.332   1.730   2.840
 2484TIP3    H2 7396   2.460   1.674   2.780
 2485TIP3   OH2 7397   2.367   1.466   2.572
 2485TIP3    H1 7398   2.431   1.517   2.626
 2485TIP3    H2 7399   2.429   1.405   2.526
 2486TIP3   OH2 7400   3.310   1.921   3.449
 2486TIP3    H1 7401   3.229   1.975   3.449
 2486TIP3    H2 7402   3.345   1.939   3.359
 2487TIP3   OH2 7403   2.759   1.757   2.829
 2487TIP3    H1 7404   2.706   1.781   2.909
 2487TIP3    H2 7405   2.844   1.731   2.871
 2488TIP3   OH2 7406   2.993   1.793   3.754
 2488TIP3    H1 7407   2.991   1.876   3.804
 2488TIP3    H2 7408   2.909   1.799   3.704
 2489TIP3   OH2 7409   1.992   1.753   3.250
 2489TIP3    H1 7410   1.955   1.694   3.180
 2489TIP3    H2 7411   2.069   1.700   3.282
 2490TIP3   OH2 7412   2.121   2.166   3.396
 2490TIP3    H1 7413   2.103   2.132   3.307
 2490TIP3    H2 7414   2.210   2.129   3.414
 2491TIP3   OH2 7415   2.119   1.729   3.602
 2491TIP3    H1 7416   2.157   1.700   3.516
 2491TIP3    H2 7417   2.168   1.812   3.620
 2492TIP3   OH2 7418   2.646   2.367   3.380
 2492TIP3    H1 7419   2.639   2.444   3.438
 2492TIP3    H2 7420   2.635   2.292   3.442
 2493TIP3   OH2 7421   2.265   2.287   3.928
 2493TIP3    H1 7422   2.201   2.346   3.974
 2493TIP3    H2 7423   2.203   2.231   3.877
 2494TIP3   OH2 7424   2.591   1.623   2.660
 2494TIP3    H1 7425   2.654   1.678   2.712
 2494TIP3    H2 7426   2.619   1.645   2.568
 2495TIP3   OH2 7427   2.022   1.839   4.030
 2495TIP3    H1 7428   2.026   1.926   4.074
 2495TIP3    H2 7429   1.929   1.816   4.046
 2496TIP3   OH2 7430   2.344   2.293   2.930
 2496TIP3    H1 7431   2.428   2.341   2.936
 2496TIP3    H2 7432   2.285   2.360   2.893
 2497TIP3   OH2 7433   2.056   2.455   4.016
 2497TIP3    H1 7434   2.024   2.455   3.924
 2497TIP3    H2 7435   1.975   2.431   4.066
 2498TIP3   OH2 7436   3.118   0.868   2.723
 2498TIP3    H1 7437   3.031   0.892   2.759
 2498TIP3    H2 7438   3.133   0.937   2.656
 2499TIP3   OH2 7439   1.863   1.598   3.043
 2499TIP3    H1 7440   1.788   1.641   2.995
 2499TIP3    H2 7441   1.825   1.514   3.068
 2500TIP3   OH2 7442   2.914   2.217   2.255
 2500TIP3    H1 7443   2.922   2.314   2.241
 2500TIP3    H2 7444   3.008   2.190   2.243
 2501TIP3   OH2 7445   1.638   1.983   3.961
 2501TIP3    H1 7446   1.571   1.960   3.893
 2501TIP3    H2 7447   1.677   1.896   3.984
 2502TIP3   OH2 7448   1.494   2.174   3.591
 2502TIP3    H1 7449   1.589   2.166   3.581
 2502TIP3    H2 7450   1.487   2.252   3.649
 2503TIP3   OH2 7451   3.353   2.629   3.652
 2503TIP3    H1 7452   3.355   2.532   3.666
 2503TIP3    H2 7453   3.271   2.652   3.699
 2504TIP3   OH2 7454   2.459   2.411   3.782
 2504TIP3    H1 7455   2.451   2.503   3.815
 2504TIP3    H2 7456   2.388   2.367   3.835
 2505TIP3   OH2 7457   2.226   2.536   2.739
 2505TIP3    H1 7458   2.180   2.524   2.654
 2505TIP3    H2 7459   2.194   2.625   2.767
 2506TIP3   OH2 7460   1.662   2.387   3.123
 2506TIP3    H1 7461   1.709   2.379   3.209
 2506TIP3    H2 7462   1.611   2.304   3.122
 2507TIP3   OH2 7463   2.423   2.440   2.374
 2507TIP3    H1 7464   2.484   2.372   2.339
 2507TIP3    H2 7465   2.460   2.455   2.464
 2508TIP3   OH2 7466   2.476   2.491   2.642
 2508TIP3    H1 7467   2.389   2.500   2.687
 2508TIP3    H2 7468   2.532   2.458   2.715
 2509TIP3   OH2 7469   3.239   1.756   3.931
 2509TIP3    H1 7470   3.162   1.765   3.874
 2509TIP3    H2 7471   3.265   1.663   3.914
 2510TIP3   OH2 7472   1.841   2.168   3.948
 2510TIP3    H1 7473   1.893   2.147   4.028
 2510TIP3    H2 7474   1.768   2.103   3.953
 2511TIP3   OH2 7475   2.240   0.986   3.738
 2511TIP3    H1 7476   2.152   0.957   3.708
 2511TIP3    H2 7477   2.214   1.067   3.787
 2512TIP3   OH2 7478   2.780   1.100   3.930
 2512TIP3    H1 7479   2.851   1.074   3.993
 2512TIP3    H2 7480   2.699   1.082   3.982
 2513TIP3   OH2 7481   3.004   1.523   3.839
 2513TIP3    H1 7482   2.961   1.524   3.928
 2513TIP3    H2 7483   2.991   1.616   3.809
 2514TIP3   OH2 7484   2.664   1.669   2.405
 2514TIP3    H1 7485   2.651   1.619   2.322
 2514TIP3    H2 7486   2.753   1.708   2.388
 2515TIP3   OH2 7487   2.366   1.050   2.698
 2515TIP3    H1 7488   2.349   1.042   2.794
 2515TIP3    H2 7489   2.355   0.956   2.672
 2516TIP3   OH2 7490   2.171   1.506   3.752
 2516TIP3    H1 7491   2.125   1.528   3.836
 2516TIP3    H2 7492   2.154   1.588   3.700
 2517TIP3   OH2 7493   2.056   1.393   3.270
 2517TIP3    H1 7494   1.965   1.364   3.289
 2517TIP3    H2 7495   2.070   1.349   3.182
 2518TIP3   OH2 7496   2.546   1.471   2.996
 2518TIP3    H1 7497   2.498   1.544   2.951
 2518TIP3    H2 7498   2.605   1.439   2.924
 2519TIP3   OH2 7499   2.725   1.754   4.077
 2519TIP3    H1 7500   2.701   1.681   4.138
 2519TIP3    H2 7501   2.820   1.763   4.098
 2520TIP3   OH2 7502   2.701   1.497   3.232
 2520TIP3    H1 7503   2.640   1.523   3.160
 2520TIP3    H2 7504   2.741   1.419   3.188
 2521TIP3   OH2 7505   1.992   1.532   3.964
 2521TIP3    H1 7506   2.035   1.590   4.029
 2521TIP3    H2 7507   1.982   1.449   4.015
 2522TIP3   OH2 7508   2.036   0.985   2.682
 2522TIP3    H1 7509   2.043   0.990   2.780
 2522TIP3    H2 7510   1.977   1.061   2.665
 2523TIP3   OH2 7511   1.590   1.057   3.545
 2523TIP3    H1 7512   1.663   1.089   3.602
 2523TIP3    H2 7513   1.635   1.024   3.466
 2524TIP3   OH2 7514   1.571   1.057   3.071
 2524TIP3    H1 7515   1.624   1.073   2.991
 2524TIP3    H2 7516   1.512   1.134   3.074
 2525TIP3   OH2 7517   2.707   1.748   3.652
 2525TIP3    H1 7518   2.743   1.677   3.593
 2525TIP3    H2 7519   2.681   1.693   3.729
 2526TIP3   OH2 7520   2.387   1.216   3.326
 2526TIP3    H1 7521   2.312   1.211   3.388
 2526TIP3    H2 7522   2.463   1.199   3.385
 2527TIP3   OH2 7523   1.821   1.268   3.333
 2527TIP3    H1 7524   1.727   1.275   3.303
 2527TIP3    H2 7525   1.845   1.176   3.311
 2528TIP3   OH2 7526   2.086   1.264   3.034
 2528TIP3    H1 7527   2.181   1.280   3.017
 2528TIP3    H2 7528   2.043   1.291   2.949
 2529TIP3   OH2 7529   2.874   1.293   3.532
 2529TIP3    H1 7530   2.841   1.303   3.624
 2529TIP3    H2 7531   2.812   1.229   3.496
 2530TIP3   OH2 7532   1.940   1.307   2.809
 2530TIP3    H1 7533   1.864   1.265   2.768
 2530TIP3    H2 7534   1.989   1.341   2.731
 2531TIP3   OH2 7535   3.048   2.978   3.751
 2531TIP3    H1 7536   3.047   3.002   3.657
 2531TIP3    H2 7537   3.130   3.023   3.781
 2532TIP3   OH2 7538   2.003   2.091   4.168
 2532TIP3    H1 7539   2.085   2.115   4.217
 2532TIP3    H2 7540   1.941   2.082   4.243
 2533TIP3   OH2 7541   2.467   1.543   3.423
 2533TIP3    H1 7542   2.542   1.505   3.375
 2533TIP3    H2 7543   2.473   1.497   3.509
 2534TIP3   OH2 7544   1.982   1.026   3.308
 2534TIP3    H1 7545   1.944   0.951   3.359
 2534TIP3    H2 7546   2.044   0.980   3.249
 2535TIP3   OH2 7547   2.442   1.441   3.715
 2535TIP3    H1 7548   2.353   1.478   3.730
 2535TIP3    H2 7549   2.501   1.501   3.764
 2536TIP3   OH2 7550   2.179   1.827   2.805
 2536TIP3    H1 7551   2.106   1.763   2.795
 2536TIP3    H2 7552   2.160   1.862   2.896
 2537TIP3   OH2 7553   3.076   2.068   3.434
 2537TIP3    H1 7554   3.105   2.116   3.353
 2537TIP3    H2 7555   2.994   2.023   3.404
 2538TIP3   OH2 7556   2.632   1.139   2.678
 2538TIP3    H1 7557   2.535   1.129   2.685
 2538TIP3    H2 7558   2.647   1.233   2.703
 2539TIP3   OH2 7559   2.573   2.142   3.807
 2539TIP3    H1 7560   2.615   2.124   3.892
 2539TIP3    H2 7561   2.542   2.234   3.816
 2540TIP3   OH2 7562   2.707   1.388   2.777
 2540TIP3    H1 7563   2.803   1.390   2.796
 2540TIP3    H2 7564   2.694   1.470   2.726
 2541TIP3   OH2 7565   1.872   1.849   3.482
 2541TIP3    H1 7566   1.912   1.822   3.397
 2541TIP3    H2 7567   1.925   1.796   3.545
 2542TIP3   OH2 7568   2.322   1.976   2.624
 2542TIP3    H1 7569   2.274   2.062   2.631
 2542TIP3    H2 7570   2.271   1.922   2.689
 2543TIP3   OH2 7571   1.756   1.774   4.101
 2543TIP3    H1 7572   1.780   1.757   4.194
 2543TIP3    H2 7573   1.690   1.704   4.085
 2544TIP3   OH2 7574   2.485   1.889   4.115
 2544TIP3    H1 7575   2.425   1.827   4.072
 2544TIP3    H2 7576   2.572   1.852   4.088
 2545TIP3   OH2 7577   2.736   2.407   3.705
 2545TIP3    H1 7578   2.640   2.404   3.716
 2545TIP3    H2 7579   2.763   2.463   3.781
 2546TIP3   OH2 7580   3.144   1.483   2.612
 2546TIP3    H1 7581   3.081   1.438   2.551
 2546TIP3    H2 7582   3.142   1.572   2.572
 2547TIP3   OH2 7583   3.368   2.344   3.689
 2547TIP3    H1 7584   3.271   2.331   3.682
 2547TIP3    H2 7585   3.396   2.310   3.601
 2548TIP3   OH2 7586   2.841   2.298   2.517
 2548TIP3    H1 7587   2.828   2.229   2.583
 2548TIP3    H2 7588   2.865   2.249   2.437
 2549TIP3   OH2 7589   2.843   1.929   3.348
 2549TIP3    H1 7590   2.750   1.903   3.362
 2549TIP3    H2 7591   2.879   1.848   3.307
 2550TIP3   OH2 7592   1.977   2.157   3.111
 2550TIP3    H1 7593   1.974   2.238   3.056
 2550TIP3    H2 7594   1.883   2.140   3.124
 2551TIP3   OH2 7595   1.547   1.453   2.841
 2551TIP3    H1 7596   1.587   1.541   2.856
 2551TIP3    H2 7597   1.461   1.464   2.888
 2552TIP3   OH2 7598   2.101   1.917   3.047
 2552TIP3    H1 7599   2.071   2.007   3.069
 2552TIP3    H2 7600   2.071   1.867   3.126
 2553TIP3   OH2 7601   2.245   2.497   3.578
 2553TIP3    H1 7602   2.287   2.569   3.526
 2553TIP3    H2 7603   2.323   2.455   3.618
 2554TIP3   OH2 7604   1.892   2.394   2.962
 2554TIP3    H1 7605   1.807   2.404   3.008
 2554TIP3    H2 7606   1.926   2.486   2.965
 2555TIP3   OH2 7607   2.629   2.135   3.539
 2555TIP3    H1 7608   2.617   2.129   3.636
 2555TIP3    H2 7609   2.708   2.081   3.525
 2556TIP3   OH2 7610   2.609   2.021   2.426
 2556TIP3    H1 7611   2.667   1.997   2.503
 2556TIP3    H2 7612   2.523   2.001   2.464
 2557TIP3   OH2 7613   2.876   2.665   3.590
 2557TIP3    H1 7614   2.797   2.609   3.581
 2557TIP3    H2 7615   2.864   2.728   3.516
 2558TIP3   OH2 7616   2.943   2.494   2.240
 2558TIP3    H1 7617   2.980   2.565   2.185
 2558TIP3    H2 7618   2.864   2.541   2.275
 2559TIP3   OH2 7619   1.963   1.275   4.103
 2559TIP3    H1 7620   1.867   1.278   4.116
 2559TIP3    H2 7621   1.993   1.222   4.179
 2560TIP3   OH2 7622   2.771   1.956   2.637
 2560TIP3    H1 7623   2.762   1.890   2.708
 2560TIP3    H2 7624   2.869   1.954   2.625
 2561TIP3   OH2 7625   1.681   2.359   3.738
 2561TIP3    H1 7626   1.734   2.287   3.775
 2561TIP3    H2 7627   1.715   2.435   3.786
 2562TIP3   OH2 7628   1.971   2.002   2.419
 2562TIP3    H1 7629   1.989   1.908   2.400
 2562TIP3    H2 7630   1.950   1.998   2.515
 2563TIP3   OH2 7631   1.918   2.011   2.690
 2563TIP3    H1 7632   1.990   1.985   2.749
 2563TIP3    H2 7633   1.918   2.109   2.701
 2564TIP3   OH2 7634   1.647   1.703   2.900
 2564TIP3    H1 7635   1.582   1.752   2.955
 2564TIP3    H2 7636   1.662   1.770   2.830
 2565TIP3   OH2 7637   2.798   1.340   3.791
 2565TIP3    H1 7638   2.882   1.383   3.818
 2565TIP3    H2 7639   2.796   1.260   3.848
 2566TIP3   OH2 7640   2.680   1.090   2.961
 2566TIP3    H1 7641   2.675   1.112   2.865
 2566TIP3    H2 7642   2.726   1.169   2.997
 2567TIP3   OH2 7643   2.182   2.207   2.637
 2567TIP3    H1 7644   2.095   2.229   2.676
 2567TIP3    H2 7645   2.202   2.291   2.593
 2568TIP3   OH2 7646   2.362   1.275   3.058
 2568TIP3    H1 7647   2.429   1.344   3.041
 2568TIP3    H2 7648   2.373   1.262   3.155
 2569TIP3   OH2 7649   2.642   1.584   3.861
 2569TIP3    H1 7650   2.670   1.633   3.941
 2569TIP3    H2 7651   2.696   1.503   3.866
 2570TIP3   OH2 7652   2.513   0.989   3.156
 2570TIP3    H1 7653   2.523   1.057   3.224
 2570TIP3    H2 7654   2.575   1.024   3.087
 2571TIP3   OH2 7655   1.928   2.281   2.713
 2571TIP3    H1 7656   1.899   2.352   2.651
 2571TIP3    H2 7657   1.913   2.325   2.800
 2572TIP3   OH2 7658   2.040   1.007   2.955
 2572TIP3    H1 7659   2.039   1.097   2.995
 2572TIP3    H2 7660   2.137   0.989   2.964
 2573TIP3   OH2 7661   3.281   1.501   3.834
 2573TIP3    H1 7662   3.183   1.491   3.828
 2573TIP3    H2 7663   3.312   1.413   3.808
 2574TIP3   OH2 7664   2.930   1.685   3.233
 2574TIP3    H1 7665   2.858   1.621   3.247
 2574TIP3    H2 7666   3.005   1.641   3.278
 2575TIP3   OH2 7667   1.648   1.908   2.702
 2575TIP3    H1 7668   1.715   1.978   2.711
 2575TIP3    H2 7669   1.696   1.849   2.640
 2576TIP3   OH2 7670   1.628   1.193   2.801
 2576TIP3    H1 7671   1.617   1.285   2.832
 2576TIP3    H2 7672   1.534   1.170   2.781
 2577TIP3   OH2 7673   2.900   2.642   3.179
 2577TIP3    H1 7674   2.858   2.690   3.104
 2577TIP3    H2 7675   2.995   2.662   3.160
 2578TIP3   OH2 7676   1.974   0.907   3.707
 2578TIP3    H1 7677   1.944   0.872   3.621
 2578TIP3    H2 7678   1.965   0.829   3.765
 2579TIP3   OH2 7679   1.508   2.124   3.085
 2579TIP3    H1 7680   1.448   2.155   3.154
 2579TIP3    H2 7681   1.473   2.170   3.005
 2580TIP3   OH2 7682   1.675   2.670   4.168
 2580TIP3    H1 7683   1.765   2.671   4.208
 2580TIP3    H2 7684   1.661   2.575   4.157
 2581TIP3   OH2 7685   2.164   2.629   4.203
 2581TIP3    H1 7686   2.253   2.588   4.207
 2581TIP3    H2 7687   2.125   2.574   4.132
 2582TIP3   OH2 7688   2.129   2.206   2.327
 2582TIP3    H1 7689   2.073   2.137   2.369
 2582TIP3    H2 7690   2.211   2.157   2.313
 2583TIP3   OH2 7691   2.770   2.555   3.941
 2583TIP3    H1 7692   2.764   2.483   4.009
 2583TIP3    H2 7693   2.857   2.594   3.963
 2584TIP3   OH2 7694   2.571   2.246   2.247
 2584TIP3    H1 7695   2.622   2.191   2.309
 2584TIP3    H2 7696   2.629   2.247   2.168
 2585TIP3   OH2 7697   1.803   2.077   4.360
 2585TIP3    H1 7698   1.819   1.982   4.375
 2585TIP3    H2 7699   1.716   2.076   4.314
 2586TIP3   OH2 7700   1.795   1.723   2.570
 2586TIP3    H1 7701   1.856   1.698   2.643
 2586TIP3    H2 7702   1.858   1.731   2.496
 2587TIP3   OH2 7703   2.408   2.162   4.136
 2587TIP3    H1 7704   2.370   2.182   4.048
 2587TIP3    H2 7705   2.441   2.071   4.125
 2588TIP3   OH2 7706   2.293   1.920   2.359
 2588TIP3    H1 7707   2.297   1.935   2.456
 2588TIP3    H2 7708   2.295   1.822   2.356
 2589TIP3   OH2 7709   2.901   2.178   3.743
 2589TIP3    H1 7710   2.980   2.214   3.698
 2589TIP3    H2 7711   2.836   2.248   3.722
 2590TIP3   OH2 7712   1.933   1.808   4.339
 2590TIP3    H1 7713   2.015   1.762   4.315
 2590TIP3    H2 7714   1.957   1.840   4.429
 2591TIP3   OH2 7715   1.979   1.633   2.770
 2591TIP3    H1 7716   1.956   1.601   2.859
 2591TIP3    H2 7717   2.022   1.555   2.730
 2592TIP3   OH2 7718   2.255   1.687   4.002
 2592TIP3    H1 7719   2.181   1.751   4.006
 2592TIP3    H2 7720   2.309   1.723   3.928
 2593TIP3   OH2 7721   2.093   1.424   2.615
 2593TIP3    H1 7722   2.071   1.437   2.521
 2593TIP3    H2 7723   2.191   1.428   2.612
 2594TIP3   OH2 7724   2.780   2.097   4.137
 2594TIP3    H1 7725   2.853   2.060   4.084
 2594TIP3    H2 7726   2.772   2.031   4.208
 2595TIP3   OH2 7727   2.900   1.754   2.287
 2595TIP3    H1 7728   2.890   1.710   2.200
 2595TIP3    H2 7729   2.868   1.844   2.263
 2596TIP3   OH2 7730   2.381   1.482   4.139
 2596TIP3    H1 7731   2.386   1.406   4.078
 2596TIP3    H2 7732   2.338   1.550   4.082
 2597TIP3   OH2 7733   2.384   1.271   3.940
 2597TIP3    H1 7734   2.414   1.312   3.856
 2597TIP3    H2 7735   2.291   1.248   3.919
 2598TIP3   OH2 7736   2.405   1.802   3.811
 2598TIP3    H1 7737   2.493   1.813   3.772
 2598TIP3    H2 7738   2.352   1.869   3.763
 2599TIP3   OH2 7739   2.992   1.767   4.188
 2599TIP3    H1 7740   3.034   1.681   4.204
 2599TIP3    H2 7741   3.064   1.816   4.145
 2600TIP3   OH2 7742   3.030   2.029   3.930
 2600TIP3    H1 7743   2.975   2.084   3.869
 2600TIP3    H2 7744   3.119   2.046   3.892
 2601TIP3   OH2 7745   2.217   1.612   4.345
 2601TIP3    H1 7746   2.175   1.529   4.376
 2601TIP3    H2 7747   2.280   1.577   4.280
 2602TIP3   OH2 7748   2.515   1.033   4.014
 2602TIP3    H1 7749   2.467   1.114   3.988
 2602TIP3    H2 7750   2.447   0.964   4.000
 2603TIP3   OH2 7751   2.645   1.542   4.224
 2603TIP3    H1 7752   2.660   1.520   4.317
 2603TIP3    H2 7753   2.552   1.512   4.209
 2604TIP3   OH2 7754   2.880   1.491   4.077
 2604TIP3    H1 7755   2.807   1.490   4.142
 2604TIP3    H2 7756   2.956   1.460   4.133
 2605TIP3   OH2 7757   3.099   1.427   4.228
 2605TIP3    H1 7758   3.123   1.333   4.240
 2605TIP3    H2 7759   3.108   1.463   4.318
 2606TIP3   OH2 7760   2.095   1.370   4.420
 2606TIP3    H1 7761   2.105   1.279   4.384
 2606TIP3    H2 7762   2.129   1.357   4.511
 2607TIP3   OH2 7763   2.601   1.040   4.276
 2607TIP3    H1 7764   2.672   0.973   4.268
 2607TIP3    H2 7765   2.566   1.038   4.184
 2608TIP3   OH2 7766   2.663   1.275   4.410
 2608TIP3    H1 7767   2.653   1.191   4.360
 2608TIP3    H2 7768   2.573   1.288   4.445
 2609TIP3   OH2 7769   1.899   2.481   2.524
 2609TIP3    H1 7770   1.994   2.476   2.505
 2609TIP3    H2 7771   1.871   2.536   2.448
 2610TIP3   OH2 7772   1.380   1.873   2.736
 2610TIP3    H1 7773   1.475   1.894   2.723
 2610TIP3    H2 7774   1.375   1.783   2.697
 2611TIP3   OH2 7775   1.294   2.477   3.157
 2611TIP3    H1 7776   1.228   2.417   3.116
 2611TIP3    H2 7777   1.338   2.416   3.219
 2612TIP3   OH2 7778   1.428   2.320   3.341
 2612TIP3    H1 7779   1.416   2.253   3.410
 2612TIP3    H2 7780   1.482   2.386   3.389
 2613TIP3   OH2 7781   3.154   2.733   3.142
 2613TIP3    H1 7782   3.184   2.764   3.230
 2613TIP3    H2 7783   3.224   2.766   3.084
 2614TIP3   OH2 7784   3.182   2.750   3.427
 2614TIP3    H1 7785   3.139   2.662   3.421
 2614TIP3    H2 7786   3.260   2.726   3.480
 2615TIP3   OH2 7787   3.229   2.429   3.996
 2615TIP3    H1 7788   3.159   2.442   4.063
 2615TIP3    H2 7789   3.275   2.516   3.999
 2616TIP3   OH2 7790   3.047   1.942   2.612
 2616TIP3    H1 7791   3.114   2.006   2.582
 2616TIP3    H2 7792   3.090   1.906   2.693
 2617TIP3   OH2 7793   3.170   1.816   2.822
 2617TIP3    H1 7794   3.107   1.772   2.883
 2617TIP3    H2 7795   3.242   1.844   2.882
 2618TIP3   OH2 7796   3.227   2.199   3.245
 2618TIP3    H1 7797   3.286   2.131   3.206
 2618TIP3    H2 7798   3.230   2.270   3.178
 2619TIP3   OH2 7799   3.057   2.500   3.443
 2619TIP3    H1 7800   2.983   2.538   3.493
 2619TIP3    H2 7801   3.010   2.452   3.371
 2620TIP3   OH2 7802   3.109   1.716   2.465
 2620TIP3    H1 7803   3.035   1.719   2.400
 2620TIP3    H2 7804   3.085   1.793   2.521
 2621TIP3   OH2 7805   2.971   1.391   2.421
 2621TIP3    H1 7806   2.943   1.413   2.332
 2621TIP3    H2 7807   2.955   1.294   2.420
 2622TIP3   OH2 7808   2.983   1.667   2.963
 2622TIP3    H1 7809   3.000   1.572   2.957
 2622TIP3    H2 7810   2.971   1.680   3.060
 2623TIP3   OH2 7811   1.611   1.740   3.713
 2623TIP3    H1 7812   1.608   1.703   3.622
 2623TIP3    H2 7813   1.708   1.739   3.729
 2624TIP3   OH2 7814   3.280   2.088   3.823
 2624TIP3    H1 7815   3.349   2.018   3.815
 2624TIP3    H2 7816   3.306   2.150   3.754
 2625TIP3   OH2 7817   3.461   1.885   3.839
 2625TIP3    H1 7818   3.385   1.835   3.876
 2625TIP3    H2 7819   3.533   1.820   3.853
 2626TIP3   OH2 7820   2.928   1.122   2.398
 2626TIP3    H1 7821   3.007   1.094   2.450
 2626TIP3    H2 7822   2.865   1.052   2.416
 2627TIP3   OH2 7823   2.982   1.382   2.852
 2627TIP3    H1 7824   3.023   1.294   2.869
 2627TIP3    H2 7825   3.044   1.416   2.785
 2628TIP3   OH2 7826   3.150   1.559   3.343
 2628TIP3    H1 7827   3.235   1.583   3.300
 2628TIP3    H2 7828   3.168   1.593   3.433
 2629TIP3   OH2 7829   3.214   1.698   3.576
 2629TIP3    H1 7830   3.141   1.734   3.629
 2629TIP3    H2 7831   3.251   1.780   3.535
 2630TIP3   OH2 7832   1.829   1.418   4.381
 2630TIP3    H1 7833   1.927   1.418   4.388
 2630TIP3    H2 7834   1.808   1.333   4.425
 2631TIP3   OH2 7835   3.086   1.136   2.901
 2631TIP3    H1 7836   3.140   1.118   2.981
 2631TIP3    H2 7837   3.032   1.055   2.896
 2632TIP3   OH2 7838   1.793   1.118   3.717
 2632TIP3    H1 7839   1.854   1.042   3.726
 2632TIP3    H2 7840   1.857   1.191   3.708
 2633TIP3   OH2 7841   1.591   1.388   3.786
 2633TIP3    H1 7842   1.643   1.386   3.703
 2633TIP3    H2 7843   1.624   1.469   3.827
 2634TIP3   OH2 7844   3.164   1.064   2.527
 2634TIP3    H1 7845   3.203   0.990   2.475
 2634TIP3    H2 7846   3.237   1.130   2.528
 2635TIP3   OH2 7847   1.565   0.911   3.300
 2635TIP3    H1 7848   1.481   0.924   3.348
 2635TIP3    H2 7849   1.555   0.966   3.220
 2636TIP3   OH2 7850   2.734   2.599   2.795
 2636TIP3    H1 7851   2.789   2.589   2.714
 2636TIP3    H2 7852   2.787   2.663   2.846
 2637TIP3   OH2 7853   1.798   0.968   4.103
 2637TIP3    H1 7854   1.747   0.969   4.186
 2637TIP3    H2 7855   1.733   1.009   4.042
 2638TIP3   OH2 7856   1.836   2.411   4.181
 2638TIP3    H1 7857   1.746   2.376   4.164
 2638TIP3    H2 7858   1.854   2.376   4.270
 2639TIP3   OH2 7859   2.020   2.441   3.731
 2639TIP3    H1 7860   1.974   2.517   3.690
 2639TIP3    H2 7861   2.106   2.451   3.685
 2640TIP3   OH2 7862   2.476   2.674   3.878
 2640TIP3    H1 7863   2.552   2.635   3.925
 2640TIP3    H2 7864   2.523   2.732   3.815
 2641TIP3   OH2 7865   2.637   2.833   3.727
 2641TIP3    H1 7866   2.705   2.784   3.678
 2641TIP3    H2 7867   2.693   2.889   3.784
 2642TIP3   OH2 7868   3.402   1.180   3.809
 2642TIP3    H1 7869   3.318   1.150   3.769
 2642TIP3    H2 7870   3.455   1.098   3.806
 2643TIP3   OH2 7871   1.693   2.689   3.757
 2643TIP3    H1 7872   1.603   2.719   3.730
 2643TIP3    H2 7873   1.707   2.744   3.834
 2644TIP3   OH2 7874   1.929   2.671   3.613
 2644TIP3    H1 7875   1.841   2.682   3.655
 2644TIP3    H2 7876   1.911   2.703   3.522
 2645TIP3   OH2 7877   2.352   2.694   3.412
 2645TIP3    H1 7878   2.286   2.712   3.343
 2645TIP3    H2 7879   2.366   2.783   3.450
 2646TIP3   OH2 7880   2.624   2.636   3.466
 2646TIP3    H1 7881   2.531   2.654   3.442
 2646TIP3    H2 7882   2.671   2.705   3.416
 2647TIP3   OH2 7883   2.823   2.823   3.372
 2647TIP3    H1 7884   2.814   2.909   3.326
 2647TIP3    H2 7885   2.855   2.765   3.300
 2648TIP3   OH2 7886   1.602   2.481   3.496
 2648TIP3    H1 7887   1.629   2.454   3.586
 2648TIP3    H2 7888   1.676   2.441   3.445
 2649TIP3   OH2 7889   1.800   2.357   3.358
 2649TIP3    H1 7890   1.816   2.273   3.407
 2649TIP3    H2 7891   1.891   2.393   3.354
 2650TIP3   OH2 7892   2.067   2.447   3.364
 2650TIP3    H1 7893   2.097   2.354   3.353
 2650TIP3    H2 7894   2.117   2.471   3.444
 2651TIP3   OH2 7895   2.626   1.098   3.429
 2651TIP3    H1 7896   2.596   1.028   3.489
 2651TIP3    H2 7897   2.710   1.062   3.395
 2652TIP3   OH2 7898   3.158   0.981   3.346
 2652TIP3    H1 7899   3.198   1.034   3.273
 2652TIP3    H2 7900   3.066   1.012   3.344
 2653TIP3   OH2 7901   3.255   1.084   3.114
 2653TIP3    H1 7902   3.329   1.031   3.076
 2653TIP3    H2 7903   3.291   1.175   3.097
 2654TIP3   OH2 7904   1.882   0.817   3.459
 2654TIP3    H1 7905   1.793   0.776   3.461
 2654TIP3    H2 7906   1.938   0.736   3.457
 2655TIP3   OH2 7907   1.743   0.754   3.166
 2655TIP3    H1 7908   1.759   0.821   3.095
 2655TIP3    H2 7909   1.692   0.809   3.231
 2656TIP3   OH2 7910   2.332   0.850   3.342
 2656TIP3    H1 7911   2.390   0.894   3.277
 2656TIP3    H2 7912   2.369   0.883   3.426
 2657TIP3   OH2 7913   2.866   0.995   3.326
 2657TIP3    H1 7914   2.886   0.954   3.241
 2657TIP3    H2 7915   2.860   0.915   3.384
 2658TIP3   OH2 7916   2.901   0.923   2.890
 2658TIP3    H1 7917   2.815   0.963   2.913
 2658TIP3    H2 7918   2.892   0.835   2.932
 2659TIP3   OH2 7919   1.393   2.264   2.885
 2659TIP3    H1 7920   1.306   2.234   2.852
 2659TIP3    H2 7921   1.388   2.357   2.857
 2660TIP3   OH2 7922   1.806   0.876   2.923
 2660TIP3    H1 7923   1.854   0.796   2.896
 2660TIP3    H2 7924   1.880   0.937   2.939
 2661TIP3   OH2 7925   2.312   1.023   2.968
 2661TIP3    H1 7926   2.372   0.977   3.029
 2661TIP3    H2 7927   2.330   1.115   2.995
 2662TIP3   OH2 7928   2.166   2.440   2.472
 2662TIP3    H1 7929   2.254   2.463   2.435
 2662TIP3    H2 7930   2.143   2.366   2.412
 2663TIP3   OH2 7931   2.883   2.564   2.565
 2663TIP3    H1 7932   2.872   2.467   2.552
 2663TIP3    H2 7933   2.839   2.597   2.484
 2664TIP3   OH2 7934   2.095   1.091   4.344
 2664TIP3    H1 7935   2.058   1.026   4.406
 2664TIP3    H2 7936   2.189   1.090   4.373
 2665TIP3   OH2 7937   2.348   1.083   4.459
 2665TIP3    H1 7938   2.433   1.067   4.413
 2665TIP3    H2 7939   2.349   1.011   4.525
 2666TIP3   OH2 7940   1.469   2.280   2.526
 2666TIP3    H1 7941   1.472   2.304   2.619
 2666TIP3    H2 7942   1.557   2.238   2.511
 2667TIP3   OH2 7943   3.182   1.160   4.249
 2667TIP3    H1 7944   3.201   1.130   4.341
 2667TIP3    H2 7945   3.271   1.158   4.208
 2668TIP3   OH2 7946   3.102   2.707   3.755
 2668TIP3    H1 7947   3.027   2.678   3.699
 2668TIP3    H2 7948   3.088   2.804   3.756
 2669TIP3   OH2 7949   4.379   2.082   2.510
 2669TIP3    H1 7950   4.348   2.172   2.491
 2669TIP3    H2 7951   4.301   2.030   2.485
 2670TIP3   OH2 7952   4.376   2.078   2.903
 2670TIP3    H1 7953   4.414   2.056   2.990
 2670TIP3    H2 7954   4.331   1.995   2.880
 2671TIP3   OH2 7955   3.672   1.980   3.273
 2671TIP3    H1 7956   3.694   1.902   3.329
 2671TIP3    H2 7957   3.756   1.991   3.225
 2672TIP3   OH2 7958   4.621   2.387   2.583
 2672TIP3    H1 7959   4.608   2.318   2.650
 2672TIP3    H2 7960   4.658   2.460   2.635
 2673TIP3   OH2 7961   3.646   2.383   2.982
 2673TIP3    H1 7962   3.638   2.285   2.983
 2673TIP3    H2 7963   3.743   2.391   2.980
 2674TIP3   OH2 7964   3.341   1.584   2.786
 2674TIP3    H1 7965   3.294   1.669   2.794
 2674TIP3    H2 7966   3.276   1.532   2.735
 2675TIP3   OH2 7967   3.417   1.863   2.946
 2675TIP3    H1 7968   3.463   1.780   2.966
 2675TIP3    H2 7969   3.481   1.909   2.889
 2676TIP3   OH2 7970   4.274   2.844   2.599
 2676TIP3    H1 7971   4.314   2.772   2.545
 2676TIP3    H2 7972   4.266   2.800   2.685
 2677TIP3   OH2 7973   4.172   2.309   2.946
 2677TIP3    H1 7974   4.211   2.231   2.903
 2677TIP3    H2 7975   4.255   2.355   2.970
 2678TIP3   OH2 7976   5.194   1.625   2.945
 2678TIP3    H1 7977   5.221   1.710   2.986
 2678TIP3    H2 7978   5.209   1.644   2.851
 2679TIP3   OH2 7979   4.592   1.805   2.973
 2679TIP3    H1 7980   4.631   1.717   2.994
 2679TIP3    H2 7981   4.556   1.788   2.884
 2680TIP3   OH2 7982   4.624   1.556   2.561
 2680TIP3    H1 7983   4.694   1.543   2.628
 2680TIP3    H2 7984   4.677   1.593   2.488
 2681TIP3   OH2 7985   3.996   1.870   2.854
 2681TIP3    H1 7986   4.089   1.843   2.865
 2681TIP3    H2 7987   3.956   1.786   2.820
 2682TIP3   OH2 7988   5.266   1.837   3.112
 2682TIP3    H1 7989   5.184   1.883   3.086
 2682TIP3    H2 7990   5.270   1.863   3.205
 2683TIP3   OH2 7991   3.921   1.464   3.359
 2683TIP3    H1 7992   3.868   1.507   3.288
 2683TIP3    H2 7993   3.859   1.479   3.434
 2684TIP3   OH2 7994   4.266   2.302   2.380
 2684TIP3    H1 7995   4.221   2.287   2.296
 2684TIP3    H2 7996   4.220   2.383   2.411
 2685TIP3   OH2 7997   4.033   2.224   3.170
 2685TIP3    H1 7998   3.972   2.291   3.206
 2685TIP3    H2 7999   4.074   2.271   3.095
 2686TIP3   OH2 8000   4.825   1.564   2.744
 2686TIP3    H1 8001   4.797   1.528   2.830
 2686TIP3    H2 8002   4.875   1.643   2.771
 2687TIP3   OH2 8003   3.860   2.424   3.268
 2687TIP3    H1 8004   3.833   2.511   3.234
 2687TIP3    H2 8005   3.781   2.402   3.322
 2688TIP3   OH2 8006   3.245   2.113   2.505
 2688TIP3    H1 8007   3.210   2.144   2.419
 2688TIP3    H2 8008   3.280   2.197   2.542
 2689TIP3   OH2 8009   4.687   2.632   2.747
 2689TIP3    H1 8010   4.597   2.621   2.784
 2689TIP3    H2 8011   4.679   2.719   2.704
 2690TIP3   OH2 8012   4.984   1.523   3.110
 2690TIP3    H1 8013   4.896   1.549   3.078
 2690TIP3    H2 8014   5.043   1.557   3.039
 2691TIP3   OH2 8015   4.274   1.165   3.099
 2691TIP3    H1 8016   4.255   1.071   3.115
 2691TIP3    H2 8017   4.197   1.206   3.144
 2692TIP3   OH2 8018   4.385   2.671   2.412
 2692TIP3    H1 8019   4.437   2.589   2.396
 2692TIP3    H2 8020   4.448   2.737   2.374
 2693TIP3   OH2 8021   4.532   2.455   2.331
 2693TIP3    H1 8022   4.485   2.376   2.303
 2693TIP3    H2 8023   4.572   2.425   2.416
 2694TIP3   OH2 8024   4.930   2.521   3.100
 2694TIP3    H1 8025   4.915   2.454   3.030
 2694TIP3    H2 8026   4.925   2.604   3.048
 2695TIP3   OH2 8027   4.205   1.930   2.349
 2695TIP3    H1 8028   4.125   1.983   2.330
 2695TIP3    H2 8029   4.251   1.932   2.263
 2696TIP3   OH2 8030   4.163   1.723   2.056
 2696TIP3    H1 8031   4.229   1.772   2.109
 2696TIP3    H2 8032   4.222   1.659   2.010
 2697TIP3   OH2 8033   5.101   2.166   2.929
 2697TIP3    H1 8034   5.022   2.224   2.934
 2697TIP3    H2 8035   5.145   2.205   2.850
 2698TIP3   OH2 8036   4.556   2.014   2.315
 2698TIP3    H1 8037   4.501   2.038   2.393
 2698TIP3    H2 8038   4.640   1.991   2.360
 2699TIP3   OH2 8039   4.788   2.052   3.232
 2699TIP3    H1 8040   4.782   2.136   3.282
 2699TIP3    H2 8041   4.701   2.052   3.187
 2700TIP3   OH2 8042   3.789   2.012   2.732
 2700TIP3    H1 8043   3.751   1.951   2.665
 2700TIP3    H2 8044   3.862   1.958   2.769
 2701TIP3   OH2 8045   3.917   2.426   2.881
 2701TIP3    H1 8046   3.898   2.387   2.795
 2701TIP3    H2 8047   4.006   2.389   2.901
 2702TIP3   OH2 8048   3.895   1.995   3.085
 2702TIP3    H1 8049   3.935   1.956   3.004
 2702TIP3    H2 8050   3.956   2.068   3.107
 2703TIP3   OH2 8051   4.444   2.622   2.866
 2703TIP3    H1 8052   4.435   2.701   2.923
 2703TIP3    H2 8053   4.430   2.548   2.928
 2704TIP3   OH2 8054   4.062   2.539   3.416
 2704TIP3    H1 8055   3.999   2.600   3.460
 2704TIP3    H2 8056   4.000   2.485   3.363
 2705TIP3   OH2 8057   4.393   1.872   2.144
 2705TIP3    H1 8058   4.452   1.933   2.194
 2705TIP3    H2 8059   4.420   1.893   2.051
 2706TIP3   OH2 8060   3.826   2.097   3.532
 2706TIP3    H1 8061   3.815   2.186   3.569
 2706TIP3    H2 8062   3.733   2.071   3.514
 2707TIP3   OH2 8063   4.141   2.548   2.417
 2707TIP3    H1 8064   4.225   2.598   2.425
 2707TIP3    H2 8065   4.081   2.612   2.379
 2708TIP3   OH2 8066   3.855   2.704   3.501
 2708TIP3    H1 8067   3.821   2.707   3.410
 2708TIP3    H2 8068   3.773   2.684   3.552
 2709TIP3   OH2 8069   4.909   1.110   2.195
 2709TIP3    H1 8070   4.828   1.133   2.245
 2709TIP3    H2 8071   4.924   1.193   2.145
 2710TIP3   OH2 8072   3.662   1.854   2.530
 2710TIP3    H1 8073   3.580   1.882   2.485
 2710TIP3    H2 8074   3.638   1.767   2.565
 2711TIP3   OH2 8075   4.711   2.477   1.743
 2711TIP3    H1 8076   4.718   2.574   1.728
 2711TIP3    H2 8077   4.804   2.449   1.731
 2712TIP3   OH2 8078   3.432   2.242   3.447
 2712TIP3    H1 8079   3.370   2.214   3.377
 2712TIP3    H2 8080   3.472   2.157   3.476
 2713TIP3   OH2 8081   3.291   2.432   3.076
 2713TIP3    H1 8082   3.386   2.418   3.066
 2713TIP3    H2 8083   3.289   2.507   3.138
 2714TIP3   OH2 8084   5.149   2.890   3.117
 2714TIP3    H1 8085   5.145   2.795   3.098
 2714TIP3    H2 8086   5.072   2.902   3.178
 2715TIP3   OH2 8087   4.256   2.668   3.272
 2715TIP3    H1 8088   4.253   2.761   3.303
 2715TIP3    H2 8089   4.185   2.627   3.326
 2716TIP3   OH2 8090   4.023   2.794   2.224
 2716TIP3    H1 8091   3.975   2.779   2.141
 2716TIP3    H2 8092   3.989   2.882   2.252
 2717TIP3   OH2 8093   3.458   2.644   2.611
 2717TIP3    H1 8094   3.506   2.636   2.696
 2717TIP3    H2 8095   3.409   2.559   2.609
 2718TIP3   OH2 8096   4.220   2.699   1.860
 2718TIP3    H1 8097   4.279   2.628   1.825
 2718TIP3    H2 8098   4.256   2.711   1.951
 2719TIP3   OH2 8099   4.273   2.748   2.129
 2719TIP3    H1 8100   4.185   2.757   2.172
 2719TIP3    H2 8101   4.326   2.712   2.203
 2720TIP3   OH2 8102   5.047   2.025   3.417
 2720TIP3    H1 8103   4.969   2.035   3.361
 2720TIP3    H2 8104   5.073   1.933   3.399
 2721TIP3   OH2 8105   3.637   2.424   3.431
 2721TIP3    H1 8106   3.687   2.406   3.513
 2721TIP3    H2 8107   3.564   2.359   3.437
 2722TIP3   OH2 8108   4.034   1.250   3.220
 2722TIP3    H1 8109   3.945   1.217   3.194
 2722TIP3    H2 8110   4.007   1.333   3.263
 2723TIP3   OH2 8111   4.571   1.358   3.417
 2723TIP3    H1 8112   4.638   1.331   3.484
 2723TIP3    H2 8113   4.486   1.340   3.463
 2724TIP3   OH2 8114   4.812   1.791   3.338
 2724TIP3    H1 8115   4.759   1.789   3.421
 2724TIP3    H2 8116   4.788   1.878   3.300
 2725TIP3   OH2 8117   4.468   1.908   1.885
 2725TIP3    H1 8118   4.436   1.889   1.795
 2725TIP3    H2 8119   4.551   1.955   1.866
 2726TIP3   OH2 8120   4.184   1.291   2.193
 2726TIP3    H1 8121   4.150   1.288   2.285
 2726TIP3    H2 8122   4.142   1.209   2.159
 2727TIP3   OH2 8123   3.995   1.787   3.257
 2727TIP3    H1 8124   3.917   1.732   3.276
 2727TIP3    H2 8125   3.957   1.843   3.186
 2728TIP3   OH2 8126   3.874   1.653   2.744
 2728TIP3    H1 8127   3.787   1.625   2.782
 2728TIP3    H2 8128   3.872   1.600   2.662
 2729TIP3   OH2 8129   4.345   1.733   2.485
 2729TIP3    H1 8130   4.293   1.804   2.441
 2729TIP3    H2 8131   4.399   1.699   2.411
 2730TIP3   OH2 8132   4.518   2.007   3.567
 2730TIP3    H1 8133   4.493   1.935   3.629
 2730TIP3    H2 8134   4.612   2.018   3.590
 2731TIP3   OH2 8135   4.502   1.756   2.719
 2731TIP3    H1 8136   4.437   1.785   2.652
 2731TIP3    H2 8137   4.535   1.677   2.673
 2732TIP3   OH2 8138   3.759   1.800   3.468
 2732TIP3    H1 8139   3.835   1.841   3.512
 2732TIP3    H2 8140   3.766   1.706   3.497
 2733TIP3   OH2 8141   3.838   1.269   2.155
 2733TIP3    H1 8142   3.831   1.264   2.253
 2733TIP3    H2 8143   3.760   1.323   2.134
 2734TIP3   OH2 8144   3.379   1.305   3.028
 2734TIP3    H1 8145   3.449   1.336   3.089
 2734TIP3    H2 8146   3.429   1.285   2.947
 2735TIP3   OH2 8147   3.344   1.285   2.543
 2735TIP3    H1 8148   3.403   1.319   2.472
 2735TIP3    H2 8149   3.292   1.364   2.563
 2736TIP3   OH2 8150   4.514   2.003   3.138
 2736TIP3    H1 8151   4.547   1.931   3.079
 2736TIP3    H2 8152   4.482   1.950   3.213
 2737TIP3   OH2 8153   4.185   1.462   2.808
 2737TIP3    H1 8154   4.098   1.488   2.844
 2737TIP3    H2 8155   4.242   1.467   2.886
 2738TIP3   OH2 8156   3.627   1.539   2.769
 2738TIP3    H1 8157   3.533   1.534   2.794
 2738TIP3    H2 8158   3.659   1.447   2.781
 2739TIP3   OH2 8159   3.883   1.510   2.507
 2739TIP3    H1 8160   3.973   1.536   2.485
 2739TIP3    H2 8161   3.830   1.536   2.428
 2740TIP3   OH2 8162   4.672   1.541   3.014
 2740TIP3    H1 8163   4.645   1.556   3.107
 2740TIP3    H2 8164   4.600   1.482   2.984
 2741TIP3   OH2 8165   3.728   1.560   2.287
 2741TIP3    H1 8166   3.655   1.515   2.242
 2741TIP3    H2 8167   3.779   1.594   2.211
 2742TIP3   OH2 8168   4.848   3.232   3.238
 2742TIP3    H1 8169   4.845   3.257   3.144
 2742TIP3    H2 8170   4.928   3.279   3.268
 2743TIP3   OH2 8171   3.796   2.350   3.656
 2743TIP3    H1 8172   3.878   2.375   3.704
 2743TIP3    H2 8173   3.733   2.343   3.730
 2744TIP3   OH2 8174   4.262   1.798   2.917
 2744TIP3    H1 8175   4.337   1.754   2.874
 2744TIP3    H2 8176   4.262   1.757   3.006
 2745TIP3   OH2 8177   3.760   1.284   2.783
 2745TIP3    H1 8178   3.734   1.211   2.844
 2745TIP3    H2 8179   3.839   1.247   2.741
 2746TIP3   OH2 8180   4.247   1.704   3.192
 2746TIP3    H1 8181   4.158   1.739   3.216
 2746TIP3    H2 8182   4.306   1.760   3.246
 2747TIP3   OH2 8183   3.976   2.081   2.294
 2747TIP3    H1 8184   3.902   2.017   2.283
 2747TIP3    H2 8185   3.955   2.117   2.384
 2748TIP3   OH2 8186   4.874   2.319   2.923
 2748TIP3    H1 8187   4.899   2.368   2.840
 2748TIP3    H2 8188   4.789   2.278   2.897
 2749TIP3   OH2 8189   4.431   1.398   2.154
 2749TIP3    H1 8190   4.336   1.375   2.170
 2749TIP3    H2 8191   4.439   1.489   2.188
 2750TIP3   OH2 8192   4.380   2.407   3.290
 2750TIP3    H1 8193   4.398   2.380   3.381
 2750TIP3    H2 8194   4.338   2.494   3.301
 2751TIP3   OH2 8195   4.501   1.643   2.265
 2751TIP3    H1 8196   4.597   1.650   2.282
 2751TIP3    H2 8197   4.482   1.726   2.216
 2752TIP3   OH2 8198   3.666   2.107   2.961
 2752TIP3    H1 8199   3.703   2.078   2.876
 2752TIP3    H2 8200   3.725   2.060   3.023
 2753TIP3   OH2 8201   4.120   2.232   2.117
 2753TIP3    H1 8202   4.071   2.318   2.121
 2753TIP3    H2 8203   4.066   2.177   2.179
 2754TIP3   OH2 8204   3.541   2.038   3.593
 2754TIP3    H1 8205   3.571   2.015   3.682
 2754TIP3    H2 8206   3.492   1.959   3.567
 2755TIP3   OH2 8207   4.273   2.143   3.606
 2755TIP3    H1 8208   4.207   2.086   3.562
 2755TIP3    H2 8209   4.356   2.104   3.571
 2756TIP3   OH2 8210   4.534   2.668   3.189
 2756TIP3    H1 8211   4.438   2.662   3.203
 2756TIP3    H2 8212   4.561   2.719   3.269
 2757TIP3   OH2 8213   4.942   1.739   2.099
 2757TIP3    H1 8214   4.881   1.694   2.035
 2757TIP3    H2 8215   4.938   1.829   2.059
 2758TIP3   OH2 8216   4.646   2.555   2.008
 2758TIP3    H1 8217   4.619   2.487   2.071
 2758TIP3    H2 8218   4.659   2.506   1.925
 2759TIP3   OH2 8219   4.639   2.184   2.838
 2759TIP3    H1 8220   4.546   2.158   2.851
 2759TIP3    H2 8221   4.674   2.104   2.794
 2760TIP3   OH2 8222   3.772   2.413   2.597
 2760TIP3    H1 8223   3.768   2.494   2.543
 2760TIP3    H2 8224   3.679   2.394   2.611
 2761TIP3   OH2 8225   3.330   1.714   2.300
 2761TIP3    H1 8226   3.379   1.795   2.324
 2761TIP3    H2 8227   3.257   1.717   2.365
 2762TIP3   OH2 8228   3.902   2.175   2.535
 2762TIP3    H1 8229   3.869   2.264   2.559
 2762TIP3    H2 8230   3.869   2.122   2.611
 2763TIP3   OH2 8231   4.042   2.753   3.064
 2763TIP3    H1 8232   4.085   2.826   3.014
 2763TIP3    H2 8233   4.118   2.715   3.111
 2764TIP3   OH2 8234   3.687   2.651   2.448
 2764TIP3    H1 8235   3.602   2.661   2.496
 2764TIP3    H2 8236   3.720   2.744   2.452
 2765TIP3   OH2 8237   4.425   2.389   3.023
 2765TIP3    H1 8238   4.416   2.389   3.121
 2765TIP3    H2 8239   4.504   2.335   3.011
 2766TIP3   OH2 8240   4.405   2.283   1.910
 2766TIP3    H1 8241   4.460   2.257   1.987
 2766TIP3    H2 8242   4.317   2.257   1.941
 2767TIP3   OH2 8243   4.675   2.920   3.078
 2767TIP3    H1 8244   4.596   2.863   3.073
 2767TIP3    H2 8245   4.658   2.982   3.004
 2768TIP3   OH2 8246   4.740   2.753   1.726
 2768TIP3    H1 8247   4.779   2.825   1.675
 2768TIP3    H2 8248   4.661   2.798   1.761
 2769TIP3   OH2 8249   3.748   1.533   3.580
 2769TIP3    H1 8250   3.653   1.553   3.587
 2769TIP3    H2 8251   3.756   1.461   3.643
 2770TIP3   OH2 8252   4.567   2.209   2.118
 2770TIP3    H1 8253   4.557   2.147   2.193
 2770TIP3    H2 8254   4.665   2.209   2.109
 2771TIP3   OH2 8255   3.476   2.614   3.224
 2771TIP3    H1 8256   3.531   2.543   3.261
 2771TIP3    H2 8257   3.507   2.690   3.276
 2772TIP3   OH2 8258   3.767   2.261   1.909
 2772TIP3    H1 8259   3.780   2.167   1.886
 2772TIP3    H2 8260   3.746   2.254   2.004
 2773TIP3   OH2 8261   3.709   2.267   2.180
 2773TIP3    H1 8262   3.783   2.239   2.236
 2773TIP3    H2 8263   3.713   2.365   2.190
 2774TIP3   OH2 8264   3.438   1.953   2.385
 2774TIP3    H1 8265   3.375   2.001   2.443
 2774TIP3    H2 8266   3.458   2.023   2.319
 2775TIP3   OH2 8267   4.608   1.591   3.275
 2775TIP3    H1 8268   4.684   1.632   3.320
 2775TIP3    H2 8269   4.590   1.512   3.330
 2776TIP3   OH2 8270   4.487   1.341   2.446
 2776TIP3    H1 8271   4.468   1.367   2.354
 2776TIP3    H2 8272   4.525   1.423   2.483
 2777TIP3   OH2 8273   3.979   2.462   2.126
 2777TIP3    H1 8274   3.892   2.486   2.164
 2777TIP3    H2 8275   3.996   2.542   2.074
 2778TIP3   OH2 8276   4.170   1.527   2.540
 2778TIP3    H1 8277   4.231   1.603   2.527
 2778TIP3    H2 8278   4.171   1.519   2.637
 2779TIP3   OH2 8279   4.442   1.843   3.346
 2779TIP3    H1 8280   4.458   1.898   3.425
 2779TIP3    H2 8281   4.492   1.763   3.366
 2780TIP3   OH2 8282   4.308   1.249   2.647
 2780TIP3    H1 8283   4.290   1.330   2.699
 2780TIP3    H2 8284   4.372   1.284   2.580
 2781TIP3   OH2 8285   3.725   2.539   2.199
 2781TIP3    H1 8286   3.696   2.610   2.138
 2781TIP3    H2 8287   3.709   2.581   2.286
 2782TIP3   OH2 8288   3.825   1.249   2.428
 2782TIP3    H1 8289   3.817   1.334   2.475
 2782TIP3    H2 8290   3.921   1.233   2.441
 2783TIP3   OH2 8291   5.079   1.752   3.332
 2783TIP3    H1 8292   4.982   1.756   3.347
 2783TIP3    H2 8293   5.080   1.705   3.247
 2784TIP3   OH2 8294   4.728   1.938   2.719
 2784TIP3    H1 8295   4.650   1.881   2.733
 2784TIP3    H2 8296   4.798   1.891   2.769
 2785TIP3   OH2 8297   3.442   2.164   2.187
 2785TIP3    H1 8298   3.514   2.229   2.197
 2785TIP3    H2 8299   3.485   2.104   2.122
 2786TIP3   OH2 8300   3.388   1.444   2.315
 2786TIP3    H1 8301   3.387   1.542   2.316
 2786TIP3    H2 8302   3.299   1.422   2.287
 2787TIP3   OH2 8303   4.696   2.901   2.666
 2787TIP3    H1 8304   4.654   2.948   2.591
 2787TIP3    H2 8305   4.791   2.919   2.645
 2788TIP3   OH2 8306   3.773   1.161   3.197
 2788TIP3    H1 8307   3.741   1.133   3.108
 2788TIP3    H2 8308   3.760   1.081   3.251
 2789TIP3   OH2 8309   3.305   2.381   2.571
 2789TIP3    H1 8310   3.247   2.413   2.641
 2789TIP3    H2 8311   3.269   2.427   2.491
 2790TIP3   OH2 8312   3.472   2.933   3.649
 2790TIP3    H1 8313   3.559   2.935   3.695
 2790TIP3    H2 8314   3.457   2.837   3.645
 2791TIP3   OH2 8315   3.944   2.882   3.694
 2791TIP3    H1 8316   4.040   2.870   3.698
 2791TIP3    H2 8317   3.920   2.821   3.622
 2792TIP3   OH2 8318   3.928   2.463   1.814
 2792TIP3    H1 8319   3.873   2.392   1.856
 2792TIP3    H2 8320   4.005   2.412   1.786
 2793TIP3   OH2 8321   4.584   2.798   3.428
 2793TIP3    H1 8322   4.580   2.728   3.497
 2793TIP3    H2 8323   4.663   2.849   3.456
 2794TIP3   OH2 8324   4.364   2.501   1.733
 2794TIP3    H1 8325   4.406   2.437   1.794
 2794TIP3    H2 8326   4.423   2.498   1.655
 2795TIP3   OH2 8327   3.596   2.332   3.849
 2795TIP3    H1 8328   3.616   2.236   3.852
 2795TIP3    H2 8329   3.511   2.333   3.801
 2796TIP3   OH2 8330   3.578   1.976   2.045
 2796TIP3    H1 8331   3.634   1.947   2.120
 2796TIP3    H2 8332   3.646   1.983   1.975
 2797TIP3   OH2 8333   4.204   2.419   3.622
 2797TIP3    H1 8334   4.162   2.439   3.536
 2797TIP3    H2 8335   4.233   2.326   3.611
 2798TIP3   OH2 8336   4.092   2.180   1.849
 2798TIP3    H1 8337   4.094   2.193   1.946
 2798TIP3    H2 8338   4.091   2.082   1.844
 2799TIP3   OH2 8339   4.702   2.430   3.232
 2799TIP3    H1 8340   4.778   2.471   3.185
 2799TIP3    H2 8341   4.632   2.495   3.215
 2800TIP3   OH2 8342   3.716   2.077   3.832
 2800TIP3    H1 8343   3.790   2.027   3.794
 2800TIP3    H2 8344   3.750   2.101   3.921
 2801TIP3   OH2 8345   3.776   1.890   2.259
 2801TIP3    H1 8346   3.751   1.858   2.348
 2801TIP3    H2 8347   3.815   1.810   2.218
 2802TIP3   OH2 8348   4.058   1.955   3.510
 2802TIP3    H1 8349   3.976   2.011   3.509
 2802TIP3    H2 8350   4.088   1.964   3.417
 2803TIP3   OH2 8351   3.887   1.683   2.101
 2803TIP3    H1 8352   3.863   1.693   2.006
 2803TIP3    H2 8353   3.984   1.687   2.095
 2804TIP3   OH2 8354   4.573   2.354   3.626
 2804TIP3    H1 8355   4.643   2.317   3.571
 2804TIP3    H2 8356   4.564   2.286   3.696
 2805TIP3   OH2 8357   4.702   2.007   1.772
 2805TIP3    H1 8358   4.682   1.966   1.686
 2805TIP3    H2 8359   4.670   2.099   1.753
 2806TIP3   OH2 8360   4.182   1.739   3.614
 2806TIP3    H1 8361   4.175   1.663   3.553
 2806TIP3    H2 8362   4.136   1.809   3.564
 2807TIP3   OH2 8363   4.179   1.527   3.421
 2807TIP3    H1 8364   4.205   1.570   3.337
 2807TIP3    H2 8365   4.084   1.508   3.402
 2808TIP3   OH2 8366   4.215   2.067   3.303
 2808TIP3    H1 8367   4.292   2.077   3.248
 2808TIP3    H2 8368   4.150   2.127   3.261
 2809TIP3   OH2 8369   4.786   2.026   3.676
 2809TIP3    H1 8370   4.834   1.942   3.682
 2809TIP3    H2 8371   4.853   2.083   3.635
 2810TIP3   OH2 8372   4.834   2.286   3.418
 2810TIP3    H1 8373   4.778   2.341   3.359
 2810TIP3    H2 8374   4.923   2.304   3.380
 2811TIP3   OH2 8375   4.060   1.844   3.856
 2811TIP3    H1 8376   3.992   1.775   3.871
 2811TIP3    H2 8377   4.086   1.827   3.764
 2812TIP3   OH2 8378   4.309   1.289   3.493
 2812TIP3    H1 8379   4.259   1.370   3.470
 2812TIP3    H2 8380   4.239   1.221   3.483
 2813TIP3   OH2 8381   4.436   1.788   3.709
 2813TIP3    H1 8382   4.415   1.772   3.803
 2813TIP3    H2 8383   4.349   1.767   3.670
 2814TIP3   OH2 8384   4.676   1.742   3.566
 2814TIP3    H1 8385   4.599   1.744   3.627
 2814TIP3    H2 8386   4.748   1.711   3.624
 2815TIP3   OH2 8387   4.913   1.687   3.715
 2815TIP3    H1 8388   4.922   1.591   3.729
 2815TIP3    H2 8389   4.905   1.721   3.807
 2816TIP3   OH2 8390   3.901   1.624   3.906
 2816TIP3    H1 8391   3.927   1.539   3.868
 2816TIP3    H2 8392   3.926   1.608   4.000
 2817TIP3   OH2 8393   4.411   1.301   3.748
 2817TIP3    H1 8394   4.472   1.225   3.741
 2817TIP3    H2 8395   4.366   1.296   3.661
 2818TIP3   OH2 8396   4.475   1.512   3.910
 2818TIP3    H1 8397   4.452   1.440   3.847
 2818TIP3    H2 8398   4.395   1.569   3.905
 2819TIP3   OH2 8399   3.695   2.740   2.011
 2819TIP3    H1 8400   3.790   2.732   1.991
 2819TIP3    H2 8401   3.667   2.794   1.934
 2820TIP3   OH2 8402   3.173   2.126   2.221
 2820TIP3    H1 8403   3.268   2.149   2.209
 2820TIP3    H2 8404   3.170   2.036   2.182
 2821TIP3   OH2 8405   3.089   2.733   2.645
 2821TIP3    H1 8406   3.025   2.672   2.604
 2821TIP3    H2 8407   3.134   2.673   2.708
 2822TIP3   OH2 8408   3.224   2.577   2.829
 2822TIP3    H1 8409   3.214   2.509   2.898
 2822TIP3    H2 8410   3.277   2.643   2.877
 2823TIP3   OH2 8411   4.953   2.986   2.628
 2823TIP3    H1 8412   4.978   3.017   2.717
 2823TIP3    H2 8413   5.021   3.027   2.572
 2824TIP3   OH2 8414   4.978   3.007   2.910
 2824TIP3    H1 8415   4.933   2.920   2.908
 2824TIP3    H2 8416   5.052   2.985   2.970
 2825TIP3   OH2 8417   5.033   2.680   3.489
 2825TIP3    H1 8418   4.959   2.693   3.551
 2825TIP3    H2 8419   5.073   2.769   3.488
 2826TIP3   OH2 8420   4.846   2.194   2.100
 2826TIP3    H1 8421   4.910   2.262   2.071
 2826TIP3    H2 8422   4.890   2.158   2.180
 2827TIP3   OH2 8423   4.973   2.061   2.305
 2827TIP3    H1 8424   4.905   2.022   2.364
 2827TIP3    H2 8425   5.036   2.101   2.369
 2828TIP3   OH2 8426   4.995   2.444   2.715
 2828TIP3    H1 8427   5.075   2.391   2.698
 2828TIP3    H2 8428   5.007   2.520   2.655
 2829TIP3   OH2 8429   4.860   2.754   2.936
 2829TIP3    H1 8430   4.785   2.790   2.987
 2829TIP3    H2 8431   4.814   2.704   2.865
 2830TIP3   OH2 8432   4.908   1.971   1.950
 2830TIP3    H1 8433   4.835   1.975   1.884
 2830TIP3    H2 8434   4.882   2.048   2.006
 2831TIP3   OH2 8435   4.780   1.641   1.902
 2831TIP3    H1 8436   4.729   1.680   1.830
 2831TIP3    H2 8437   4.758   1.546   1.892
 2832TIP3   OH2 8438   4.782   1.924   2.450
 2832TIP3    H1 8439   4.789   1.827   2.444
 2832TIP3    H2 8440   4.767   1.937   2.547
 2833TIP3   OH2 8441   3.410   2.002   3.197
 2833TIP3    H1 8442   3.412   1.959   3.109
 2833TIP3    H2 8443   3.506   2.002   3.219
 2834TIP3   OH2 8444   5.074   2.346   3.289
 2834TIP3    H1 8445   5.107   2.274   3.233
 2834TIP3    H2 8446   5.047   2.413   3.222
 2835TIP3   OH2 8447   4.724   1.373   1.879
 2835TIP3    H1 8448   4.795   1.345   1.941
 2835TIP3    H2 8449   4.648   1.320   1.907
 2836TIP3   OH2 8450   4.780   1.638   2.341
 2836TIP3    H1 8451   4.822   1.550   2.355
 2836TIP3    H2 8452   4.838   1.673   2.271
 2837TIP3   OH2 8453   4.940   1.803   2.841
 2837TIP3    H1 8454   5.025   1.828   2.800
 2837TIP3    H2 8455   4.953   1.843   2.929
 2838TIP3   OH2 8456   5.012   1.951   3.069
 2838TIP3    H1 8457   4.934   1.987   3.117
 2838TIP3    H2 8458   5.043   2.031   3.020
 2839TIP3   OH2 8459   3.629   1.672   3.890
 2839TIP3    H1 8460   3.726   1.663   3.883
 2839TIP3    H2 8461   3.608   1.588   3.933
 2840TIP3   OH2 8462   5.463   1.554   3.623
 2840TIP3    H1 8463   5.523   1.488   3.580
 2840TIP3    H2 8464   5.431   1.606   3.546
 2841TIP3   OH2 8465   4.890   1.388   2.381
 2841TIP3    H1 8466   4.937   1.372   2.466
 2841TIP3    H2 8467   4.828   1.313   2.380
 2842TIP3   OH2 8468   3.569   1.358   3.221
 2842TIP3    H1 8469   3.642   1.293   3.225
 2842TIP3    H2 8470   3.620   1.439   3.200
 2843TIP3   OH2 8471   3.403   1.645   3.258
 2843TIP3    H1 8472   3.477   1.603   3.210
 2843TIP3    H2 8473   3.451   1.719   3.297
 2844TIP3   OH2 8474   5.333   1.690   3.427
 2844TIP3    H1 8475   5.247   1.734   3.444
 2844TIP3    H2 8476   5.302   1.617   3.370
 2845TIP3   OH2 8477   4.964   1.319   2.018
 2845TIP3    H1 8478   5.006   1.250   1.962
 2845TIP3    H2 8479   5.031   1.390   2.016
 2846TIP3   OH2 8480   3.374   1.141   2.771
 2846TIP3    H1 8481   3.282   1.141   2.802
 2846TIP3    H2 8482   3.371   1.203   2.695
 2847TIP3   OH2 8483   4.532   2.856   2.282
 2847TIP3    H1 8484   4.586   2.846   2.201
 2847TIP3    H2 8485   4.585   2.920   2.333
 2848TIP3   OH2 8486   3.596   1.232   3.602
 2848TIP3    H1 8487   3.548   1.236   3.687
 2848TIP3    H2 8488   3.527   1.265   3.541
 2849TIP3   OH2 8489   3.632   2.665   3.664
 2849TIP3    H1 8490   3.541   2.635   3.649
 2849TIP3    H2 8491   3.647   2.639   3.756
 2850TIP3   OH2 8492   3.816   2.696   3.216
 2850TIP3    H1 8493   3.770   2.773   3.176
 2850TIP3    H2 8494   3.902   2.707   3.170
 2851TIP3   OH2 8495   4.253   2.935   3.352
 2851TIP3    H1 8496   4.296   2.934   3.440
 2851TIP3    H2 8497   4.319   2.987   3.301
 2852TIP3   OH2 8498   4.433   3.089   3.215
 2852TIP3    H1 8499   4.503   3.038   3.171
 2852TIP3    H2 8500   4.487   3.146   3.275
 2853TIP3   OH2 8501   5.232   1.448   3.312
 2853TIP3    H1 8502   5.142   1.441   3.276
 2853TIP3    H2 8503   5.264   1.355   3.302
 2854TIP3   OH2 8504   3.488   2.947   3.241
 2854TIP3    H1 8505   3.397   2.978   3.220
 2854TIP3    H2 8506   3.505   2.999   3.321
 2855TIP3   OH2 8507   3.725   2.928   3.100
 2855TIP3    H1 8508   3.637   2.939   3.142
 2855TIP3    H2 8509   3.707   2.959   3.009
 2856TIP3   OH2 8510   4.150   2.952   2.897
 2856TIP3    H1 8511   4.081   2.970   2.831
 2856TIP3    H2 8512   4.162   3.040   2.939
 2857TIP3   OH2 8513   4.420   2.892   2.951
 2857TIP3    H1 8514   4.327   2.910   2.929
 2857TIP3    H2 8515   4.466   2.964   2.904
 2858TIP3   OH2 8516   4.624   3.082   2.861
 2858TIP3    H1 8517   4.612   3.166   2.812
 2858TIP3    H2 8518   4.652   3.021   2.788
 2859TIP3   OH2 8519   3.399   2.738   2.983
 2859TIP3    H1 8520   3.426   2.710   3.073
 2859TIP3    H2 8521   3.472   2.697   2.932
 2860TIP3   OH2 8522   3.597   2.613   2.845
 2860TIP3    H1 8523   3.611   2.529   2.893
 2860TIP3    H2 8524   3.688   2.648   2.841
 2861TIP3   OH2 8525   3.864   2.703   2.850
 2861TIP3    H1 8526   3.893   2.610   2.840
 2861TIP3    H2 8527   3.914   2.727   2.931
 2862TIP3   OH2 8528   4.444   1.364   2.944
 2862TIP3    H1 8529   4.396   1.294   2.991
 2862TIP3    H2 8530   4.512   1.313   2.894
 2863TIP3   OH2 8531   4.957   1.240   2.835
 2863TIP3    H1 8532   4.993   1.294   2.761
 2863TIP3    H2 8533   4.862   1.262   2.831
 2864TIP3   OH2 8534   5.053   1.339   2.599
 2864TIP3    H1 8535   5.128   1.289   2.560
 2864TIP3    H2 8536   5.086   1.431   2.585
 2865TIP3   OH2 8537   3.685   1.069   2.950
 2865TIP3    H1 8538   3.592   1.038   2.949
 2865TIP3    H2 8539   3.732   0.983   2.942
 2866TIP3   OH2 8540   3.498   0.944   2.612
 2866TIP3    H1 8541   3.507   1.000   2.535
 2866TIP3    H2 8542   3.458   1.006   2.677
 2867TIP3   OH2 8543   4.133   1.099   2.826
 2867TIP3    H1 8544   4.191   1.151   2.768
 2867TIP3    H2 8545   4.147   1.142   2.912
 2868TIP3   OH2 8546   4.676   1.251   2.809
 2868TIP3    H1 8547   4.669   1.212   2.721
 2868TIP3    H2 8548   4.663   1.173   2.867
 2869TIP3   OH2 8549   4.706   1.177   2.375
 2869TIP3    H1 8550   4.622   1.223   2.396
 2869TIP3    H2 8551   4.690   1.091   2.418
 2870TIP3   OH2 8552   3.186   2.519   2.372
 2870TIP3    H1 8553   3.099   2.488   2.339
 2870TIP3    H2 8554   3.181   2.613   2.343
 2871TIP3   OH2 8555   3.593   1.108   2.350
 2871TIP3    H1 8556   3.641   1.041   2.299
 2871TIP3    H2 8557   3.666   1.158   2.391
 2872TIP3   OH2 8558   4.103   1.276   2.455
 2872TIP3    H1 8559   4.161   1.233   2.520
 2872TIP3    H2 8560   4.119   1.370   2.480
 2873TIP3   OH2 8561   3.962   2.695   1.958
 2873TIP3    H1 8562   4.050   2.719   1.921
 2873TIP3    H2 8563   3.939   2.621   1.897
 2874TIP3   OH2 8564   4.682   2.822   2.052
 2874TIP3    H1 8565   4.673   2.724   2.041
 2874TIP3    H2 8566   4.636   2.853   1.971
 2875TIP3   OH2 8567   4.138   1.371   3.969
 2875TIP3    H1 8568   4.207   1.325   3.920
 2875TIP3    H2 8569   4.107   1.300   4.030
 2876TIP3   OH2 8570   3.263   2.528   2.012
 2876TIP3    H1 8571   3.272   2.559   2.103
 2876TIP3    H2 8572   3.352   2.488   1.994
 2877TIP3   OH2 8573   4.970   1.414   3.743
 2877TIP3    H1 8574   4.987   1.384   3.835
 2877TIP3    H2 8575   5.060   1.408   3.704
 2878TIP3   OH2 8576   4.902   2.960   3.239
 2878TIP3    H1 8577   4.824   2.932   3.187
 2878TIP3    H2 8578   4.886   3.057   3.244
 2879TIP3   OH2 8579   6.173   2.338   1.999
 2879TIP3    H1 8580   6.141   2.428   1.977
 2879TIP3    H2 8581   6.099   2.285   1.964
 2880TIP3   OH2 8582   6.175   2.338   2.388
 2880TIP3    H1 8583   6.209   2.312   2.476
 2880TIP3    H2 8584   6.132   2.256   2.358
 2881TIP3   OH2 8585   5.475   2.229   2.746
 2881TIP3    H1 8586   5.503   2.157   2.804
 2881TIP3    H2 8587   5.560   2.267   2.718
 2882TIP3   OH2 8588   6.420   2.640   2.069
 2882TIP3    H1 8589   6.400   2.575   2.137
 2882TIP3    H2 8590   6.449   2.717   2.121
 2883TIP3   OH2 8591   5.449   2.645   2.472
 2883TIP3    H1 8592   5.440   2.547   2.472
 2883TIP3    H2 8593   5.545   2.653   2.457
 2884TIP3   OH2 8594   5.151   1.841   2.252
 2884TIP3    H1 8595   5.103   1.923   2.275
 2884TIP3    H2 8596   5.079   1.792   2.209
 2885TIP3   OH2 8597   5.208   2.132   2.435
 2885TIP3    H1 8598   5.258   2.054   2.469
 2885TIP3    H2 8599   5.268   2.167   2.368
 2886TIP3   OH2 8600   6.071   3.102   2.086
 2886TIP3    H1 8601   6.110   3.030   2.032
 2886TIP3    H2 8602   6.058   3.058   2.171
 2887TIP3   OH2 8603   5.967   2.562   2.436
 2887TIP3    H1 8604   6.009   2.487   2.389
 2887TIP3    H2 8605   6.049   2.610   2.462
 2888TIP3   OH2 8606   6.987   1.881   2.430
 2888TIP3    H1 8607   7.016   1.966   2.470
 2888TIP3    H2 8608   7.010   1.896   2.337
 2889TIP3   OH2 8609   6.383   2.060   2.462
 2889TIP3    H1 8610   6.426   1.975   2.481
 2889TIP3    H2 8611   6.350   2.044   2.371
 2890TIP3   OH2 8612   5.727   1.722   2.426
 2890TIP3    H1 8613   5.705   1.795   2.364
 2890TIP3    H2 8614   5.677   1.649   2.384
 2891TIP3   OH2 8615   6.419   1.817   2.049
 2891TIP3    H1 8616   6.492   1.802   2.114
 2891TIP3    H2 8617   6.471   1.851   1.973
 2892TIP3   OH2 8618   5.356   1.925   2.538
 2892TIP3    H1 8619   5.438   1.904   2.586
 2892TIP3    H2 8620   5.369   1.870   2.458
 2893TIP3   OH2 8621   5.792   2.121   2.338
 2893TIP3    H1 8622   5.887   2.098   2.346
 2893TIP3    H2 8623   5.755   2.038   2.301
 2894TIP3   OH2 8624   7.060   2.091   2.602
 2894TIP3    H1 8625   6.975   2.137   2.581
 2894TIP3    H2 8626   7.080   2.129   2.689
 2895TIP3   OH2 8627   5.718   1.708   2.865
 2895TIP3    H1 8628   5.659   1.743   2.796
 2895TIP3    H2 8629   5.663   1.725   2.944
 2896TIP3   OH2 8630   6.058   2.555   1.870
 2896TIP3    H1 8631   6.021   2.544   1.781
 2896TIP3    H2 8632   6.014   2.638   1.899
 2897TIP3   OH2 8633   5.821   2.487   2.660
 2897TIP3    H1 8634   5.759   2.555   2.695
 2897TIP3    H2 8635   5.863   2.534   2.584
 2898TIP3   OH2 8636   6.622   1.821   2.230
 2898TIP3    H1 8637   6.602   1.781   2.315
 2898TIP3    H2 8638   6.674   1.900   2.256
 2899TIP3   OH2 8639   5.592   1.820   2.645
 2899TIP3    H1 8640   5.655   1.892   2.668
 2899TIP3    H2 8641   5.640   1.779   2.570
 2900TIP3   OH2 8642   5.637   2.670   2.779
 2900TIP3    H1 8643   5.607   2.756   2.742
 2900TIP3    H2 8644   5.555   2.638   2.822
 2901TIP3   OH2 8645   5.043   2.368   1.991
 2901TIP3    H1 8646   5.004   2.396   1.906
 2901TIP3    H2 8647   5.075   2.454   2.026
 2902TIP3   OH2 8648   6.485   2.885   2.230
 2902TIP3    H1 8649   6.395   2.876   2.270
 2902TIP3    H2 8650   6.477   2.971   2.185
 2903TIP3   OH2 8651   6.780   1.779   2.596
 2903TIP3    H1 8652   6.693   1.806   2.563
 2903TIP3    H2 8653   6.840   1.813   2.526
 2904TIP3   OH2 8654   6.070   1.421   2.582
 2904TIP3    H1 8655   6.053   1.326   2.598
 2904TIP3    H2 8656   5.993   1.462   2.628
 2905TIP3   OH2 8657   6.182   2.928   1.901
 2905TIP3    H1 8658   6.233   2.845   1.883
 2905TIP3    H2 8659   6.245   2.993   1.862
 2906TIP3   OH2 8660   6.328   2.712   1.818
 2906TIP3    H1 8661   6.293   2.631   1.779
 2906TIP3    H2 8662   6.367   2.678   1.902
 2907TIP3   OH2 8663   6.711   2.791   2.577
 2907TIP3    H1 8664   6.697   2.716   2.516
 2907TIP3    H2 8665   6.691   2.868   2.518
 2908TIP3   OH2 8666   6.004   2.188   1.837
 2908TIP3    H1 8667   5.924   2.242   1.817
 2908TIP3    H2 8668   6.048   2.186   1.750
 2909TIP3   OH2 8669   5.962   1.975   1.545
 2909TIP3    H1 8670   6.028   2.028   1.593
 2909TIP3    H2 8671   6.021   1.913   1.498
 2910TIP3   OH2 8672   6.906   2.435   2.425
 2910TIP3    H1 8673   6.821   2.485   2.427
 2910TIP3    H2 8674   6.936   2.458   2.335
 2911TIP3   OH2 8675   6.351   2.272   1.803
 2911TIP3    H1 8676   6.297   2.296   1.881
 2911TIP3    H2 8677   6.436   2.248   1.846
 2912TIP3   OH2 8678   6.584   2.307   2.723
 2912TIP3    H1 8679   6.582   2.392   2.772
 2912TIP3    H2 8680   6.498   2.311   2.676
 2913TIP3   OH2 8681   5.581   2.265   2.224
 2913TIP3    H1 8682   5.541   2.208   2.155
 2913TIP3    H2 8683   5.658   2.212   2.253
 2914TIP3   OH2 8684   5.711   2.677   2.368
 2914TIP3    H1 8685   5.693   2.648   2.277
 2914TIP3    H2 8686   5.801   2.640   2.385
 2915TIP3   OH2 8687   5.720   2.240   2.583
 2915TIP3    H1 8688   5.749   2.214   2.492
 2915TIP3    H2 8689   5.762   2.328   2.593
 2916TIP3   OH2 8690   6.246   2.878   2.354
 2916TIP3    H1 8691   6.231   2.959   2.406
 2916TIP3    H2 8692   6.227   2.806   2.419
 2917TIP3   OH2 8693   5.856   2.792   2.902
 2917TIP3    H1 8694   5.798   2.857   2.947
 2917TIP3    H2 8695   5.788   2.739   2.856
 2918TIP3   OH2 8696   6.188   2.129   1.632
 2918TIP3    H1 8697   6.247   2.190   1.681
 2918TIP3    H2 8698   6.214   2.149   1.538
 2919TIP3   OH2 8699   5.572   2.328   3.042
 2919TIP3    H1 8700   5.584   2.423   3.062
 2919TIP3    H2 8701   5.489   2.339   2.991
 2920TIP3   OH2 8702   5.938   2.803   1.910
 2920TIP3    H1 8703   6.020   2.856   1.914
 2920TIP3    H2 8704   5.878   2.861   1.861
 2921TIP3   OH2 8705   5.655   2.960   2.990
 2921TIP3    H1 8706   5.620   2.968   2.899
 2921TIP3    H2 8707   5.573   2.941   3.041
 2922TIP3   OH2 8708   6.704   1.363   1.682
 2922TIP3    H1 8709   6.623   1.388   1.730
 2922TIP3    H2 8710   6.721   1.444   1.629
 2923TIP3   OH2 8711   5.450   2.111   2.025
 2923TIP3    H1 8712   5.381   2.156   1.971
 2923TIP3    H2 8713   5.410   2.024   2.037
 2924TIP3   OH2 8714   6.508   2.735   1.230
 2924TIP3    H1 8715   6.515   2.832   1.215
 2924TIP3    H2 8716   6.601   2.706   1.218
 2925TIP3   OH2 8717   5.082   2.688   2.560
 2925TIP3    H1 8718   5.178   2.680   2.558
 2925TIP3    H2 8719   5.070   2.764   2.619
 2926TIP3   OH2 8720   6.950   3.144   2.629
 2926TIP3    H1 8721   6.947   3.047   2.643
 2926TIP3    H2 8722   6.866   3.170   2.672
 2927TIP3   OH2 8723   6.055   2.921   2.761
 2927TIP3    H1 8724   6.050   3.015   2.791
 2927TIP3    H2 8725   5.982   2.882   2.813
 2928TIP3   OH2 8726   5.820   3.051   1.711
 2928TIP3    H1 8727   5.773   3.031   1.628
 2928TIP3    H2 8728   5.784   3.138   1.737
 2929TIP3   OH2 8729   5.254   2.901   2.096
 2929TIP3    H1 8730   5.300   2.892   2.183
 2929TIP3    H2 8731   5.204   2.818   2.093
 2930TIP3   OH2 8732   6.017   2.958   1.347
 2930TIP3    H1 8733   6.075   2.886   1.312
 2930TIP3    H2 8734   6.051   2.967   1.438
 2931TIP3   OH2 8735   6.070   3.005   1.616
 2931TIP3    H1 8736   5.981   3.014   1.657
 2931TIP3    H2 8737   6.121   2.966   1.690
 2932TIP3   OH2 8738   6.836   2.268   2.901
 2932TIP3    H1 8739   6.754   2.280   2.850
 2932TIP3    H2 8740   6.852   2.172   2.890
 2933TIP3   OH2 8741   5.834   1.501   2.711
 2933TIP3    H1 8742   5.746   1.470   2.681
 2933TIP3    H2 8743   5.807   1.582   2.759
 2934TIP3   OH2 8744   6.370   1.615   2.904
 2934TIP3    H1 8745   6.439   1.587   2.967
 2934TIP3    H2 8746   6.287   1.595   2.951
 2935TIP3   OH2 8747   6.604   2.044   2.821
 2935TIP3    H1 8748   6.553   2.044   2.905
 2935TIP3    H2 8749   6.582   2.132   2.784
 2936TIP3   OH2 8750   6.268   2.170   1.378
 2936TIP3    H1 8751   6.230   2.150   1.290
 2936TIP3    H2 8752   6.352   2.212   1.352
 2937TIP3   OH2 8753   5.977   1.547   1.680
 2937TIP3    H1 8754   5.942   1.543   1.771
 2937TIP3    H2 8755   5.938   1.465   1.644
 2938TIP3   OH2 8756   5.772   2.015   2.724
 2938TIP3    H1 8757   5.716   2.031   2.803
 2938TIP3    H2 8758   5.755   2.097   2.672
 2939TIP3   OH2 8759   5.650   1.903   2.240
 2939TIP3    H1 8760   5.557   1.878   2.259
 2939TIP3    H2 8761   5.661   1.863   2.151
 2940TIP3   OH2 8762   6.140   1.987   1.971
 2940TIP3    H1 8763   6.090   2.059   1.926
 2940TIP3    H2 8764   6.195   1.954   1.898
 2941TIP3   OH2 8765   6.315   2.262   3.053
 2941TIP3    H1 8766   6.293   2.190   3.115
 2941TIP3    H2 8767   6.409   2.277   3.074
 2942TIP3   OH2 8768   6.295   2.014   2.206
 2942TIP3    H1 8769   6.232   2.042   2.136
 2942TIP3    H2 8770   6.331   1.935   2.160
 2943TIP3   OH2 8771   5.592   2.040   2.927
 2943TIP3    H1 8772   5.611   2.104   2.997
 2943TIP3    H2 8773   5.571   1.960   2.979
 2944TIP3   OH2 8774   5.636   1.525   1.645
 2944TIP3    H1 8775   5.624   1.524   1.742
 2944TIP3    H2 8776   5.559   1.578   1.618
 2945TIP3   OH2 8777   5.179   1.562   2.517
 2945TIP3    H1 8778   5.251   1.598   2.572
 2945TIP3    H2 8779   5.223   1.538   2.435
 2946TIP3   OH2 8780   5.139   1.545   2.035
 2946TIP3    H1 8781   5.186   1.583   1.956
 2946TIP3    H2 8782   5.080   1.620   2.055
 2947TIP3   OH2 8783   6.308   2.258   2.627
 2947TIP3    H1 8784   6.341   2.187   2.567
 2947TIP3    H2 8785   6.275   2.204   2.702
 2948TIP3   OH2 8786   5.985   1.720   2.300
 2948TIP3    H1 8787   5.902   1.721   2.353
 2948TIP3    H2 8788   6.053   1.718   2.369
 2949TIP3   OH2 8789   5.412   1.783   2.308
 2949TIP3    H1 8790   5.317   1.791   2.279
 2949TIP3    H2 8791   5.434   1.691   2.284
 2950TIP3   OH2 8792   5.675   1.775   2.000
 2950TIP3    H1 8793   5.768   1.791   1.977
 2950TIP3    H2 8794   5.627   1.797   1.916
 2951TIP3   OH2 8795   6.470   1.799   2.505
 2951TIP3    H1 8796   6.437   1.814   2.597
 2951TIP3    H2 8797   6.400   1.740   2.471
 2952TIP3   OH2 8798   5.528   1.810   1.773
 2952TIP3    H1 8799   5.459   1.765   1.722
 2952TIP3    H2 8800   5.581   1.850   1.701
 2953TIP3   OH2 8801   6.645   3.488   2.725
 2953TIP3    H1 8802   6.640   3.516   2.632
 2953TIP3    H2 8803   6.723   3.538   2.756
 2954TIP3   OH2 8804   5.618   2.533   3.219
 2954TIP3    H1 8805   5.679   2.606   3.243
 2954TIP3    H2 8806   5.550   2.579   3.163
 2955TIP3   OH2 8807   6.059   2.054   2.398
 2955TIP3    H1 8808   6.133   2.017   2.348
 2955TIP3    H2 8809   6.066   2.008   2.484
 2956TIP3   OH2 8810   5.578   1.540   2.283
 2956TIP3    H1 8811   5.541   1.463   2.332
 2956TIP3    H2 8812   5.618   1.496   2.206
 2957TIP3   OH2 8813   6.038   1.952   2.687
 2957TIP3    H1 8814   5.946   1.985   2.700
 2957TIP3    H2 8815   6.092   2.016   2.737
 2958TIP3   OH2 8816   5.773   2.338   1.784
 2958TIP3    H1 8817   5.699   2.275   1.771
 2958TIP3    H2 8818   5.751   2.373   1.874
 2959TIP3   OH2 8819   6.670   2.576   2.408
 2959TIP3    H1 8820   6.694   2.628   2.329
 2959TIP3    H2 8821   6.586   2.534   2.381
 2960TIP3   OH2 8822   6.231   1.645   1.660
 2960TIP3    H1 8823   6.133   1.627   1.662
 2960TIP3    H2 8824   6.236   1.741   1.675
 2961TIP3   OH2 8825   6.166   2.657   2.784
 2961TIP3    H1 8826   6.206   2.650   2.871
 2961TIP3    H2 8827   6.132   2.748   2.783
 2962TIP3   OH2 8828   6.297   1.902   1.754
 2962TIP3    H1 8829   6.393   1.909   1.765
 2962TIP3    H2 8830   6.276   1.981   1.700
 2963TIP3   OH2 8831   5.469   2.369   2.455
 2963TIP3    H1 8832   5.506   2.338   2.370
 2963TIP3    H2 8833   5.500   2.302   2.517
 2964TIP3   OH2 8834   5.920   2.490   1.611
 2964TIP3    H1 8835   5.871   2.575   1.614
 2964TIP3    H2 8836   5.864   2.435   1.670
 2965TIP3   OH2 8837   6.076   2.398   3.092
 2965TIP3    H1 8838   6.018   2.343   3.037
 2965TIP3    H2 8839   6.164   2.365   3.064
 2966TIP3   OH2 8840   6.330   2.913   2.683
 2966TIP3    H1 8841   6.233   2.918   2.693
 2966TIP3    H2 8842   6.359   2.969   2.758
 2967TIP3   OH2 8843   6.737   1.995   1.585
 2967TIP3    H1 8844   6.677   1.951   1.520
 2967TIP3    H2 8845   6.735   2.085   1.545
 2968TIP3   OH2 8846   6.961   2.851   2.665
 2968TIP3    H1 8847   6.863   2.845   2.656
 2968TIP3    H2 8848   6.987   2.821   2.575
 2969TIP3   OH2 8849   6.447   2.811   1.496
 2969TIP3    H1 8850   6.414   2.742   1.555
 2969TIP3    H2 8851   6.456   2.764   1.411
 2970TIP3   OH2 8852   6.437   2.440   2.326
 2970TIP3    H1 8853   6.344   2.416   2.339
 2970TIP3    H2 8854   6.470   2.360   2.281
 2971TIP3   OH2 8855   5.570   2.670   2.088
 2971TIP3    H1 8856   5.566   2.750   2.031
 2971TIP3    H2 8857   5.476   2.651   2.098
 2972TIP3   OH2 8858   5.130   1.971   1.786
 2972TIP3    H1 8859   5.176   2.054   1.808
 2972TIP3    H2 8860   5.055   1.974   1.849
 2973TIP3   OH2 8861   5.696   2.430   2.026
 2973TIP3    H1 8862   5.665   2.521   2.045
 2973TIP3    H2 8863   5.660   2.381   2.102
 2974TIP3   OH2 8864   5.837   3.009   2.552
 2974TIP3    H1 8865   5.877   3.083   2.501
 2974TIP3    H2 8866   5.915   2.974   2.598
 2975TIP3   OH2 8867   5.485   2.906   1.937
 2975TIP3    H1 8868   5.399   2.916   1.983
 2975TIP3    H2 8869   5.517   2.999   1.939
 2976TIP3   OH2 8870   6.218   2.645   2.515
 2976TIP3    H1 8871   6.209   2.642   2.612
 2976TIP3    H2 8872   6.299   2.594   2.502
 2977TIP3   OH2 8873   6.202   2.543   1.395
 2977TIP3    H1 8874   6.253   2.517   1.475
 2977TIP3    H2 8875   6.114   2.511   1.418
 2978TIP3   OH2 8876   6.471   3.174   2.559
 2978TIP3    H1 8877   6.389   3.123   2.552
 2978TIP3    H2 8878   6.457   3.241   2.488
 2979TIP3   OH2 8879   6.538   3.011   1.213
 2979TIP3    H1 8880   6.576   3.086   1.164
 2979TIP3    H2 8881   6.457   3.054   1.248
 2980TIP3   OH2 8882   5.550   1.790   3.075
 2980TIP3    H1 8883   5.453   1.797   3.086
 2980TIP3    H2 8884   5.574   1.734   3.150
 2981TIP3   OH2 8885   6.362   2.473   1.610
 2981TIP3    H1 8886   6.351   2.406   1.680
 2981TIP3    H2 8887   6.459   2.469   1.597
 2982TIP3   OH2 8888   5.263   2.870   2.710
 2982TIP3    H1 8889   5.293   2.791   2.758
 2982TIP3    H2 8890   5.297   2.941   2.766
 2983TIP3   OH2 8891   5.568   2.517   1.398
 2983TIP3    H1 8892   5.576   2.424   1.370
 2983TIP3    H2 8893   5.542   2.508   1.492
 2984TIP3   OH2 8894   5.506   2.524   1.669
 2984TIP3    H1 8895   5.583   2.500   1.722
 2984TIP3    H2 8896   5.508   2.623   1.674
 2985TIP3   OH2 8897   5.240   2.214   1.872
 2985TIP3    H1 8898   5.174   2.260   1.928
 2985TIP3    H2 8899   5.254   2.282   1.803
 2986TIP3   OH2 8900   6.397   1.854   2.766
 2986TIP3    H1 8901   6.479   1.891   2.801
 2986TIP3    H2 8902   6.385   1.772   2.819
 2987TIP3   OH2 8903   6.280   1.597   1.935
 2987TIP3    H1 8904   6.263   1.617   1.840
 2987TIP3    H2 8905   6.318   1.682   1.967
 2988TIP3   OH2 8906   5.777   2.718   1.621
 2988TIP3    H1 8907   5.690   2.747   1.654
 2988TIP3    H2 8908   5.787   2.777   1.544
 2989TIP3   OH2 8909   5.960   1.785   2.031
 2989TIP3    H1 8910   6.024   1.858   2.013
 2989TIP3    H2 8911   5.968   1.777   2.129
 2990TIP3   OH2 8912   6.232   2.099   2.835
 2990TIP3    H1 8913   6.261   2.150   2.914
 2990TIP3    H2 8914   6.285   2.017   2.842
 2991TIP3   OH2 8915   6.103   1.504   2.130
 2991TIP3    H1 8916   6.090   1.584   2.184
 2991TIP3    H2 8917   6.168   1.537   2.064
 2992TIP3   OH2 8918   5.522   2.797   1.685
 2992TIP3    H1 8919   5.493   2.867   1.623
 2992TIP3    H2 8920   5.506   2.839   1.772
 2993TIP3   OH2 8921   5.618   1.511   1.922
 2993TIP3    H1 8922   5.616   1.601   1.959
 2993TIP3    H2 8923   5.715   1.494   1.929
 2994TIP3   OH2 8924   6.871   2.001   2.823
 2994TIP3    H1 8925   6.772   2.000   2.827
 2994TIP3    H2 8926   6.884   1.962   2.735
 2995TIP3   OH2 8927   6.523   2.195   2.206
 2995TIP3    H1 8928   6.446   2.136   2.217
 2995TIP3    H2 8929   6.593   2.147   2.255
 2996TIP3   OH2 8930   5.237   2.418   1.675
 2996TIP3    H1 8931   5.306   2.487   1.682
 2996TIP3    H2 8932   5.280   2.361   1.608
 2997TIP3   OH2 8933   5.178   1.700   1.812
 2997TIP3    H1 8934   5.183   1.798   1.808
 2997TIP3    H2 8935   5.097   1.684   1.762
 2998TIP3   OH2 8936   6.494   3.155   2.153
 2998TIP3    H1 8937   6.451   3.202   2.078
 2998TIP3    H2 8938   6.588   3.173   2.132
 2999TIP3   OH2 8939   5.571   1.420   2.679
 2999TIP3    H1 8940   5.539   1.387   2.592
 2999TIP3    H2 8941   5.558   1.342   2.736
 3000TIP3   OH2 8942   5.103   2.637   2.059
 3000TIP3    H1 8943   5.044   2.668   2.129
 3000TIP3    H2 8944   5.065   2.683   1.979
 3001TIP3   OH2 8945   5.267   3.187   3.134
 3001TIP3    H1 8946   5.353   3.188   3.181
 3001TIP3    H2 8947   5.248   3.092   3.131
 3002TIP3   OH2 8948   5.741   3.138   3.184
 3002TIP3    H1 8949   5.838   3.130   3.185
 3002TIP3    H2 8950   5.718   3.078   3.111
 3003TIP3   OH2 8951   5.731   2.723   1.318
 3003TIP3    H1 8952   5.674   2.649   1.348
 3003TIP3    H2 8953   5.795   2.675   1.262
 3004TIP3   OH2 8954   6.383   3.053   2.914
 3004TIP3    H1 8955   6.379   2.984   2.984
 3004TIP3    H2 8956   6.460   3.107   2.942
 3005TIP3   OH2 8957   6.163   2.760   1.222
 3005TIP3    H1 8958   6.200   2.692   1.282
 3005TIP3    H2 8959   6.221   2.753   1.144
 3006TIP3   OH2 8960   5.349   2.629   3.346
 3006TIP3    H1 8961   5.392   2.544   3.355
 3006TIP3    H2 8962   5.319   2.624   3.253
 3007TIP3   OH2 8963   5.373   2.232   1.531
 3007TIP3    H1 8964   5.432   2.207   1.604
 3007TIP3    H2 8965   5.439   2.240   1.458
 3008TIP3   OH2 8966   6.002   2.677   3.107
 3008TIP3    H1 8967   5.962   2.700   3.021
 3008TIP3    H2 8968   6.034   2.585   3.092
 3009TIP3   OH2 8969   5.898   2.437   1.339
 3009TIP3    H1 8970   5.893   2.450   1.436
 3009TIP3    H2 8971   5.894   2.339   1.333
 3010TIP3   OH2 8972   6.494   2.689   2.718
 3010TIP3    H1 8973   6.571   2.729   2.673
 3010TIP3    H2 8974   6.426   2.758   2.701
 3011TIP3   OH2 8975   5.576   2.145   1.747
 3011TIP3    H1 8976   5.551   2.104   1.831
 3011TIP3    H2 8977   5.616   2.070   1.698
 3012TIP3   OH2 8978   5.847   2.210   2.982
 3012TIP3    H1 8979   5.770   2.268   2.971
 3012TIP3    H2 8980   5.902   2.237   2.904
 3013TIP3   OH2 8981   5.684   1.940   1.589
 3013TIP3    H1 8982   5.658   1.948   1.495
 3013TIP3    H2 8983   5.782   1.942   1.581
 3014TIP3   OH2 8984   6.365   2.608   3.111
 3014TIP3    H1 8985   6.442   2.578   3.061
 3014TIP3    H2 8986   6.362   2.543   3.184
 3015TIP3   OH2 8987   6.501   2.264   1.259
 3015TIP3    H1 8988   6.480   2.221   1.174
 3015TIP3    H2 8989   6.468   2.355   1.238
 3016TIP3   OH2 8990   5.972   1.999   3.106
 3016TIP3    H1 8991   5.974   1.919   3.049
 3016TIP3    H2 8992   5.929   2.064   3.047
 3017TIP3   OH2 8993   5.976   1.786   2.915
 3017TIP3    H1 8994   6.005   1.825   2.830
 3017TIP3    H2 8995   5.883   1.762   2.895
 3018TIP3   OH2 8996   5.996   2.320   2.790
 3018TIP3    H1 8997   6.083   2.333   2.748
 3018TIP3    H2 8998   5.941   2.385   2.742
 3019TIP3   OH2 8999   6.583   2.283   3.163
 3019TIP3    H1 9000   6.632   2.199   3.165
 3019TIP3    H2 9001   6.649   2.343   3.125
 3020TIP3   OH2 9002   6.622   2.538   2.901
 3020TIP3    H1 9003   6.565   2.594   2.843
 3020TIP3    H2 9004   6.710   2.560   2.863
 3021TIP3   OH2 9005   5.814   2.122   3.314
 3021TIP3    H1 9006   5.771   2.039   3.344
 3021TIP3    H2 9007   5.869   2.087   3.241
 3022TIP3   OH2 9008   6.107   1.545   2.984
 3022TIP3    H1 9009   6.057   1.627   2.960
 3022TIP3    H2 9010   6.039   1.476   2.971
 3023TIP3   OH2 9011   6.234   2.045   3.196
 3023TIP3    H1 9012   6.217   2.030   3.291
 3023TIP3    H2 9013   6.145   2.023   3.161
 3024TIP3   OH2 9014   6.474   2.002   3.053
 3024TIP3    H1 9015   6.398   2.000   3.115
 3024TIP3    H2 9016   6.547   1.970   3.110
 3025TIP3   OH2 9017   6.704   1.943   3.203
 3025TIP3    H1 9018   6.716   1.846   3.216
 3025TIP3    H2 9019   6.699   1.976   3.295
 3026TIP3   OH2 9020   5.701   1.881   3.391
 3026TIP3    H1 9021   5.696   1.789   3.358
 3026TIP3    H2 9022   5.734   1.864   3.482
 3027TIP3   OH2 9023   6.199   1.554   3.242
 3027TIP3    H1 9024   6.265   1.483   3.234
 3027TIP3    H2 9025   6.160   1.551   3.153
 3028TIP3   OH2 9026   6.268   1.769   3.398
 3028TIP3    H1 9027   6.247   1.697   3.335
 3028TIP3    H2 9028   6.188   1.826   3.390
 3029TIP3   OH2 9029   5.490   3.001   1.497
 3029TIP3    H1 9030   5.585   2.997   1.475
 3029TIP3    H2 9031   5.454   3.036   1.414
 3030TIP3   OH2 9032   4.969   2.382   1.712
 3030TIP3    H1 9033   5.063   2.404   1.697
 3030TIP3    H2 9034   4.963   2.294   1.669
 3031TIP3   OH2 9035   4.887   2.991   2.132
 3031TIP3    H1 9036   4.821   2.931   2.091
 3031TIP3    H2 9037   4.931   2.930   2.195
 3032TIP3   OH2 9038   5.021   2.833   2.315
 3032TIP3    H1 9039   5.010   2.766   2.385
 3032TIP3    H2 9040   5.072   2.900   2.365
 3033TIP3   OH2 9041   6.751   3.237   2.116
 3033TIP3    H1 9042   6.773   3.274   2.204
 3033TIP3    H2 9043   6.812   3.284   2.058
 3034TIP3   OH2 9044   6.773   3.263   2.398
 3034TIP3    H1 9045   6.730   3.175   2.394
 3034TIP3    H2 9046   6.850   3.242   2.453
 3035TIP3   OH2 9047   6.825   2.938   2.972
 3035TIP3    H1 9048   6.752   2.950   3.036
 3035TIP3    H2 9049   6.866   3.027   2.974
 3036TIP3   OH2 9050   6.641   2.451   1.588
 3036TIP3    H1 9051   6.705   2.518   1.557
 3036TIP3    H2 9052   6.687   2.415   1.666
 3037TIP3   OH2 9053   6.769   2.319   1.793
 3037TIP3    H1 9054   6.700   2.278   1.850
 3037TIP3    H2 9055   6.831   2.356   1.858
 3038TIP3   OH2 9056   6.826   2.716   2.226
 3038TIP3    H1 9057   6.876   2.648   2.177
 3038TIP3    H2 9058   6.822   2.789   2.161
 3039TIP3   OH2 9059   6.650   3.011   2.419
 3039TIP3    H1 9060   6.578   3.056   2.468
 3039TIP3    H2 9061   6.601   2.968   2.346
 3040TIP3   OH2 9062   6.705   2.229   1.438
 3040TIP3    H1 9063   6.633   2.228   1.371
 3040TIP3    H2 9064   6.675   2.305   1.492
 3041TIP3   OH2 9065   6.576   1.903   1.389
 3041TIP3    H1 9066   6.526   1.932   1.312
 3041TIP3    H2 9067   6.551   1.808   1.390
 3042TIP3   OH2 9068   6.579   2.180   1.937
 3042TIP3    H1 9069   6.585   2.084   1.928
 3042TIP3    H2 9070   6.564   2.191   2.033
 3043TIP3   OH2 9071   5.205   2.252   2.690
 3043TIP3    H1 9072   5.200   2.220   2.597
 3043TIP3    H2 9073   5.302   2.255   2.704
 3044TIP3   OH2 9074   6.869   2.603   2.798
 3044TIP3    H1 9075   6.940   2.537   2.783
 3044TIP3    H2 9076   6.891   2.671   2.732
 3045TIP3   OH2 9077   7.051   2.401   2.801
 3045TIP3    H1 9078   6.976   2.354   2.843
 3045TIP3    H2 9079   7.124   2.339   2.821
 3046TIP3   OH2 9080   6.510   1.642   1.394
 3046TIP3    H1 9081   6.584   1.595   1.437
 3046TIP3    H2 9082   6.439   1.575   1.392
 3047TIP3   OH2 9083   6.579   1.896   1.829
 3047TIP3    H1 9084   6.620   1.808   1.843
 3047TIP3    H2 9085   6.633   1.929   1.756
 3048TIP3   OH2 9086   6.735   2.062   2.329
 3048TIP3    H1 9087   6.820   2.087   2.285
 3048TIP3    H2 9088   6.751   2.102   2.416
 3049TIP3   OH2 9089   6.809   2.212   2.557
 3049TIP3    H1 9090   6.732   2.246   2.605
 3049TIP3    H2 9091   6.842   2.293   2.512
 3050TIP3   OH2 9092   5.439   1.962   3.364
 3050TIP3    H1 9093   5.533   1.938   3.368
 3050TIP3    H2 9094   5.398   1.882   3.400
 3051TIP3   OH2 9095   7.261   1.807   3.113
 3051TIP3    H1 9096   7.319   1.742   3.069
 3051TIP3    H2 9097   7.227   1.858   3.036
 3052TIP3   OH2 9098   6.687   1.645   1.869
 3052TIP3    H1 9099   6.733   1.627   1.953
 3052TIP3    H2 9100   6.625   1.570   1.866
 3053TIP3   OH2 9101   5.386   1.629   2.687
 3053TIP3    H1 9102   5.449   1.554   2.695
 3053TIP3    H2 9103   5.447   1.704   2.680
 3054TIP3   OH2 9104   5.185   1.901   2.765
 3054TIP3    H1 9105   5.237   1.906   2.682
 3054TIP3    H2 9106   5.190   1.992   2.798
 3055TIP3   OH2 9107   7.124   1.937   2.918
 3055TIP3    H1 9108   7.038   1.982   2.930
 3055TIP3    H2 9109   7.095   1.864   2.860
 3056TIP3   OH2 9110   6.766   1.568   1.508
 3056TIP3    H1 9111   6.805   1.505   1.445
 3056TIP3    H2 9112   6.825   1.646   1.499
 3057TIP3   OH2 9113   5.172   1.401   2.261
 3057TIP3    H1 9114   5.080   1.398   2.293
 3057TIP3    H2 9115   5.164   1.462   2.184
 3058TIP3   OH2 9116   6.330   3.111   1.770
 3058TIP3    H1 9117   6.383   3.102   1.688
 3058TIP3    H2 9118   6.381   3.178   1.819
 3059TIP3   OH2 9119   5.392   1.483   3.076
 3059TIP3    H1 9120   5.340   1.482   3.159
 3059TIP3    H2 9121   5.328   1.525   3.015
 3060TIP3   OH2 9122   5.434   2.918   3.149
 3060TIP3    H1 9123   5.350   2.875   3.125
 3060TIP3    H2 9124   5.439   2.899   3.243
 3061TIP3   OH2 9125   5.611   2.947   2.706
 3061TIP3    H1 9126   5.563   3.022   2.666
 3061TIP3    H2 9127   5.696   2.959   2.659
 3062TIP3   OH2 9128   6.049   3.189   2.837
 3062TIP3    H1 9129   6.091   3.190   2.926
 3062TIP3    H2 9130   6.114   3.243   2.786
 3063TIP3   OH2 9131   6.229   3.346   2.702
 3063TIP3    H1 9132   6.300   3.298   2.658
 3063TIP3    H2 9133   6.281   3.403   2.763
 3064TIP3   OH2 9134   7.026   1.702   2.800
 3064TIP3    H1 9135   6.937   1.692   2.762
 3064TIP3    H2 9136   7.061   1.610   2.790
 3065TIP3   OH2 9137   5.286   3.206   2.728
 3065TIP3    H1 9138   5.195   3.235   2.706
 3065TIP3    H2 9139   5.300   3.256   2.810
 3066TIP3   OH2 9140   5.522   3.181   2.587
 3066TIP3    H1 9141   5.434   3.194   2.630
 3066TIP3    H2 9142   5.503   3.213   2.496
 3067TIP3   OH2 9143   5.946   3.207   2.385
 3067TIP3    H1 9144   5.877   3.226   2.318
 3067TIP3    H2 9145   5.958   3.295   2.426
 3068TIP3   OH2 9146   6.216   3.146   2.437
 3068TIP3    H1 9147   6.123   3.166   2.417
 3068TIP3    H2 9148   6.261   3.219   2.391
 3069TIP3   OH2 9149   6.419   3.337   2.346
 3069TIP3    H1 9150   6.407   3.423   2.300
 3069TIP3    H2 9151   6.447   3.279   2.273
 3070TIP3   OH2 9152   5.195   2.997   2.469
 3070TIP3    H1 9153   5.220   2.967   2.559
 3070TIP3    H2 9154   5.268   2.955   2.418
 3071TIP3   OH2 9155   5.392   2.871   2.331
 3071TIP3    H1 9156   5.407   2.788   2.382
 3071TIP3    H2 9157   5.483   2.907   2.327
 3072TIP3   OH2 9158   5.660   2.962   2.336
 3072TIP3    H1 9159   5.690   2.870   2.324
 3072TIP3    H2 9160   5.708   2.984   2.418
 3073TIP3   OH2 9161   6.237   1.621   2.426
 3073TIP3    H1 9162   6.192   1.548   2.473
 3073TIP3    H2 9163   6.308   1.575   2.377
 3074TIP3   OH2 9164   6.751   1.500   2.322
 3074TIP3    H1 9165   6.788   1.551   2.247
 3074TIP3    H2 9166   6.656   1.522   2.316
 3075TIP3   OH2 9167   6.850   1.595   2.087
 3075TIP3    H1 9168   6.925   1.546   2.049
 3075TIP3    H2 9169   6.882   1.688   2.073
 3076TIP3   OH2 9170   5.480   1.326   2.432
 3076TIP3    H1 9171   5.388   1.294   2.436
 3076TIP3    H2 9172   5.528   1.241   2.428
 3077TIP3   OH2 9173   5.271   1.199   2.085
 3077TIP3    H1 9174   5.300   1.256   2.011
 3077TIP3    H2 9175   5.243   1.266   2.151
 3078TIP3   OH2 9176   5.930   1.356   2.315
 3078TIP3    H1 9177   5.984   1.404   2.250
 3078TIP3    H2 9178   5.955   1.400   2.398
 3079TIP3   OH2 9179   6.467   1.508   2.298
 3079TIP3    H1 9180   6.467   1.469   2.210
 3079TIP3    H2 9181   6.457   1.429   2.355
 3080TIP3   OH2 9182   6.503   1.434   1.863
 3080TIP3    H1 9183   6.418   1.479   1.878
 3080TIP3    H2 9184   6.487   1.348   1.908
 3081TIP3   OH2 9185   4.983   2.776   1.860
 3081TIP3    H1 9186   4.897   2.742   1.827
 3081TIP3    H2 9187   4.976   2.868   1.830
 3082TIP3   OH2 9188   5.389   1.355   1.844
 3082TIP3    H1 9189   5.436   1.292   1.786
 3082TIP3    H2 9190   5.463   1.409   1.879
 3083TIP3   OH2 9191   5.894   1.535   1.944
 3083TIP3    H1 9192   5.956   1.488   2.003
 3083TIP3    H2 9193   5.916   1.628   1.968
 3084TIP3   OH2 9194   5.758   2.962   1.444
 3084TIP3    H1 9195   5.846   2.982   1.407
 3084TIP3    H2 9196   5.735   2.885   1.387
 3085TIP3   OH2 9197   6.478   3.078   1.539
 3085TIP3    H1 9198   6.471   2.980   1.528
 3085TIP3    H2 9199   6.431   3.109   1.458
 3086TIP3   OH2 9200   5.688   1.607   3.327
 3086TIP3    H1 9201   5.652   1.537   3.383
 3086TIP3    H2 9202   5.782   1.606   3.355
 3087TIP3   OH2 9203   5.940   1.607   3.445
 3087TIP3    H1 9204   6.024   1.580   3.404
 3087TIP3    H2 9205   5.927   1.535   3.511
 3088TIP3   OH2 9206   5.057   2.778   1.499
 3088TIP3    H1 9207   5.070   2.811   1.589
 3088TIP3    H2 9208   5.145   2.740   1.477
 3089TIP3   OH2 9209   6.766   1.672   3.230
 3089TIP3    H1 9210   6.784   1.640   3.322
 3089TIP3    H2 9211   6.855   1.665   3.190
 3090TIP3   OH2 9212   6.699   3.218   2.723
 3090TIP3    H1 9213   6.621   3.190   2.672
 3090TIP3    H2 9214   6.682   3.315   2.729
 3091TIP3   OH2 9215   7.264   2.483   2.235
 3091TIP3    H1 9216   7.290   2.414   2.299
 3091TIP3    H2 9217   7.341   2.542   2.239
 3092TIP3   OH2 9218   7.237   2.900   1.960
 3092TIP3    H1 9219   7.230   2.803   1.961
 3092TIP3    H2 9220   7.333   2.911   1.948
 3093TIP3   OH2 9221   6.943   2.097   1.740
 3093TIP3    H1 9222   6.895   2.180   1.760
 3093TIP3    H2 9223   6.873   2.048   1.694
 3094TIP3   OH2 9224   7.003   2.388   1.925
 3094TIP3    H1 9225   7.054   2.310   1.957
 3094TIP3    H2 9226   7.060   2.421   1.854
 3095TIP3   OH2 9227   7.872   3.319   1.551
 3095TIP3    H1 9228   7.967   3.295   1.552
 3095TIP3    H2 9229   7.857   3.335   1.646
 3096TIP3   OH2 9230   7.779   2.801   1.922
 3096TIP3    H1 9231   7.784   2.783   1.827
 3096TIP3    H2 9232   7.854   2.863   1.936
 3097TIP3   OH2 9233   7.495   1.980   1.929
 3097TIP3    H1 9234   7.509   2.049   1.861
 3097TIP3    H2 9235   7.452   1.910   1.876
 3098TIP3   OH2 9236   7.151   2.181   2.024
 3098TIP3    H1 9237   7.232   2.161   2.075
 3098TIP3    H2 9238   7.168   2.128   1.943
 3099TIP3   OH2 9239   7.575   2.381   1.815
 3099TIP3    H1 9240   7.667   2.350   1.828
 3099TIP3    H2 9241   7.532   2.298   1.785
 3100TIP3   OH2 9242   7.518   1.969   2.361
 3100TIP3    H1 9243   7.462   2.003   2.289
 3100TIP3    H2 9244   7.461   1.989   2.438
 3101TIP3   OH2 9245   7.624   2.737   2.153
 3101TIP3    H1 9246   7.561   2.805   2.186
 3101TIP3    H2 9247   7.668   2.785   2.079
 3102TIP3   OH2 9248   7.380   2.080   2.148
 3102TIP3    H1 9249   7.444   2.153   2.167
 3102TIP3    H2 9250   7.424   2.039   2.070
 3103TIP3   OH2 9251   7.453   2.935   2.241
 3103TIP3    H1 9252   7.428   3.023   2.206
 3103TIP3    H2 9253   7.373   2.917   2.295
 3104TIP3   OH2 9254   6.839   2.625   1.478
 3104TIP3    H1 9255   6.798   2.651   1.393
 3104TIP3    H2 9256   6.870   2.711   1.512
 3105TIP3   OH2 9257   7.365   2.524   1.708
 3105TIP3    H1 9258   7.328   2.466   1.638
 3105TIP3    H2 9259   7.443   2.473   1.738
 3106TIP3   OH2 9260   7.496   2.939   1.851
 3106TIP3    H1 9261   7.471   2.911   1.761
 3106TIP3    H2 9262   7.580   2.893   1.866
 3107TIP3   OH2 9263   7.516   2.496   2.063
 3107TIP3    H1 9264   7.542   2.472   1.972
 3107TIP3    H2 9265   7.557   2.584   2.076
 3108TIP3   OH2 9266   7.650   3.044   2.400
 3108TIP3    H1 9267   7.589   3.110   2.440
 3108TIP3    H2 9268   7.587   2.995   2.344
 3109TIP3   OH2 9269   7.402   2.615   2.493
 3109TIP3    H1 9270   7.405   2.703   2.534
 3109TIP3    H2 9271   7.309   2.590   2.508
 3110TIP3   OH2 9272   7.747   3.100   1.429
 3110TIP3    H1 9273   7.771   3.190   1.459
 3110TIP3    H2 9274   7.685   3.118   1.356
 3111TIP3   OH2 9275   7.448   3.215   2.475
 3111TIP3    H1 9276   7.412   3.222   2.385
 3111TIP3    H2 9277   7.367   3.194   2.527
 3112TIP3   OH2 9278   7.246   2.365   1.508
 3112TIP3    H1 9279   7.178   2.412   1.455
 3112TIP3    H2 9280   7.200   2.283   1.528
 3113TIP3   OH2 9281   7.025   2.753   2.422
 3113TIP3    H1 9282   6.957   2.735   2.354
 3113TIP3    H2 9283   7.062   2.664   2.440
 3114TIP3   OH2 9284   6.881   2.944   2.055
 3114TIP3    H1 9285   6.977   2.944   2.047
 3114TIP3    H2 9286   6.866   3.024   2.107
 3115TIP3   OH2 9287   7.839   3.158   2.238
 3115TIP3    H1 9288   7.847   3.251   2.268
 3115TIP3    H2 9289   7.768   3.127   2.298
 3116TIP3   OH2 9290   7.614   3.303   1.199
 3116TIP3    H1 9291   7.570   3.289   1.113
 3116TIP3    H2 9292   7.581   3.391   1.224
 3117TIP3   OH2 9293   7.050   3.157   1.582
 3117TIP3    H1 9294   7.096   3.149   1.668
 3117TIP3    H2 9295   6.998   3.075   1.581
 3118TIP3   OH2 9296   7.879   3.268   1.133
 3118TIP3    H1 9297   7.785   3.282   1.160
 3118TIP3    H2 9298   7.890   3.173   1.149
 3119TIP3   OH2 9299   7.233   2.932   2.402
 3119TIP3    H1 9300   7.278   2.921   2.488
 3119TIP3    H2 9301   7.157   2.871   2.411
 3120TIP3   OH2 9302   7.611   1.743   2.216
 3120TIP3    H1 9303   7.521   1.725   2.183
 3120TIP3    H2 9304   7.600   1.833   2.251
 3121TIP3   OH2 9305   7.558   2.277   2.216
 3121TIP3    H1 9306   7.504   2.296   2.295
 3121TIP3    H2 9307   7.541   2.358   2.161
 3122TIP3   OH2 9308   7.448   2.158   1.723
 3122TIP3    H1 9309   7.357   2.130   1.745
 3122TIP3    H2 9310   7.459   2.117   1.634
 3123TIP3   OH2 9311   7.370   2.298   2.421
 3123TIP3    H1 9312   7.420   2.354   2.484
 3123TIP3    H2 9313   7.360   2.216   2.472
 3124TIP3   OH2 9314   7.381   1.726   1.161
 3124TIP3    H1 9315   7.449   1.792   1.190
 3124TIP3    H2 9316   7.351   1.768   1.077
 3125TIP3   OH2 9317   6.974   1.819   2.005
 3125TIP3    H1 9318   7.046   1.856   2.060
 3125TIP3    H2 9319   7.018   1.794   1.923
 3126TIP3   OH2 9320   6.937   1.806   1.525
 3126TIP3    H1 9321   6.976   1.848   1.445
 3126TIP3    H2 9322   6.873   1.876   1.548
 3127TIP3   OH2 9323   7.205   2.046   1.790
 3127TIP3    H1 9324   7.110   2.052   1.764
 3127TIP3    H2 9325   7.227   1.952   1.776
 3128TIP3   OH2 9326   7.483   2.031   1.478
 3128TIP3    H1 9327   7.563   2.056   1.430
 3128TIP3    H2 9328   7.415   2.043   1.407
 3129TIP3   OH2 9329   7.330   2.050   1.259
 3129TIP3    H1 9330   7.254   2.018   1.206
 3129TIP3    H2 9331   7.381   2.096   1.188
 3130TIP3   OH2 9332   7.394   2.857   2.631
 3130TIP3    H1 9333   7.473   2.887   2.680
 3130TIP3    H2 9334   7.328   2.858   2.703
 3131TIP3   OH2 9335   7.356   1.805   1.767
 3131TIP3    H1 9336   7.326   1.728   1.821
 3131TIP3    H2 9337   7.395   1.763   1.691
 3132TIP3   OH2 9338   7.828   2.204   2.226
 3132TIP3    H1 9339   7.735   2.228   2.203
 3132TIP3    H2 9340   7.873   2.291   2.220
 3133TIP3   OH2 9341   7.537   2.625   1.272
 3133TIP3    H1 9342   7.487   2.542   1.265
 3133TIP3    H2 9343   7.542   2.640   1.369
 3134TIP3   OH2 9344   7.931   2.888   2.301
 3134TIP3    H1 9345   7.965   2.889   2.392
 3134TIP3    H2 9346   7.903   2.980   2.289
 3135TIP3   OH2 9347   7.265   2.626   1.947
 3135TIP3    H1 9348   7.296   2.593   1.860
 3135TIP3    H2 9349   7.301   2.560   2.008
 3136TIP3   OH2 9350   7.673   2.742   1.064
 3136TIP3    H1 9351   7.649   2.834   1.090
 3136TIP3    H2 9352   7.642   2.693   1.144
 3137TIP3   OH2 9353   7.145   2.537   2.559
 3137TIP3    H1 9354   7.158   2.521   2.654
 3137TIP3    H2 9355   7.074   2.474   2.538
 3138TIP3   OH2 9356   7.868   2.656   2.577
 3138TIP3    H1 9357   7.814   2.611   2.511
 3138TIP3    H2 9358   7.956   2.621   2.556
 3139TIP3   OH2 9359   7.367   2.926   1.577
 3139TIP3    H1 9360   7.366   3.005   1.519
 3139TIP3    H2 9361   7.273   2.906   1.581
 3140TIP3   OH2 9362   6.928   2.229   1.277
 3140TIP3    H1 9363   6.971   2.315   1.299
 3140TIP3    H2 9364   6.850   2.232   1.337
 3141TIP3   OH2 9365   7.512   2.690   1.538
 3141TIP3    H1 9366   7.471   2.779   1.541
 3141TIP3    H2 9367   7.456   2.640   1.601
 3142TIP3   OH2 9368   7.632   3.263   2.038
 3142TIP3    H1 9369   7.666   3.341   1.990
 3142TIP3    H2 9370   7.711   3.235   2.087
 3143TIP3   OH2 9371   7.283   3.162   1.425
 3143TIP3    H1 9372   7.197   3.174   1.469
 3143TIP3    H2 9373   7.317   3.255   1.426
 3144TIP3   OH2 9374   7.347   2.048   2.567
 3144TIP3    H1 9375   7.250   2.048   2.575
 3144TIP3    H2 9376   7.373   1.987   2.638
 3145TIP3   OH2 9377   7.071   3.130   2.196
 3145TIP3    H1 9378   7.127   3.061   2.237
 3145TIP3    H2 9379   7.094   3.208   2.248
 3146TIP3   OH2 9380   7.354   2.773   0.884
 3146TIP3    H1 9381   7.355   2.679   0.858
 3146TIP3    H2 9382   7.337   2.767   0.980
 3147TIP3   OH2 9383   7.308   2.777   1.156
 3147TIP3    H1 9384   7.392   2.748   1.197
 3147TIP3    H2 9385   7.312   2.875   1.167
 3148TIP3   OH2 9386   7.038   2.473   1.360
 3148TIP3    H1 9387   6.970   2.519   1.415
 3148TIP3    H2 9388   7.051   2.540   1.290
 3149TIP3   OH2 9389   7.574   2.989   1.114
 3149TIP3    H1 9390   7.483   3.011   1.142
 3149TIP3    H2 9391   7.595   3.067   1.061
 3150TIP3   OH2 9392   7.313   3.052   1.172
 3150TIP3    H1 9393   7.281   3.122   1.110
 3150TIP3    H2 9394   7.299   3.096   1.259
 3151TIP3   OH2 9395   7.501   1.745   1.466
 3151TIP3    H1 9396   7.452   1.829   1.479
 3151TIP3    H2 9397   7.556   1.775   1.388
 3152TIP3   OH2 9398   7.037   2.673   1.162
 3152TIP3    H1 9399   7.107   2.740   1.173
 3152TIP3    H2 9400   7.079   2.618   1.093
 3153TIP3   OH2 9401   6.975   1.961   1.308
 3153TIP3    H1 9402   6.973   2.058   1.300
 3153TIP3    H2 9403   6.910   1.934   1.241
 3154TIP3   OH2 9404   7.346   1.677   2.165
 3154TIP3    H1 9405   7.327   1.639   2.077
 3154TIP3    H2 9406   7.342   1.599   2.224
 3155TIP3   OH2 9407   6.897   2.892   1.545
 3155TIP3    H1 9408   6.837   2.924   1.613
 3155TIP3    H2 9409   6.862   2.938   1.465
 3156TIP3   OH2 9410   7.064   3.446   2.621
 3156TIP3    H1 9411   7.150   3.449   2.669
 3156TIP3    H2 9412   7.046   3.351   2.621
 3157TIP3   OH2 9413   7.534   3.395   2.670
 3157TIP3    H1 9414   7.631   3.388   2.674
 3157TIP3    H2 9415   7.513   3.334   2.597
 3158TIP3   OH2 9416   7.514   2.976   0.792
 3158TIP3    H1 9417   7.454   2.905   0.825
 3158TIP3    H2 9418   7.600   2.937   0.812
 3159TIP3   OH2 9419   7.191   2.845   2.821
 3159TIP3    H1 9420   7.205   2.749   2.826
 3159TIP3    H2 9421   7.104   2.850   2.776
 3160TIP3   OH2 9422   7.175   2.491   1.013
 3160TIP3    H1 9423   7.231   2.466   1.089
 3160TIP3    H2 9424   7.243   2.495   0.943
 3161TIP3   OH2 9425   7.814   2.936   2.591
 3161TIP3    H1 9426   7.758   2.957   2.513
 3161TIP3    H2 9427   7.826   2.839   2.584
 3162TIP3   OH2 9428   7.665   2.675   0.807
 3162TIP3    H1 9429   7.685   2.711   0.897
 3162TIP3    H2 9430   7.588   2.621   0.830
 3163TIP3   OH2 9431   7.311   2.582   2.808
 3163TIP3    H1 9432   7.390   2.536   2.776
 3163TIP3    H2 9433   7.341   2.616   2.895
 3164TIP3   OH2 9434   7.374   2.397   1.233
 3164TIP3    H1 9435   7.345   2.357   1.316
 3164TIP3    H2 9436   7.417   2.323   1.185
 3165TIP3   OH2 9437   7.608   2.442   2.488
 3165TIP3    H1 9438   7.540   2.514   2.490
 3165TIP3    H2 9439   7.669   2.481   2.420
 3166TIP3   OH2 9440   7.482   2.186   1.073
 3166TIP3    H1 9441   7.449   2.201   0.981
 3166TIP3    H2 9442   7.573   2.157   1.051
 3167TIP3   OH2 9443   7.785   2.259   2.584
 3167TIP3    H1 9444   7.780   2.172   2.539
 3167TIP3    H2 9445   7.716   2.311   2.537
 3168TIP3   OH2 9446   7.782   2.027   2.425
 3168TIP3    H1 9447   7.791   2.080   2.343
 3168TIP3    H2 9448   7.694   1.987   2.410
 3169TIP3   OH2 9449   7.769   2.570   2.315
 3169TIP3    H1 9450   7.839   2.563   2.248
 3169TIP3    H2 9451   7.710   2.635   2.271
 3170TIP3   OH2 9452   7.655   2.358   2.824
 3170TIP3    H1 9453   7.586   2.289   2.836
 3170TIP3    H2 9454   7.684   2.342   2.733
 3171TIP3   OH2 9455   7.486   2.142   2.878
 3171TIP3    H1 9456   7.488   2.050   2.843
 3171TIP3    H2 9457   7.522   2.129   2.968
 3172TIP3   OH2 9458   7.276   3.256   0.985
 3172TIP3    H1 9459   7.373   3.249   0.974
 3172TIP3    H2 9460   7.254   3.309   0.907
 3173TIP3   OH2 9461   6.766   2.638   1.198
 3173TIP3    H1 9462   6.861   2.658   1.183
 3173TIP3    H2 9463   6.759   2.549   1.156
 3174TIP3   OH2 9464   6.683   3.248   1.616
 3174TIP3    H1 9465   6.617   3.188   1.576
 3174TIP3    H2 9466   6.727   3.187   1.679
 3175TIP3   OH2 9467   6.817   3.091   1.800
 3175TIP3    H1 9468   6.802   3.025   1.869
 3175TIP3    H2 9469   6.869   3.157   1.851
 3176TIP3   OH2 9470   6.999   2.503   2.176
 3176TIP3    H1 9471   6.995   2.470   2.083
 3176TIP3    H2 9472   7.097   2.505   2.189
 3177TIP3   OH2 9473   7.218   2.191   2.847
 3177TIP3    H1 9474   7.316   2.186   2.849
 3177TIP3    H2 9475   7.195   2.103   2.885
 3178TIP3   OH2 9476   7.175   1.891   2.180
 3178TIP3    H1 9477   7.235   1.813   2.184
 3178TIP3    H2 9478   7.240   1.964   2.175
 3179TIP3   OH2 9479   6.980   2.158   2.248
 3179TIP3    H1 9480   7.030   2.153   2.165
 3179TIP3    H2 9481   7.008   2.244   2.282
 3180TIP3   OH2 9482   6.968   1.657   1.748
 3180TIP3    H1 9483   6.875   1.653   1.779
 3180TIP3    H2 9484   6.960   1.719   1.672
 3181TIP3   OH2 9485   7.187   1.745   2.567
 3181TIP3    H1 9486   7.133   1.741   2.647
 3181TIP3    H2 9487   7.123   1.783   2.503
 3182TIP3   OH2 9488   7.228   3.166   2.637
 3182TIP3    H1 9489   7.133   3.148   2.624
 3182TIP3    H2 9490   7.236   3.161   2.733
 3183TIP3   OH2 9491   7.409   3.205   2.189
 3183TIP3    H1 9492   7.359   3.280   2.150
 3183TIP3    H2 9493   7.494   3.220   2.141
 3184TIP3   OH2 9494   7.838   3.429   2.322
 3184TIP3    H1 9495   7.882   3.436   2.410
 3184TIP3    H2 9496   7.889   3.492   2.268
 3185TIP3   OH2 9497   7.983   3.606   2.154
 3185TIP3    H1 9498   8.031   3.599   2.066
 3185TIP3    H2 9499   8.012   3.692   2.184
 3186TIP3   OH2 9500   7.081   3.459   2.219
 3186TIP3    H1 9501   6.990   3.487   2.195
 3186TIP3    H2 9502   7.098   3.518   2.294
 3187TIP3   OH2 9503   7.314   3.435   2.072
 3187TIP3    H1 9504   7.227   3.448   2.116
 3187TIP3    H2 9505   7.296   3.470   1.983
 3188TIP3   OH2 9506   7.713   3.472   1.874
 3188TIP3    H1 9507   7.639   3.485   1.810
 3188TIP3    H2 9508   7.726   3.563   1.906
 3189TIP3   OH2 9509   7.965   3.372   1.850
 3189TIP3    H1 9510   7.875   3.408   1.859
 3189TIP3    H2 9511   8.019   3.452   1.874
 3190TIP3   OH2 9512   6.991   3.253   1.955
 3190TIP3    H1 9513   7.017   3.224   2.045
 3190TIP3    H2 9514   7.064   3.212   1.904
 3191TIP3   OH2 9515   7.187   3.127   1.817
 3191TIP3    H1 9516   7.202   3.044   1.868
 3191TIP3    H2 9517   7.278   3.164   1.814
 3192TIP3   OH2 9518   7.452   3.220   1.822
 3192TIP3    H1 9519   7.481   3.128   1.811
 3192TIP3    H2 9520   7.502   3.243   1.903
 3193TIP3   OH2 9521   7.277   1.585   1.906
 3193TIP3    H1 9522   7.185   1.553   1.917
 3193TIP3    H2 9523   7.325   1.499   1.911
 3194TIP3   OH2 9524   7.078   1.457   1.580
 3194TIP3    H1 9525   7.093   1.509   1.500
 3194TIP3    H2 9526   7.039   1.523   1.641
 3195TIP3   OH2 9527   6.780   3.032   1.346
 3195TIP3    H1 9528   6.694   2.999   1.314
 3195TIP3    H2 9529   6.773   3.125   1.319
 3196TIP3   OH2 9530   7.180   1.600   1.348
 3196TIP3    H1 9531   7.231   1.551   1.283
 3196TIP3    H2 9532   7.225   1.686   1.346
 3197TIP3   OH2 9533   7.542   3.210   0.941
 3197TIP3    H1 9534   7.635   3.220   0.910
 3197TIP3    H2 9535   7.515   3.140   0.878
 3198TIP3   OH2 9536   7.476   1.866   2.807
 3198TIP3    H1 9537   7.441   1.794   2.862
 3198TIP3    H2 9538   7.570   1.866   2.835
 3199TIP3   OH2 9539   7.718   1.860   2.938
 3199TIP3    H1 9540   7.797   1.821   2.894
 3199TIP3    H2 9541   7.701   1.791   3.006
 3200TIP3   OH2 9542   6.855   3.047   0.983
 3200TIP3    H1 9543   6.863   3.068   1.077
 3200TIP3    H2 9544   6.942   3.004   0.965
 3201TIP3   OH2 9545   0.421   3.381   3.176
 3201TIP3    H1 9546   0.389   3.471   3.155
 3201TIP3    H2 9547   0.346   3.329   3.143
 3202TIP3   OH2 9548   0.421   3.384   3.565
 3202TIP3    H1 9549   0.459   3.357   3.651
 3202TIP3    H2 9550   0.379   3.301   3.535
 3203TIP3   OH2 9551  -0.244   3.263   3.887
 3203TIP3    H1 9552  -0.281   3.202   3.953
 3203TIP3    H2 9553  -0.218   3.337   3.943
 3204TIP3   OH2 9554   0.668   3.684   3.246
 3204TIP3    H1 9555   0.651   3.619   3.315
 3204TIP3    H2 9556   0.698   3.761   3.297
 3205TIP3   OH2 9557  -0.302   3.662   3.581
 3205TIP3    H1 9558  -0.324   3.569   3.604
 3205TIP3    H2 9559  -0.218   3.673   3.627
 3206TIP3   OH2 9560  -0.496   3.193   3.521
 3206TIP3    H1 9561  -0.498   3.134   3.598
 3206TIP3    H2 9562  -0.452   3.273   3.565
 3207TIP3   OH2 9563   0.318   4.145   3.263
 3207TIP3    H1 9564   0.356   4.077   3.204
 3207TIP3    H2 9565   0.314   4.097   3.346
 3208TIP3   OH2 9566   0.221   3.606   3.609
 3208TIP3    H1 9567   0.263   3.528   3.567
 3208TIP3    H2 9568   0.303   3.654   3.634
 3209TIP3   OH2 9569   1.235   2.924   3.608
 3209TIP3    H1 9570   1.264   3.009   3.649
 3209TIP3    H2 9571   1.259   2.940   3.515
 3210TIP3   OH2 9572   0.632   3.105   3.638
 3210TIP3    H1 9573   0.676   3.020   3.657
 3210TIP3    H2 9574   0.599   3.088   3.547
 3211TIP3   OH2 9575  -0.022   2.767   3.598
 3211TIP3    H1 9576  -0.046   2.843   3.541
 3211TIP3    H2 9577  -0.071   2.695   3.553
 3212TIP3   OH2 9578   0.667   2.861   3.224
 3212TIP3    H1 9579   0.739   2.847   3.291
 3212TIP3    H2 9580   0.720   2.894   3.149
 3213TIP3   OH2 9581  -0.394   2.970   3.714
 3213TIP3    H1 9582  -0.314   2.964   3.769
 3213TIP3    H2 9583  -0.363   2.927   3.631
 3214TIP3   OH2 9584   0.055   3.166   3.491
 3214TIP3    H1 9585   0.147   3.140   3.514
 3214TIP3    H2 9586   0.013   3.080   3.470
 3215TIP3   OH2 9587   1.308   3.134   3.780
 3215TIP3    H1 9588   1.224   3.181   3.761
 3215TIP3    H2 9589   1.335   3.176   3.864
 3216TIP3   OH2 9590  -0.033   2.745   4.047
 3216TIP3    H1 9591  -0.086   2.791   3.980
 3216TIP3    H2 9592  -0.085   2.765   4.128
 3217TIP3   OH2 9593   0.300   3.597   3.049
 3217TIP3    H1 9594   0.271   3.593   2.957
 3217TIP3    H2 9595   0.259   3.682   3.078
 3218TIP3   OH2 9596   0.070   3.535   3.834
 3218TIP3    H1 9597   0.010   3.600   3.875
 3218TIP3    H2 9598   0.107   3.584   3.757
 3219TIP3   OH2 9599   0.870   2.867   3.406
 3219TIP3    H1 9600   0.858   2.823   3.491
 3219TIP3    H2 9601   0.922   2.945   3.430
 3220TIP3   OH2 9602  -0.152   2.862   3.824
 3220TIP3    H1 9603  -0.098   2.939   3.852
 3220TIP3    H2 9604  -0.098   2.829   3.749
 3221TIP3   OH2 9605  -0.111   3.711   3.958
 3221TIP3    H1 9606  -0.171   3.767   3.905
 3221TIP3    H2 9607  -0.176   3.666   4.015
 3222TIP3   OH2 9608   0.733   3.929   3.407
 3222TIP3    H1 9609   0.642   3.921   3.445
 3222TIP3    H2 9610   0.726   4.015   3.361
 3223TIP3   OH2 9611   1.025   2.823   3.772
 3223TIP3    H1 9612   0.939   2.850   3.736
 3223TIP3    H2 9613   1.088   2.856   3.704
 3224TIP3   OH2 9614   0.321   2.477   3.754
 3224TIP3    H1 9615   0.304   2.382   3.760
 3224TIP3    H2 9616   0.246   2.514   3.805
 3225TIP3   OH2 9617   0.430   3.973   3.077
 3225TIP3    H1 9618   0.479   3.889   3.058
 3225TIP3    H2 9619   0.494   4.038   3.040
 3226TIP3   OH2 9620   0.573   3.755   2.996
 3226TIP3    H1 9621   0.553   3.673   2.948
 3226TIP3    H2 9622   0.612   3.721   3.079
 3227TIP3   OH2 9623   0.959   3.837   3.753
 3227TIP3    H1 9624   0.947   3.761   3.693
 3227TIP3    H2 9625   0.940   3.913   3.693
 3228TIP3   OH2 9626   0.252   3.232   3.014
 3228TIP3    H1 9627   0.174   3.287   2.992
 3228TIP3    H2 9628   0.299   3.230   2.929
 3229TIP3   OH2 9629   0.215   3.028   2.731
 3229TIP3    H1 9630   0.286   3.077   2.776
 3229TIP3    H2 9631   0.267   2.957   2.688
 3230TIP3   OH2 9632   1.154   3.478   3.601
 3230TIP3    H1 9633   1.070   3.529   3.603
 3230TIP3    H2 9634   1.186   3.501   3.511
 3231TIP3   OH2 9635   0.600   3.316   2.980
 3231TIP3    H1 9636   0.546   3.340   3.059
 3231TIP3    H2 9637   0.685   3.292   3.023
 3232TIP3   OH2 9638   0.833   3.349   3.900
 3232TIP3    H1 9639   0.833   3.433   3.950
 3232TIP3    H2 9640   0.748   3.356   3.853
 3233TIP3   OH2 9641  -0.153   3.309   3.404
 3233TIP3    H1 9642  -0.187   3.240   3.346
 3233TIP3    H2 9643  -0.071   3.266   3.437
 3234TIP3   OH2 9644  -0.019   3.740   3.542
 3234TIP3    H1 9645  -0.052   3.697   3.461
 3234TIP3    H2 9646   0.067   3.695   3.555
 3235TIP3   OH2 9647   0.035   3.274   3.749
 3235TIP3    H1 9648   0.034   3.268   3.652
 3235TIP3    H2 9649   0.032   3.370   3.767
 3236TIP3   OH2 9650   0.492   3.924   3.529
 3236TIP3    H1 9651   0.481   4.004   3.583
 3236TIP3    H2 9652   0.476   3.851   3.593
 3237TIP3   OH2 9653   0.103   3.851   4.087
 3237TIP3    H1 9654   0.038   3.911   4.130
 3237TIP3    H2 9655   0.041   3.788   4.045
 3238TIP3   OH2 9656   0.437   3.176   2.810
 3238TIP3    H1 9657   0.497   3.237   2.859
 3238TIP3    H2 9658   0.464   3.196   2.717
 3239TIP3   OH2 9659  -0.153   3.403   4.178
 3239TIP3    H1 9660  -0.148   3.484   4.233
 3239TIP3    H2 9661  -0.249   3.392   4.173
 3240TIP3   OH2 9662   0.185   3.850   3.083
 3240TIP3    H1 9663   0.269   3.901   3.089
 3240TIP3    H2 9664   0.126   3.912   3.038
 3241TIP3   OH2 9665  -0.117   4.011   4.160
 3241TIP3    H1 9666  -0.137   4.020   4.065
 3241TIP3    H2 9667  -0.197   3.966   4.194
 3242TIP3   OH2 9668   0.955   2.412   2.860
 3242TIP3    H1 9669   0.873   2.435   2.907
 3242TIP3    H2 9670   0.971   2.493   2.808
 3243TIP3   OH2 9671   0.756   3.779   2.409
 3243TIP3    H1 9672   0.763   3.875   2.391
 3243TIP3    H2 9673   0.848   3.750   2.395
 3244TIP3   OH2 9674   1.197   4.188   3.805
 3244TIP3    H1 9675   1.195   4.091   3.817
 3244TIP3    H2 9676   1.113   4.213   3.849
 3245TIP3   OH2 9677   0.301   3.965   3.935
 3245TIP3    H1 9678   0.300   4.059   3.963
 3245TIP3    H2 9679   0.229   3.928   3.991
 3246TIP3   OH2 9680   0.068   4.094   2.890
 3246TIP3    H1 9681   0.023   4.083   2.805
 3246TIP3    H2 9682   0.039   4.184   2.917
 3247TIP3   OH2 9683   0.267   4.001   2.523
 3247TIP3    H1 9684   0.326   3.930   2.488
 3247TIP3    H2 9685   0.303   4.013   2.614
 3248TIP3   OH2 9686   0.318   4.050   2.793
 3248TIP3    H1 9687   0.229   4.059   2.834
 3248TIP3    H2 9688   0.370   4.015   2.867
 3249TIP3   OH2 9689   1.085   3.312   4.079
 3249TIP3    H1 9690   1.003   3.324   4.029
 3249TIP3    H2 9691   1.101   3.216   4.067
 3250TIP3   OH2 9692   0.089   2.531   3.903
 3250TIP3    H1 9693   0.001   2.510   3.866
 3250TIP3    H2 9694   0.066   2.613   3.952
 3251TIP3   OH2 9695   0.623   2.659   4.083
 3251TIP3    H1 9696   0.687   2.626   4.148
 3251TIP3    H2 9697   0.536   2.645   4.127
 3252TIP3   OH2 9698   0.846   3.087   4.000
 3252TIP3    H1 9699   0.792   3.092   4.082
 3252TIP3    H2 9700   0.830   3.174   3.959
 3253TIP3   OH2 9701   0.516   3.217   2.557
 3253TIP3    H1 9702   0.478   3.200   2.468
 3253TIP3    H2 9703   0.602   3.257   2.532
 3254TIP3   OH2 9704   0.231   2.645   2.861
 3254TIP3    H1 9705   0.200   2.615   2.949
 3254TIP3    H2 9706   0.191   2.577   2.803
 3255TIP3   OH2 9707   0.015   3.058   3.906
 3255TIP3    H1 9708  -0.038   3.084   3.985
 3255TIP3    H2 9709   0.012   3.141   3.853
 3256TIP3   OH2 9710  -0.109   2.952   3.419
 3256TIP3    H1 9711  -0.202   2.925   3.434
 3256TIP3    H2 9712  -0.092   2.908   3.332
 3257TIP3   OH2 9713   0.388   3.030   3.148
 3257TIP3    H1 9714   0.338   3.102   3.103
 3257TIP3    H2 9715   0.445   2.998   3.075
 3258TIP3   OH2 9716   0.556   3.313   4.263
 3258TIP3    H1 9717   0.532   3.257   4.341
 3258TIP3    H2 9718   0.653   3.300   4.269
 3259TIP3   OH2 9719   0.544   3.058   3.382
 3259TIP3    H1 9720   0.481   3.086   3.313
 3259TIP3    H2 9721   0.580   2.980   3.336
 3260TIP3   OH2 9722  -0.160   3.071   4.120
 3260TIP3    H1 9723  -0.139   3.147   4.176
 3260TIP3    H2 9724  -0.167   2.998   4.185
 3261TIP3   OH2 9725  -0.549   2.643   3.688
 3261TIP3    H1 9726  -0.474   2.658   3.749
 3261TIP3    H2 9727  -0.523   2.566   3.639
 3262TIP3   OH2 9728   0.557   3.306   3.800
 3262TIP3    H1 9729   0.590   3.234   3.742
 3262TIP3    H2 9730   0.526   3.253   3.877
 3263TIP3   OH2 9731   0.235   2.764   3.477
 3263TIP3    H1 9732   0.153   2.768   3.531
 3263TIP3    H2 9733   0.304   2.766   3.545
 3264TIP3   OH2 9734  -0.341   2.815   3.483
 3264TIP3    H1 9735  -0.433   2.787   3.484
 3264TIP3    H2 9736  -0.294   2.732   3.464
 3265TIP3   OH2 9737  -0.067   2.825   3.184
 3265TIP3    H1 9738   0.029   2.835   3.166
 3265TIP3    H2 9739  -0.109   2.855   3.100
 3266TIP3   OH2 9740   0.719   2.845   3.682
 3266TIP3    H1 9741   0.685   2.859   3.773
 3266TIP3    H2 9742   0.650   2.786   3.646
 3267TIP3   OH2 9743  -0.219   2.891   2.969
 3267TIP3    H1 9744  -0.299   2.837   2.951
 3267TIP3    H2 9745  -0.180   2.901   2.880
 3268TIP3   OH2 9746   0.893   4.534   3.901
 3268TIP3    H1 9747   0.889   4.559   3.807
 3268TIP3    H2 9748   0.973   4.582   3.930
 3269TIP3   OH2 9749  -0.162   3.635   4.341
 3269TIP3    H1 9750  -0.096   3.673   4.401
 3269TIP3    H2 9751  -0.243   3.679   4.373
 3270TIP3   OH2 9752   0.308   3.098   3.574
 3270TIP3    H1 9753   0.385   3.060   3.529
 3270TIP3    H2 9754   0.311   3.056   3.662
 3271TIP3   OH2 9755  -0.180   2.590   3.448
 3271TIP3    H1 9756  -0.198   2.505   3.491
 3271TIP3    H2 9757  -0.154   2.563   3.357
 3272TIP3   OH2 9758   0.281   3.003   3.859
 3272TIP3    H1 9759   0.190   3.036   3.875
 3272TIP3    H2 9760   0.336   3.065   3.910
 3273TIP3   OH2 9761   0.021   3.382   2.958
 3273TIP3    H1 9762  -0.053   3.317   2.948
 3273TIP3    H2 9763   0.001   3.418   3.048
 3274TIP3   OH2 9764   0.919   3.622   3.585
 3274TIP3    H1 9765   0.945   3.673   3.505
 3274TIP3    H2 9766   0.835   3.580   3.557
 3275TIP3   OH2 9767   0.494   2.699   2.833
 3275TIP3    H1 9768   0.396   2.692   2.839
 3275TIP3    H2 9769   0.509   2.794   2.854
 3276TIP3   OH2 9770   0.425   3.714   3.957
 3276TIP3    H1 9771   0.357   3.662   4.001
 3276TIP3    H2 9772   0.386   3.803   3.955
 3277TIP3   OH2 9773   0.551   2.951   2.932
 3277TIP3    H1 9774   0.647   2.960   2.946
 3277TIP3    H2 9775   0.530   3.031   2.879
 3278TIP3   OH2 9776  -0.299   3.383   3.636
 3278TIP3    H1 9777  -0.238   3.346   3.570
 3278TIP3    H2 9778  -0.278   3.335   3.719
 3279TIP3   OH2 9779   0.167   3.536   2.783
 3279TIP3    H1 9780   0.118   3.622   2.786
 3279TIP3    H2 9781   0.113   3.482   2.845
 3280TIP3   OH2 9782   0.581   3.968   3.858
 3280TIP3    H1 9783   0.485   3.963   3.868
 3280TIP3    H2 9784   0.605   4.023   3.935
 3281TIP3   OH2 9785   0.985   3.041   2.762
 3281TIP3    H1 9786   0.924   2.997   2.699
 3281TIP3    H2 9787   0.983   3.130   2.722
 3282TIP3   OH2 9788   1.209   3.898   3.841
 3282TIP3    H1 9789   1.111   3.890   3.832
 3282TIP3    H2 9790   1.236   3.867   3.752
 3283TIP3   OH2 9791   0.693   3.855   2.672
 3283TIP3    H1 9792   0.664   3.784   2.729
 3283TIP3    H2 9793   0.707   3.811   2.586
 3284TIP3   OH2 9794   0.684   3.486   3.502
 3284TIP3    H1 9795   0.591   3.460   3.515
 3284TIP3    H2 9796   0.719   3.405   3.458
 3285TIP3   OH2 9797  -0.179   3.714   3.259
 3285TIP3    H1 9798  -0.189   3.793   3.202
 3285TIP3    H2 9799  -0.263   3.714   3.308
 3286TIP3   OH2 9800  -0.058   3.473   3.198
 3286TIP3    H1 9801  -0.089   3.565   3.215
 3286TIP3    H2 9802  -0.085   3.429   3.281
 3287TIP3   OH2 9803   0.093   4.059   3.729
 3287TIP3    H1 9804   0.136   4.129   3.675
 3287TIP3    H2 9805   0.171   4.019   3.772
 3288TIP3   OH2 9806  -0.267   3.953   3.118
 3288TIP3    H1 9807  -0.349   3.982   3.160
 3288TIP3    H2 9808  -0.219   4.040   3.115
 3289TIP3   OH2 9809   0.472   3.691   3.688
 3289TIP3    H1 9810   0.472   3.692   3.786
 3289TIP3    H2 9811   0.550   3.636   3.669
 3290TIP3   OH2 9812   0.452   3.584   2.575
 3290TIP3    H1 9813   0.504   3.559   2.655
 3290TIP3    H2 9814   0.362   3.559   2.604
 3291TIP3   OH2 9815   0.719   4.222   3.737
 3291TIP3    H1 9816   0.638   4.169   3.728
 3291TIP3    H2 9817   0.707   4.288   3.664
 3292TIP3   OH2 9818   0.784   4.054   2.389
 3292TIP3    H1 9819   0.815   4.125   2.330
 3292TIP3    H2 9820   0.706   4.099   2.427
 3293TIP3   OH2 9821  -0.184   2.815   4.277
 3293TIP3    H1 9822  -0.275   2.815   4.310
 3293TIP3    H2 9823  -0.139   2.762   4.346
 3294TIP3   OH2 9824   0.611   3.520   2.792
 3294TIP3    H1 9825   0.602   3.450   2.860
 3294TIP3    H2 9826   0.708   3.515   2.776
 3295TIP3   OH2 9827  -0.181   3.562   2.575
 3295TIP3    H1 9828  -0.175   3.468   2.552
 3295TIP3    H2 9829  -0.209   3.557   2.668
 3296TIP3   OH2 9830  -0.241   3.569   2.847
 3296TIP3    H1 9831  -0.163   3.549   2.900
 3296TIP3    H2 9832  -0.241   3.668   2.851
 3297TIP3   OH2 9833   0.645   2.896   3.940
 3297TIP3    H1 9834   0.726   2.939   3.972
 3297TIP3    H2 9835   0.637   2.817   3.998
 3298TIP3   OH2 9836   0.524   2.644   3.112
 3298TIP3    H1 9837   0.513   2.666   3.017
 3298TIP3    H2 9838   0.565   2.727   3.146
 3299TIP3   OH2 9839   0.024   3.766   2.793
 3299TIP3    H1 9840  -0.063   3.791   2.829
 3299TIP3    H2 9841   0.042   3.843   2.736
 3300TIP3   OH2 9842   0.209   2.829   3.209
 3300TIP3    H1 9843   0.274   2.901   3.189
 3300TIP3    H2 9844   0.219   2.821   3.306
 3301TIP3   OH2 9845   0.478   3.149   4.008
 3301TIP3    H1 9846   0.480   3.191   4.096
 3301TIP3    H2 9847   0.529   3.067   4.022
 3302TIP3   OH2 9848   0.355   2.548   3.310
 3302TIP3    H1 9849   0.345   2.628   3.364
 3302TIP3    H2 9850   0.418   2.581   3.241
 3303TIP3   OH2 9851  -0.232   3.840   2.864
 3303TIP3    H1 9852  -0.257   3.909   2.799
 3303TIP3    H2 9853  -0.248   3.886   2.949
 3304TIP3   OH2 9854  -0.119   2.552   3.168
 3304TIP3    H1 9855  -0.124   2.649   3.155
 3304TIP3    H2 9856  -0.029   2.535   3.132
 3305TIP3   OH2 9857   1.117   3.047   4.001
 3305TIP3    H1 9858   1.019   3.043   3.999
 3305TIP3    H2 9859   1.139   3.009   3.915
 3306TIP3   OH2 9860   0.772   3.240   3.384
 3306TIP3    H1 9861   0.695   3.180   3.395
 3306TIP3    H2 9862   0.843   3.192   3.432
 3307TIP3   OH2 9863  -0.526   3.464   2.890
 3307TIP3    H1 9864  -0.456   3.531   2.880
 3307TIP3    H2 9865  -0.489   3.397   2.827
 3308TIP3   OH2 9866   0.742   4.199   3.331
 3308TIP3    H1 9867   0.699   4.247   3.256
 3308TIP3    H2 9868   0.836   4.218   3.309
 3309TIP3   OH2 9869  -0.174   2.461   3.847
 3309TIP3    H1 9870  -0.213   2.428   3.764
 3309TIP3    H2 9871  -0.194   2.388   3.909
 3310TIP3   OH2 9872  -0.022   4.184   4.365
 3310TIP3    H1 9873   0.075   4.195   4.362
 3310TIP3    H2 9874  -0.037   4.121   4.292
 3311TIP3   OH2 9875  -0.024   3.765   2.478
 3311TIP3    H1 9876  -0.079   3.693   2.517
 3311TIP3    H2 9877   0.052   3.713   2.445
 3312TIP3   OH2 9878   0.625   4.096   4.106
 3312TIP3    H1 9879   0.641   4.017   4.160
 3312TIP3    H2 9880   0.704   4.152   4.124
 3313TIP3   OH2 9881   0.411   3.802   2.396
 3313TIP3    H1 9882   0.457   3.740   2.455
 3313TIP3    H2 9883   0.466   3.801   2.315
 3314TIP3   OH2 9884  -0.379   3.291   2.737
 3314TIP3    H1 9885  -0.308   3.268   2.800
 3314TIP3    H2 9886  -0.329   3.295   2.654
 3315TIP3   OH2 9887   0.142   3.480   2.516
 3315TIP3    H1 9888   0.140   3.498   2.612
 3315TIP3    H2 9889   0.139   3.382   2.515
 3316TIP3   OH2 9890   0.746   3.735   3.899
 3316TIP3    H1 9891   0.820   3.776   3.850
 3316TIP3    H2 9892   0.675   3.800   3.883
 3317TIP3   OH2 9893  -0.229   3.360   4.509
 3317TIP3    H1 9894  -0.161   3.317   4.454
 3317TIP3    H2 9895  -0.176   3.403   4.579
 3318TIP3   OH2 9896  -0.167   3.175   2.921
 3318TIP3    H1 9897  -0.186   3.104   2.985
 3318TIP3    H2 9898  -0.128   3.122   2.849
 3319TIP3   OH2 9899   0.091   3.253   4.142
 3319TIP3    H1 9900   0.014   3.314   4.146
 3319TIP3    H2 9901   0.154   3.302   4.085
 3320TIP3   OH2 9902  -0.060   2.980   2.748
 3320TIP3    H1 9903  -0.055   2.948   2.657
 3320TIP3    H2 9904   0.037   2.992   2.765
 3321TIP3   OH2 9905   0.748   3.309   2.437
 3321TIP3    H1 9906   0.729   3.265   2.352
 3321TIP3    H2 9907   0.716   3.400   2.416
 3322TIP3   OH2 9908   0.191   3.042   4.283
 3322TIP3    H1 9909   0.214   2.971   4.222
 3322TIP3    H2 9910   0.157   3.112   4.223
 3323TIP3   OH2 9911   0.228   2.829   4.079
 3323TIP3    H1 9912   0.249   2.877   3.996
 3323TIP3    H2 9913   0.132   2.811   4.068
 3324TIP3   OH2 9914   0.260   3.392   3.972
 3324TIP3    H1 9915   0.328   3.373   3.907
 3324TIP3    H2 9916   0.190   3.435   3.918
 3325TIP3   OH2 9917   0.828   3.334   4.332
 3325TIP3    H1 9918   0.889   3.262   4.355
 3325TIP3    H2 9919   0.887   3.400   4.294
 3326TIP3   OH2 9920   0.877   3.576   4.073
 3326TIP3    H1 9921   0.818   3.634   4.020
 3326TIP3    H2 9922   0.964   3.602   4.036
 3327TIP3   OH2 9923   0.085   3.178   4.506
 3327TIP3    H1 9924   0.035   3.097   4.528
 3327TIP3    H2 9925   0.136   3.144   4.430
 3328TIP3   OH2 9926   0.363   2.606   4.159
 3328TIP3    H1 9927   0.321   2.693   4.139
 3328TIP3    H2 9928   0.295   2.546   4.128
 3329TIP3   OH2 9929   0.710   3.039   4.237
 3329TIP3    H1 9930   0.638   3.038   4.303
 3329TIP3    H2 9931   0.787   3.021   4.292
 3330TIP3   OH2 9932   0.979   2.951   4.424
 3330TIP3    H1 9933   0.906   2.892   4.449
 3330TIP3    H2 9934   0.961   3.027   4.485
 3331TIP3   OH2 9935  -0.043   2.942   4.576
 3331TIP3    H1 9936  -0.034   2.856   4.532
 3331TIP3    H2 9937  -0.003   2.923   4.663
 3332TIP3   OH2 9938   0.436   2.580   4.427
 3332TIP3    H1 9939   0.511   2.518   4.415
 3332TIP3    H2 9940   0.409   2.595   4.335
 3333TIP3   OH2 9941  -0.259   4.028   2.670
 3333TIP3    H1 9942  -0.164   4.032   2.650
 3333TIP3    H2 9943  -0.293   4.089   2.601
 3334TIP3   OH2 9944   0.999   4.283   3.293
 3334TIP3    H1 9945   1.025   4.321   3.379
 3334TIP3    H2 9946   1.061   4.325   3.232
 3335TIP3   OH2 9947   1.022   4.309   3.577
 3335TIP3    H1 9948   0.979   4.221   3.570
 3335TIP3    H2 9949   1.101   4.285   3.629
 3336TIP3   OH2 9950   1.069   3.983   4.153
 3336TIP3    H1 9951   0.995   3.995   4.215
 3336TIP3    H2 9952   1.112   4.071   4.154
 3337TIP3   OH2 9953   0.888   3.497   2.764
 3337TIP3    H1 9954   0.953   3.563   2.732
 3337TIP3    H2 9955   0.935   3.460   2.842
 3338TIP3   OH2 9956   1.017   3.363   2.968
 3338TIP3    H1 9957   0.950   3.324   3.028
 3338TIP3    H2 9958   1.082   3.400   3.032
 3339TIP3   OH2 9959   1.074   3.759   3.402
 3339TIP3    H1 9960   1.125   3.691   3.353
 3339TIP3    H2 9961   1.072   3.833   3.337
 3340TIP3   OH2 9962   0.898   4.057   3.596
 3340TIP3    H1 9963   0.825   4.100   3.644
 3340TIP3    H2 9964   0.850   4.012   3.522
 3341TIP3   OH2 9965   0.953   3.273   2.615
 3341TIP3    H1 9966   0.881   3.274   2.547
 3341TIP3    H2 9967   0.925   3.350   2.669
 3342TIP3   OH2 9968   0.821   2.946   2.568
 3342TIP3    H1 9969   0.777   2.979   2.489
 3342TIP3    H2 9970   0.803   2.850   2.558
 3343TIP3   OH2 9971   0.826   3.225   3.114
 3343TIP3    H1 9972   0.836   3.129   3.105
 3343TIP3    H2 9973   0.812   3.236   3.210
 3344TIP3   OH2 9974   1.121   3.649   3.972
 3344TIP3    H1 9975   1.192   3.581   3.960
 3344TIP3    H2 9976   1.145   3.716   3.906
 3345TIP3   OH2 9977   1.300   3.445   3.980
 3345TIP3    H1 9978   1.225   3.397   4.022
 3345TIP3    H2 9979   1.372   3.382   3.998
 3346TIP3   OH2 9980   0.775   2.678   2.543
 3346TIP3    H1 9981   0.836   2.644   2.611
 3346TIP3    H2 9982   0.692   2.629   2.560
 3347TIP3   OH2 9983   0.828   2.942   3.005
 3347TIP3    H1 9984   0.869   2.853   3.019
 3347TIP3    H2 9985   0.884   2.974   2.933
 3348TIP3   OH2 9986   0.985   3.107   3.505
 3348TIP3    H1 9987   1.070   3.132   3.462
 3348TIP3    H2 9988   1.000   3.146   3.593
 3349TIP3   OH2 9989   1.058   3.256   3.734
 3349TIP3    H1 9990   0.981   3.292   3.782
 3349TIP3    H2 9991   1.091   3.337   3.688
 3350TIP3   OH2 9992  -0.313   2.882   4.618
 3350TIP3    H1 9993  -0.231   2.921   4.582
 3350TIP3    H2 9994  -0.379   2.947   4.586
 3351TIP3   OH2 9995   1.513   2.849   4.300
 3351TIP3    H1 9996   1.565   2.783   4.249
 3351TIP3    H2 9997   1.462   2.892   4.228
 3352TIP3   OH2 9998   0.934   2.691   3.047
 3352TIP3    H1 9999   0.982   2.673   3.130
 3352TIP3    H210000   0.873   2.614   3.044
 3353TIP3   OH210001  -0.349   2.674   3.871
 3353TIP3    H110002  -0.283   2.602   3.876
 3353TIP3    H210003  -0.289   2.751   3.856
 3354TIP3   OH210004   1.372   2.977   4.101
 3354TIP3    H110005   1.285   3.021   4.108
 3354TIP3    H210006   1.345   2.899   4.046
 3355TIP3   OH210007   1.013   2.619   2.689
 3355TIP3    H110008   1.048   2.553   2.626
 3355TIP3    H210009   1.077   2.693   2.681
 3356TIP3   OH210010   0.582   4.154   2.949
 3356TIP3    H110011   0.631   4.143   2.865
 3356TIP3    H210012   0.631   4.226   2.992
 3357TIP3   OH210013  -0.361   2.527   4.266
 3357TIP3    H110014  -0.394   2.532   4.357
 3357TIP3    H210015  -0.418   2.591   4.222
 3358TIP3   OH210016  -0.142   4.033   3.877
 3358TIP3    H110017  -0.164   4.111   3.821
 3358TIP3    H210018  -0.052   4.014   3.842
 3359TIP3   OH210019   0.299   4.230   4.009
 3359TIP3    H110020   0.338   4.238   4.099
 3359TIP3    H210021   0.363   4.285   3.958
 3360TIP3   OH210022   0.478   4.390   3.879
 3360TIP3    H110023   0.550   4.344   3.832
 3360TIP3    H210024   0.530   4.447   3.940
 3361TIP3   OH210025   1.285   2.752   3.964
 3361TIP3    H110026   1.191   2.741   3.942
 3361TIP3    H210027   1.316   2.658   3.963
 3362TIP3   OH210028  -0.231   4.258   3.738
 3362TIP3    H110029  -0.254   4.349   3.764
 3362TIP3    H210030  -0.282   4.248   3.656
 3363TIP3   OH210031   0.199   4.252   3.563
 3363TIP3    H110032   0.149   4.272   3.481
 3363TIP3    H210033   0.212   4.342   3.601
 3364TIP3   OH210034   0.467   4.191   3.615
 3364TIP3    H110035   0.373   4.210   3.596
 3364TIP3    H210036   0.511   4.262   3.566
 3365TIP3   OH210037   0.669   4.384   3.522
 3365TIP3    H110038   0.655   4.469   3.476
 3365TIP3    H210039   0.696   4.325   3.449
 3366TIP3   OH210040  -0.356   3.916   3.494
 3366TIP3    H110041  -0.348   3.825   3.532
 3366TIP3    H210042  -0.264   3.947   3.499
 3367TIP3   OH210043  -0.080   4.013   3.514
 3367TIP3    H110044  -0.055   3.920   3.498
 3367TIP3    H210045  -0.028   4.028   3.594
 3368TIP3   OH210046   0.487   2.668   3.599
 3368TIP3    H110047   0.442   2.595   3.645
 3368TIP3    H210048   0.559   2.622   3.551
 3369TIP3   OH210049   0.999   2.548   3.502
 3369TIP3    H110050   1.036   2.597   3.425
 3369TIP3    H210051   0.904   2.567   3.493
 3370TIP3   OH210052   1.097   2.639   3.265
 3370TIP3    H110053   1.171   2.588   3.225
 3370TIP3    H210054   1.131   2.731   3.250
 3371TIP3   OH210055  -0.289   2.363   3.601
 3371TIP3    H110056  -0.367   2.308   3.616
 3371TIP3    H210057  -0.220   2.292   3.598
 3372TIP3   OH210058   0.180   2.410   3.490
 3372TIP3    H110059   0.232   2.455   3.421
 3372TIP3    H210060   0.204   2.462   3.568
 3373TIP3   OH210061   0.713   2.550   3.475
 3373TIP3    H110062   0.720   2.511   3.387
 3373TIP3    H210063   0.703   2.470   3.532
 3374TIP3   OH210064   0.751   2.478   3.040
 3374TIP3    H110065   0.664   2.520   3.052
 3374TIP3    H210066   0.736   2.391   3.084
 3375TIP3   OH210067   0.155   2.576   3.118
 3375TIP3    H110068   0.213   2.532   3.183
 3375TIP3    H210069   0.172   2.670   3.144
 3376TIP3   OH210070   0.011   3.995   2.624
 3376TIP3    H110071   0.097   4.022   2.585
 3376TIP3    H210072  -0.013   3.923   2.561
 3377TIP3   OH210073   0.726   4.123   2.716
 3377TIP3    H110074   0.718   4.025   2.704
 3377TIP3    H210075   0.678   4.154   2.636
 3378TIP3   OH210076  -0.060   2.653   4.481
 3378TIP3    H110077  -0.100   2.583   4.538
 3378TIP3    H210078   0.030   2.653   4.521
 3379TIP3   OH210079   0.186   2.654   4.619
 3379TIP3    H110080   0.271   2.637   4.577
 3379TIP3    H210081   0.178   2.579   4.681
 3380TIP3   OH210082   0.945   4.263   3.902
 3380TIP3    H110083   0.869   4.235   3.847
 3380TIP3    H210084   0.929   4.360   3.905
 3381TIP3   OH210085   2.217   3.638   2.663
 3381TIP3    H110086   2.186   3.728   2.642
 3381TIP3    H210087   2.142   3.586   2.629
 3382TIP3   OH210088   2.217   3.641   3.053
 3382TIP3    H110089   2.253   3.616   3.141
 3382TIP3    H210090   2.177   3.557   3.024
 3383TIP3   OH210091   1.513   3.531   3.417
 3383TIP3    H110092   1.545   3.462   3.479
 3383TIP3    H210093   1.595   3.578   3.398
 3384TIP3   OH210094   2.463   3.942   2.733
 3384TIP3    H110095   2.448   3.875   2.801
 3384TIP3    H210096   2.495   4.018   2.785
 3385TIP3   OH210097   1.490   3.942   3.135
 3385TIP3    H110098   1.482   3.845   3.136
 3385TIP3    H210099   1.587   3.952   3.124
 3386TIP3   OH210100   1.193   3.140   2.917
 3386TIP3    H110101   1.147   3.224   2.936
 3386TIP3    H210102   1.122   3.092   2.870
 3387TIP3   OH210103   1.250   3.432   3.101
 3387TIP3    H110104   1.302   3.354   3.132
 3387TIP3    H210105   1.312   3.473   3.038
 3388TIP3   OH210106   2.115   4.402   2.749
 3388TIP3    H110107   2.154   4.331   2.694
 3388TIP3    H210108   2.106   4.357   2.835
 3389TIP3   OH210109   2.013   3.864   3.098
 3389TIP3    H110110   2.056   3.788   3.054
 3389TIP3    H210111   2.095   3.913   3.123
 3390TIP3   OH210112   3.031   3.182   3.095
 3390TIP3    H110113   3.061   3.266   3.136
 3390TIP3    H210114   3.056   3.197   3.002
 3391TIP3   OH210115   2.425   3.362   3.125
 3391TIP3    H110116   2.471   3.278   3.146
 3391TIP3    H210117   2.395   3.344   3.034
 3392TIP3   OH210118   1.770   3.023   3.091
 3392TIP3    H110119   1.751   3.096   3.028
 3392TIP3    H210120   1.721   2.951   3.048
 3393TIP3   OH210121   2.464   3.117   2.711
 3393TIP3    H110122   2.535   3.103   2.778
 3393TIP3    H210123   2.516   3.151   2.637
 3394TIP3   OH210124   1.399   3.224   3.201
 3394TIP3    H110125   1.483   3.206   3.248
 3394TIP3    H210126   1.414   3.170   3.120
 3395TIP3   OH210127   1.838   3.422   3.001
 3395TIP3    H110128   1.933   3.399   3.009
 3395TIP3    H210129   1.800   3.339   2.965
 3396TIP3   OH210130   3.104   3.391   3.267
 3396TIP3    H110131   3.020   3.438   3.249
 3396TIP3    H210132   3.132   3.433   3.350
 3397TIP3   OH210133   1.762   3.008   3.528
 3397TIP3    H110134   1.705   3.045   3.458
 3397TIP3    H210135   1.708   3.028   3.607
 3398TIP3   OH210136   2.099   3.854   2.536
 3398TIP3    H110137   2.066   3.847   2.445
 3398TIP3    H210138   2.057   3.938   2.564
 3399TIP3   OH210139   1.868   3.783   3.317
 3399TIP3    H110140   1.810   3.854   3.352
 3399TIP3    H210141   1.914   3.829   3.243
 3400TIP3   OH210142   2.665   3.123   2.893
 3400TIP3    H110143   2.651   3.083   2.980
 3400TIP3    H210144   2.718   3.202   2.917
 3401TIP3   OH210145   1.636   3.121   3.310
 3401TIP3    H110146   1.697   3.195   3.333
 3401TIP3    H210147   1.685   3.082   3.234
 3402TIP3   OH210148   1.700   3.982   3.419
 3402TIP3    H110149   1.676   4.069   3.382
 3402TIP3    H210150   1.620   3.965   3.473
 3403TIP3   OH210151   1.086   3.669   2.655
 3403TIP3    H110152   1.047   3.696   2.569
 3403TIP3    H210153   1.118   3.756   2.689
 3404TIP3   OH210154   2.528   4.186   2.894
 3404TIP3    H110155   2.438   4.178   2.933
 3404TIP3    H210156   2.520   4.273   2.849
 3405TIP3   OH210157   2.825   3.077   3.258
 3405TIP3    H110158   2.739   3.109   3.226
 3405TIP3    H210159   2.887   3.112   3.191
 3406TIP3   OH210160   2.113   2.721   3.243
 3406TIP3    H110161   2.097   2.627   3.262
 3406TIP3    H210162   2.037   2.762   3.290
 3407TIP3   OH210163   2.225   4.229   2.563
 3407TIP3    H110164   2.276   4.146   2.545
 3407TIP3    H210165   2.289   4.294   2.525
 3408TIP3   OH210166   2.370   4.013   2.483
 3408TIP3    H110167   2.346   3.931   2.438
 3408TIP3    H210168   2.409   3.979   2.566
 3409TIP3   OH210169   2.754   4.094   3.239
 3409TIP3    H110170   2.743   4.017   3.179
 3409TIP3    H210171   2.737   4.169   3.179
 3410TIP3   OH210172   2.048   3.489   2.500
 3410TIP3    H110173   1.969   3.543   2.479
 3410TIP3    H210174   2.094   3.488   2.414
 3411TIP3   OH210175   2.006   3.277   2.208
 3411TIP3    H110176   2.072   3.330   2.257
 3411TIP3    H210177   2.065   3.215   2.161
 3412TIP3   OH210178   2.949   3.734   3.087
 3412TIP3    H110179   2.866   3.786   3.090
 3412TIP3    H210180   2.981   3.758   2.997
 3413TIP3   OH210181   2.395   3.572   2.466
 3413TIP3    H110182   2.342   3.597   2.545
 3413TIP3    H210183   2.480   3.548   2.509
 3414TIP3   OH210184   2.629   3.608   3.388
 3414TIP3    H110185   2.629   3.690   3.440
 3414TIP3    H210186   2.544   3.616   3.341
 3415TIP3   OH210187   1.627   3.567   2.888
 3415TIP3    H110188   1.587   3.509   2.819
 3415TIP3    H210189   1.703   3.514   2.918
 3416TIP3   OH210190   1.755   3.979   3.033
 3416TIP3    H110191   1.738   3.949   2.942
 3416TIP3    H210192   1.844   3.942   3.050
 3417TIP3   OH210193   1.756   3.542   3.241
 3417TIP3    H110194   1.792   3.515   3.154
 3417TIP3    H210195   1.804   3.627   3.258
 3418TIP3   OH210196   2.288   4.179   3.018
 3418TIP3    H110197   2.276   4.260   3.071
 3418TIP3    H210198   2.272   4.107   3.082
 3419TIP3   OH210199   1.904   4.097   3.566
 3419TIP3    H110200   1.842   4.158   3.611
 3419TIP3    H210201   1.841   4.044   3.513
 3420TIP3   OH210202   2.232   3.431   2.295
 3420TIP3    H110203   2.292   3.491   2.344
 3420TIP3    H210204   2.259   3.451   2.202
 3421TIP3   OH210205   1.660   3.647   3.677
 3421TIP3    H110206   1.663   3.739   3.712
 3421TIP3    H210207   1.564   3.630   3.682
 3422TIP3   OH210208   1.981   4.106   2.571
 3422TIP3    H110209   2.065   4.156   2.576
 3422TIP3    H210210   1.922   4.168   2.526
 3423TIP3   OH210211   1.696   4.261   3.651
 3423TIP3    H110212   1.663   4.266   3.560
 3423TIP3    H210213   1.614   4.240   3.702
 3424TIP3   OH210214   2.751   2.668   2.344
 3424TIP3    H110215   2.670   2.694   2.394
 3424TIP3    H210216   2.768   2.749   2.292
 3425TIP3   OH210217   1.494   3.412   2.689
 3425TIP3    H110218   1.426   3.458   2.636
 3425TIP3    H210219   1.456   3.325   2.698
 3426TIP3   OH210220   2.552   4.036   1.895
 3426TIP3    H110221   2.561   4.132   1.878
 3426TIP3    H210222   2.645   4.006   1.882
 3427TIP3   OH210223   1.273   3.798   3.599
 3427TIP3    H110224   1.207   3.778   3.530
 3427TIP3    H210225   1.312   3.710   3.617
 3428TIP3   OH210226   1.130   3.987   3.234
 3428TIP3    H110227   1.226   3.984   3.221
 3428TIP3    H210228   1.120   4.068   3.286
 3429TIP3   OH210229   2.992   4.444   3.289
 3429TIP3    H110230   2.992   4.348   3.305
 3429TIP3    H210231   2.909   4.469   3.335
 3430TIP3   OH210232   2.099   4.226   3.422
 3430TIP3    H110233   2.095   4.318   3.454
 3430TIP3    H210234   2.028   4.184   3.476
 3431TIP3   OH210235   1.864   4.351   2.376
 3431TIP3    H110236   1.817   4.334   2.292
 3431TIP3    H210237   1.830   4.439   2.402
 3432TIP3   OH210238   1.299   4.202   2.760
 3432TIP3    H110239   1.346   4.193   2.846
 3432TIP3    H210240   1.247   4.120   2.758
 3433TIP3   OH210241   2.061   4.257   2.011
 3433TIP3    H110242   2.119   4.186   1.975
 3433TIP3    H210243   2.098   4.268   2.101
 3434TIP3   OH210244   2.115   4.306   2.280
 3434TIP3    H110245   2.026   4.315   2.322
 3434TIP3    H210246   2.167   4.269   2.353
 3435TIP3   OH210247   2.882   3.568   3.565
 3435TIP3    H110248   2.799   3.579   3.516
 3435TIP3    H210249   2.899   3.472   3.556
 3436TIP3   OH210250   1.479   3.979   3.581
 3436TIP3    H110251   1.528   3.963   3.664
 3436TIP3    H210252   1.404   3.917   3.589
 3437TIP3   OH210253   1.878   2.800   3.375
 3437TIP3    H110254   1.790   2.771   3.344
 3437TIP3    H210255   1.852   2.882   3.422
 3438TIP3   OH210256   2.415   2.915   3.566
 3438TIP3    H110257   2.485   2.890   3.629
 3438TIP3    H210258   2.332   2.898   3.616
 3439TIP3   OH210259   2.645   3.344   3.480
 3439TIP3    H110260   2.596   3.343   3.566
 3439TIP3    H210261   2.627   3.434   3.446
 3440TIP3   OH210262   2.310   3.469   2.039
 3440TIP3    H110263   2.275   3.450   1.950
 3440TIP3    H210264   2.395   3.511   2.017
 3441TIP3   OH210265   2.022   2.849   2.344
 3441TIP3    H110266   1.987   2.846   2.436
 3441TIP3    H210267   1.982   2.767   2.308
 3442TIP3   OH210268   1.810   3.320   3.389
 3442TIP3    H110269   1.761   3.340   3.471
 3442TIP3    H210270   1.794   3.401   3.336
 3443TIP3   OH210271   1.695   3.204   2.904
 3443TIP3    H110272   1.602   3.179   2.922
 3443TIP3    H210273   1.706   3.163   2.815
 3444TIP3   OH210274   2.184   3.287   2.633
 3444TIP3    H110275   2.134   3.360   2.589
 3444TIP3    H210276   2.240   3.255   2.561
 3445TIP3   OH210277   2.360   3.562   3.713
 3445TIP3    H110278   2.340   3.491   3.777
 3445TIP3    H210279   2.453   3.582   3.737
 3446TIP3   OH210280   2.338   3.314   2.869
 3446TIP3    H110281   2.277   3.343   2.798
 3446TIP3    H210282   2.376   3.235   2.823
 3447TIP3   OH210283   1.631   3.347   3.598
 3447TIP3    H110284   1.664   3.411   3.662
 3447TIP3    H210285   1.620   3.266   3.652
 3448TIP3   OH210286   1.681   2.824   2.309
 3448TIP3    H110287   1.669   2.826   2.406
 3448TIP3    H210288   1.604   2.878   2.281
 3449TIP3   OH210289   1.223   2.863   3.185
 3449TIP3    H110290   1.298   2.899   3.236
 3449TIP3    H210291   1.262   2.840   3.100
 3450TIP3   OH210292   1.185   2.848   2.699
 3450TIP3    H110293   1.230   2.884   2.619
 3450TIP3    H210294   1.124   2.922   2.718
 3451TIP3   OH210295   2.346   3.560   3.290
 3451TIP3    H110296   2.382   3.489   3.231
 3451TIP3    H210297   2.318   3.506   3.366
 3452TIP3   OH210298   2.028   3.021   2.963
 3452TIP3    H110299   1.948   3.023   3.019
 3452TIP3    H210300   2.099   3.018   3.029
 3453TIP3   OH210301   1.455   3.084   2.972
 3453TIP3    H110302   1.361   3.091   2.942
 3453TIP3    H210303   1.479   2.992   2.947
 3454TIP3   OH210304   1.719   3.076   2.664
 3454TIP3    H110305   1.813   3.093   2.643
 3454TIP3    H210306   1.673   3.099   2.580
 3455TIP3   OH210307   2.515   3.102   3.168
 3455TIP3    H110308   2.483   3.116   3.260
 3455TIP3    H210309   2.446   3.043   3.134
 3456TIP3   OH210310   1.574   3.112   2.437
 3456TIP3    H110311   1.504   3.066   2.386
 3456TIP3    H210312   1.626   3.152   2.364
 3457TIP3   OH210313   2.688   4.791   3.389
 3457TIP3    H110314   2.686   4.816   3.294
 3457TIP3    H210315   2.769   4.838   3.419
 3458TIP3   OH210316   1.641   3.900   3.806
 3458TIP3    H110317   1.721   3.930   3.853
 3458TIP3    H210318   1.576   3.902   3.880
 3459TIP3   OH210319   2.104   3.355   3.060
 3459TIP3    H110320   2.180   3.320   3.009
 3459TIP3    H210321   2.114   3.310   3.145
 3460TIP3   OH210322   1.621   2.842   2.946
 3460TIP3    H110323   1.586   2.764   2.995
 3460TIP3    H210324   1.664   2.800   2.870
 3461TIP3   OH210325   2.080   3.252   3.356
 3461TIP3    H110326   1.991   3.291   3.367
 3461TIP3    H210327   2.138   3.316   3.403
 3462TIP3   OH210328   1.817   3.640   2.446
 3462TIP3    H110329   1.744   3.576   2.433
 3462TIP3    H210330   1.796   3.675   2.536
 3463TIP3   OH210331   2.715   3.878   3.071
 3463TIP3    H110332   2.741   3.929   2.991
 3463TIP3    H210333   2.631   3.836   3.043
 3464TIP3   OH210334   2.275   2.949   2.319
 3464TIP3    H110335   2.178   2.932   2.324
 3464TIP3    H210336   2.284   3.044   2.339
 3465TIP3   OH210337   2.209   3.957   3.447
 3465TIP3    H110338   2.256   3.948   3.531
 3465TIP3    H210339   2.178   4.049   3.449
 3466TIP3   OH210340   2.342   3.203   2.416
 3466TIP3    H110341   2.439   3.209   2.429
 3466TIP3    H210342   2.323   3.283   2.363
 3467TIP3   OH210343   1.510   3.663   3.120
 3467TIP3    H110344   1.547   3.638   3.033
 3467TIP3    H210345   1.562   3.608   3.180
 3468TIP3   OH210346   1.964   3.791   2.271
 3468TIP3    H110347   1.914   3.877   2.274
 3468TIP3    H210348   1.909   3.737   2.332
 3469TIP3   OH210349   1.393   3.584   3.737
 3469TIP3    H110350   1.409   3.568   3.832
 3469TIP3    H210351   1.323   3.519   3.718
 3470TIP3   OH210352   2.122   3.700   3.756
 3470TIP3    H110353   2.063   3.644   3.704
 3470TIP3    H210354   2.209   3.666   3.728
 3471TIP3   OH210355   2.374   4.217   3.346
 3471TIP3    H110356   2.277   4.221   3.357
 3471TIP3    H210357   2.403   4.272   3.421
 3472TIP3   OH210358   2.780   3.298   2.251
 3472TIP3    H110359   2.719   3.254   2.187
 3472TIP3    H210360   2.779   3.387   2.209
 3473TIP3   OH210361   3.005   4.153   3.328
 3473TIP3    H110362   2.907   4.146   3.320
 3473TIP3    H210363   3.031   4.123   3.238
 3474TIP3   OH210364   2.487   4.112   2.158
 3474TIP3    H110365   2.461   4.040   2.217
 3474TIP3    H210366   2.502   4.067   2.073
 3475TIP3   OH210367   2.481   3.742   2.988
 3475TIP3    H110368   2.388   3.718   3.001
 3475TIP3    H210369   2.515   3.661   2.944
 3476TIP3   OH210370   1.615   3.972   2.751
 3476TIP3    H110371   1.613   4.052   2.695
 3476TIP3    H210372   1.520   3.952   2.758
 3477TIP3   OH210373   1.180   3.271   2.457
 3477TIP3    H110374   1.223   3.357   2.477
 3477TIP3    H210375   1.101   3.276   2.516
 3478TIP3   OH210376   1.739   3.731   2.688
 3478TIP3    H110377   1.710   3.822   2.709
 3478TIP3    H210378   1.705   3.682   2.765
 3479TIP3   OH210379   1.883   4.311   3.215
 3479TIP3    H110380   1.924   4.384   3.164
 3479TIP3    H210381   1.960   4.274   3.261
 3480TIP3   OH210382   1.530   4.208   2.600
 3480TIP3    H110383   1.444   4.218   2.646
 3480TIP3    H210384   1.563   4.300   2.602
 3481TIP3   OH210385   2.264   3.947   3.178
 3481TIP3    H110386   2.253   3.943   3.276
 3481TIP3    H210387   2.345   3.897   3.165
 3482TIP3   OH210388   2.247   3.842   2.061
 3482TIP3    H110389   2.300   3.817   2.140
 3482TIP3    H210390   2.159   3.813   2.089
 3483TIP3   OH210391   2.515   4.477   3.224
 3483TIP3    H110392   2.433   4.424   3.217
 3483TIP3    H210393   2.501   4.542   3.152
 3484TIP3   OH210394   2.582   4.311   1.877
 3484TIP3    H110395   2.618   4.384   1.823
 3484TIP3    H210396   2.502   4.356   1.912
 3485TIP3   OH210397   1.599   3.090   3.741
 3485TIP3    H110398   1.502   3.090   3.751
 3485TIP3    H210399   1.626   3.033   3.814
 3486TIP3   OH210400   2.407   3.776   2.277
 3486TIP3    H110401   2.397   3.707   2.346
 3486TIP3    H210402   2.504   3.771   2.262
 3487TIP3   OH210403   1.319   4.174   3.373
 3487TIP3    H110404   1.374   4.104   3.410
 3487TIP3    H210405   1.349   4.251   3.424
 3488TIP3   OH210406   1.608   3.819   2.059
 3488TIP3    H110407   1.620   3.726   2.034
 3488TIP3    H210408   1.586   3.810   2.154
 3489TIP3   OH210409   1.551   3.825   2.331
 3489TIP3    H110410   1.628   3.800   2.384
 3489TIP3    H210411   1.554   3.923   2.339
 3490TIP3   OH210412   1.285   3.517   2.537
 3490TIP3    H110413   1.218   3.563   2.592
 3490TIP3    H210414   1.299   3.584   2.467
 3491TIP3   OH210415   2.441   3.154   3.427
 3491TIP3    H110416   2.521   3.196   3.461
 3491TIP3    H210417   2.432   3.074   3.483
 3492TIP3   OH210418   2.324   2.899   2.597
 3492TIP3    H110419   2.309   2.921   2.503
 3492TIP3    H210420   2.364   2.982   2.632
 3493TIP3   OH210421   1.820   4.020   2.279
 3493TIP3    H110422   1.733   4.045   2.315
 3493TIP3    H210423   1.837   4.096   2.220
 3494TIP3   OH210424   2.002   3.087   2.694
 3494TIP3    H110425   2.067   3.159   2.676
 3494TIP3    H210426   2.012   3.077   2.791
 3495TIP3   OH210427   2.277   3.399   3.499
 3495TIP3    H110428   2.306   3.452   3.576
 3495TIP3    H210429   2.333   3.319   3.507
 3496TIP3   OH210430   2.149   2.803   2.793
 3496TIP3    H110431   2.141   2.881   2.851
 3496TIP3    H210432   2.213   2.837   2.726
 3497TIP3   OH210433   1.566   4.097   2.349
 3497TIP3    H110434   1.537   4.167   2.287
 3497TIP3    H210435   1.550   4.140   2.436
 3498TIP3   OH210436   1.664   2.812   2.586
 3498TIP3    H110437   1.660   2.903   2.622
 3498TIP3    H210438   1.760   2.796   2.593
 3499TIP3   OH210439   2.913   3.303   3.487
 3499TIP3    H110440   2.815   3.299   3.487
 3499TIP3    H210441   2.932   3.267   3.399
 3500TIP3   OH210442   2.567   3.497   2.870
 3500TIP3    H110443   2.492   3.436   2.882
 3500TIP3    H210444   2.639   3.450   2.919
 3501TIP3   OH210445   1.283   3.720   2.339
 3501TIP3    H110446   1.354   3.786   2.347
 3501TIP3    H210447   1.325   3.661   2.272
 3502TIP3   OH210448   1.221   2.999   2.475
 3502TIP3    H110449   1.225   3.097   2.473
 3502TIP3    H210450   1.144   2.983   2.419
 3503TIP3   OH210451   2.538   4.457   2.817
 3503TIP3    H110452   2.495   4.504   2.742
 3503TIP3    H210453   2.632   4.475   2.796
 3504TIP3   OH210454   1.613   2.722   3.343
 3504TIP3    H110455   1.583   2.688   3.256
 3504TIP3    H210456   1.601   2.643   3.400
 3505TIP3   OH210457   1.145   3.938   2.721
 3505TIP3    H110458   1.084   3.970   2.789
 3505TIP3    H210459   1.110   3.984   2.640
 3506TIP3   OH210460   1.313   4.492   3.800
 3506TIP3    H110461   1.399   4.494   3.846
 3506TIP3    H210462   1.296   4.397   3.796
 3507TIP3   OH210463   1.785   4.439   3.845
 3507TIP3    H110464   1.881   4.427   3.849
 3507TIP3    H210465   1.762   4.379   3.772
 3508TIP3   OH210466   1.770   4.022   1.967
 3508TIP3    H110467   1.717   3.948   2.005
 3508TIP3    H210468   1.847   3.972   1.931
 3509TIP3   OH210469   2.426   4.357   3.577
 3509TIP3    H110470   2.420   4.285   3.644
 3509TIP3    H210471   2.506   4.406   3.607
 3510TIP3   OH210472   2.205   4.059   1.883
 3510TIP3    H110473   2.248   3.995   1.943
 3510TIP3    H210474   2.262   4.056   1.804
 3511TIP3   OH210475   1.438   3.890   3.999
 3511TIP3    H110476   1.454   3.794   4.003
 3511TIP3    H210477   1.352   3.894   3.952
 3512TIP3   OH210478   1.419   3.534   2.196
 3512TIP3    H110479   1.478   3.508   2.269
 3512TIP3    H210480   1.484   3.541   2.122
 3513TIP3   OH210481   2.043   3.976   3.774
 3513TIP3    H110482   2.007   4.000   3.686
 3513TIP3    H210483   2.079   3.886   3.759
 3514TIP3   OH210484   1.935   3.738   2.002
 3514TIP3    H110485   1.936   3.750   2.099
 3514TIP3    H210486   1.934   3.640   1.996
 3515TIP3   OH210487   2.537   3.991   3.379
 3515TIP3    H110488   2.616   4.030   3.336
 3515TIP3    H210489   2.472   4.062   3.363
 3516TIP3   OH210490   1.558   3.626   3.985
 3516TIP3    H110491   1.639   3.589   3.947
 3516TIP3    H210492   1.589   3.659   4.072
 3517TIP3   OH210493   1.620   3.446   2.409
 3517TIP3    H110494   1.596   3.405   2.494
 3517TIP3    H210495   1.661   3.371   2.361
 3518TIP3   OH210496   1.893   3.504   3.642
 3518TIP3    H110497   1.817   3.566   3.644
 3518TIP3    H210498   1.945   3.540   3.566
 3519TIP3   OH210499   1.729   3.241   2.253
 3519TIP3    H110500   1.704   3.250   2.159
 3519TIP3    H210501   1.827   3.244   2.245
 3520TIP3   OH210502   2.410   3.907   3.773
 3520TIP3    H110503   2.492   3.881   3.730
 3520TIP3    H210504   2.408   3.846   3.849
 3521TIP3   OH210505   2.542   3.565   1.924
 3521TIP3    H110506   2.525   3.522   1.837
 3521TIP3    H210507   2.510   3.656   1.902
 3522TIP3   OH210508   2.018   3.298   3.767
 3522TIP3    H110509   2.020   3.221   3.707
 3522TIP3    H210510   1.976   3.366   3.710
 3523TIP3   OH210511   2.022   3.084   3.578
 3523TIP3    H110512   2.051   3.127   3.495
 3523TIP3    H210513   1.928   3.062   3.557
 3524TIP3   OH210514   2.042   3.618   3.451
 3524TIP3    H110515   2.129   3.633   3.412
 3524TIP3    H210516   1.987   3.684   3.403
 3525TIP3   OH210517   2.626   3.586   3.824
 3525TIP3    H110518   2.678   3.505   3.838
 3525TIP3    H210519   2.693   3.648   3.794
 3526TIP3   OH210520   2.668   3.838   3.561
 3526TIP3    H110521   2.610   3.895   3.504
 3526TIP3    H210522   2.756   3.860   3.523
 3527TIP3   OH210523   1.899   3.401   4.003
 3527TIP3    H110524   1.830   3.333   4.016
 3527TIP3    H210525   1.930   3.380   3.913
 3528TIP3   OH210526   2.153   2.847   3.653
 3528TIP3    H110527   2.104   2.928   3.626
 3528TIP3    H210528   2.085   2.778   3.637
 3529TIP3   OH210529   2.279   3.345   3.860
 3529TIP3    H110530   2.260   3.336   3.955
 3529TIP3    H210531   2.190   3.324   3.824
 3530TIP3   OH210532   2.514   3.297   3.711
 3530TIP3    H110533   2.441   3.302   3.776
 3530TIP3    H210534   2.590   3.271   3.767
 3531TIP3   OH210535   2.738   3.239   3.863
 3531TIP3    H110536   2.757   3.145   3.881
 3531TIP3    H210537   2.739   3.279   3.952
 3532TIP3   OH210538   1.732   3.184   4.057
 3532TIP3    H110539   1.737   3.093   4.022
 3532TIP3    H210540   1.769   3.171   4.147
 3533TIP3   OH210541   2.247   2.852   3.912
 3533TIP3    H110542   2.314   2.782   3.904
 3533TIP3    H210543   2.208   2.851   3.822
 3534TIP3   OH210544   2.316   3.073   4.062
 3534TIP3    H110545   2.294   3.004   3.997
 3534TIP3    H210546   2.237   3.132   4.057
 3535TIP3   OH210547   1.537   4.299   2.162
 3535TIP3    H110548   1.632   4.290   2.141
 3535TIP3    H210549   1.509   4.351   2.085
 3536TIP3   OH210550   1.014   3.682   2.376
 3536TIP3    H110551   1.108   3.703   2.360
 3536TIP3    H210552   1.008   3.593   2.333
 3537TIP3   OH210553   0.931   4.293   2.792
 3537TIP3    H110554   0.865   4.233   2.751
 3537TIP3    H210555   0.975   4.231   2.855
 3538TIP3   OH210556   1.066   4.136   2.977
 3538TIP3    H110557   1.050   4.069   3.045
 3538TIP3    H210558   1.118   4.200   3.027
 3539TIP3   OH210559   2.794   4.542   2.780
 3539TIP3    H110560   2.821   4.576   2.867
 3539TIP3    H210561   2.860   4.582   2.721
 3540TIP3   OH210562   2.820   4.564   3.063
 3540TIP3    H110563   2.775   4.477   3.057
 3540TIP3    H210564   2.895   4.539   3.119
 3541TIP3   OH210565   2.865   4.240   3.635
 3541TIP3    H110566   2.794   4.251   3.701
 3541TIP3    H210567   2.910   4.327   3.638
 3542TIP3   OH210568   2.684   3.754   2.251
 3542TIP3    H110569   2.750   3.819   2.220
 3542TIP3    H210570   2.731   3.717   2.329
 3543TIP3   OH210571   2.813   3.621   2.455
 3543TIP3    H110572   2.746   3.581   2.515
 3543TIP3    H210573   2.879   3.657   2.519
 3544TIP3   OH210574   2.869   4.016   2.887
 3544TIP3    H110575   2.922   3.947   2.841
 3544TIP3    H210576   2.867   4.088   2.821
 3545TIP3   OH210577   2.694   4.314   3.081
 3545TIP3    H110578   2.622   4.356   3.132
 3545TIP3    H210579   2.645   4.269   3.009
 3546TIP3   OH210580   2.749   3.530   2.101
 3546TIP3    H110581   2.677   3.531   2.034
 3546TIP3    H210582   2.721   3.607   2.155
 3547TIP3   OH210583   2.614   3.206   2.058
 3547TIP3    H110584   2.579   3.238   1.974
 3547TIP3    H210585   2.592   3.111   2.052
 3548TIP3   OH210586   2.622   3.482   2.600
 3548TIP3    H110587   2.632   3.386   2.592
 3548TIP3    H210588   2.608   3.493   2.697
 3549TIP3   OH210589   1.249   3.548   3.353
 3549TIP3    H110590   1.245   3.515   3.260
 3549TIP3    H210591   1.346   3.552   3.367
 3550TIP3   OH210592   2.914   3.903   3.456
 3550TIP3    H110593   2.985   3.837   3.446
 3550TIP3    H210594   2.941   3.973   3.394
 3551TIP3   OH210595   3.095   3.703   3.463
 3551TIP3    H110596   3.022   3.654   3.507
 3551TIP3    H210597   3.170   3.641   3.482
 3552TIP3   OH210598   2.559   2.941   2.047
 3552TIP3    H110599   2.637   2.906   2.095
 3552TIP3    H210600   2.491   2.874   2.060
 3553TIP3   OH210601   2.622   3.197   2.491
 3553TIP3    H110602   2.664   3.109   2.505
 3553TIP3    H210603   2.679   3.231   2.420
 3554TIP3   OH210604   2.780   3.364   2.991
 3554TIP3    H110605   2.865   3.388   2.948
 3554TIP3    H210606   2.796   3.403   3.079
 3555TIP3   OH210607   2.853   3.513   3.221
 3555TIP3    H110608   2.777   3.548   3.270
 3555TIP3    H210609   2.887   3.593   3.175
 3556TIP3   OH210610   1.464   3.230   4.020
 3556TIP3    H110611   1.562   3.228   4.026
 3556TIP3    H210612   1.443   3.144   4.062
 3557TIP3   OH210613   3.299   3.103   3.776
 3557TIP3    H110614   3.363   3.040   3.735
 3557TIP3    H210615   3.271   3.157   3.699
 3558TIP3   OH210616   2.729   2.947   2.533
 3558TIP3    H110617   2.778   2.930   2.617
 3558TIP3    H210618   2.669   2.870   2.532
 3559TIP3   OH210619   1.430   2.932   3.358
 3559TIP3    H110620   1.492   2.856   3.363
 3559TIP3    H210621   1.492   3.006   3.346
 3560TIP3   OH210622   1.229   3.203   3.425
 3560TIP3    H110623   1.279   3.198   3.341
 3560TIP3    H210624   1.256   3.290   3.458
 3561TIP3   OH210625   3.171   3.240   3.580
 3561TIP3    H110626   3.086   3.284   3.602
 3561TIP3    H210627   3.137   3.168   3.524
 3562TIP3   OH210628   2.806   2.875   2.168
 3562TIP3    H110629   2.847   2.808   2.110
 3562TIP3    H210630   2.872   2.948   2.165
 3563TIP3   OH210631   1.217   2.707   2.927
 3563TIP3    H110632   1.124   2.700   2.954
 3563TIP3    H210633   1.211   2.766   2.849
 3564TIP3   OH210634   2.374   4.413   2.434
 3564TIP3    H110635   2.425   4.402   2.351
 3564TIP3    H210636   2.428   4.479   2.481
 3565TIP3   OH210637   1.439   2.785   3.735
 3565TIP3    H110638   1.388   2.786   3.819
 3565TIP3    H210639   1.373   2.824   3.674
 3566TIP3   OH210640   1.475   4.217   3.814
 3566TIP3    H110641   1.381   4.194   3.801
 3566TIP3    H210642   1.486   4.203   3.909
 3567TIP3   OH210643   1.657   4.253   3.366
 3567TIP3    H110644   1.610   4.330   3.326
 3567TIP3    H210645   1.743   4.266   3.320
 3568TIP3   OH210646   2.094   4.493   3.502
 3568TIP3    H110647   2.137   4.492   3.591
 3568TIP3    H210648   2.160   4.545   3.451
 3569TIP3   OH210649   2.274   4.647   3.366
 3569TIP3    H110650   2.345   4.597   3.322
 3569TIP3    H210651   2.328   4.704   3.426
 3570TIP3   OH210652   3.072   3.003   3.464
 3570TIP3    H110653   2.983   2.993   3.424
 3570TIP3    H210654   3.108   2.912   3.453
 3571TIP3   OH210655   1.329   4.504   3.394
 3571TIP3    H110656   1.239   4.534   3.370
 3571TIP3    H210657   1.346   4.559   3.472
 3572TIP3   OH210658   1.566   4.485   3.250
 3572TIP3    H110659   1.478   4.496   3.292
 3572TIP3    H210660   1.548   4.516   3.159
 3573TIP3   OH210661   1.991   4.509   3.049
 3573TIP3    H110662   1.923   4.527   2.981
 3573TIP3    H210663   2.003   4.598   3.089
 3574TIP3   OH210664   2.261   4.448   3.101
 3574TIP3    H110665   2.167   4.467   3.080
 3574TIP3    H210666   2.306   4.520   3.053
 3575TIP3   OH210667   2.464   4.640   3.010
 3575TIP3    H110668   2.452   4.725   2.962
 3575TIP3    H210669   2.492   4.580   2.936
 3576TIP3   OH210670   1.240   4.297   3.133
 3576TIP3    H110671   1.267   4.269   3.223
 3576TIP3    H210672   1.313   4.256   3.081
 3577TIP3   OH210673   1.437   4.172   2.995
 3577TIP3    H110674   1.453   4.087   3.044
 3577TIP3    H210675   1.528   4.208   2.991
 3578TIP3   OH210676   1.704   4.263   3.000
 3578TIP3    H110677   1.734   4.171   2.988
 3578TIP3    H210678   1.754   4.285   3.081
 3579TIP3   OH210679   2.277   2.920   3.083
 3579TIP3    H110680   2.237   2.846   3.132
 3579TIP3    H210681   2.353   2.877   3.038
 3580TIP3   OH210682   2.794   2.800   2.984
 3580TIP3    H110683   2.833   2.851   2.910
 3580TIP3    H210684   2.700   2.825   2.980
 3581TIP3   OH210685   2.893   2.897   2.750
 3581TIP3    H110686   2.967   2.845   2.713
 3581TIP3    H210687   2.928   2.988   2.736
 3582TIP3   OH210688   1.525   2.627   3.097
 3582TIP3    H110689   1.432   2.596   3.099
 3582TIP3    H210690   1.572   2.541   3.092
 3583TIP3   OH210691   1.322   2.502   2.748
 3583TIP3    H110692   1.347   2.558   2.673
 3583TIP3    H210693   1.290   2.568   2.813
 3584TIP3   OH210694   1.974   2.658   2.980
 3584TIP3    H110695   2.027   2.706   2.914
 3584TIP3    H210696   2.004   2.700   3.062
 3585TIP3   OH210697   2.507   2.809   2.963
 3585TIP3    H110698   2.517   2.769   2.876
 3585TIP3    H210699   2.499   2.728   3.020
 3586TIP3   OH210700   2.546   2.735   2.525
 3586TIP3    H110701   2.462   2.780   2.544
 3586TIP3    H210702   2.531   2.649   2.569
 3587TIP3   OH210703   1.028   4.078   2.522
 3587TIP3    H110704   0.941   4.046   2.490
 3587TIP3    H210705   1.022   4.170   2.491
 3588TIP3   OH210706   1.433   2.655   2.511
 3588TIP3    H110707   1.480   2.595   2.450
 3588TIP3    H210708   1.507   2.710   2.544
 3589TIP3   OH210709   1.940   2.836   2.608
 3589TIP3    H110710   2.003   2.792   2.668
 3589TIP3    H210711   1.960   2.929   2.631
 3590TIP3   OH210712   1.803   4.253   2.109
 3590TIP3    H110713   1.891   4.277   2.071
 3590TIP3    H210714   1.781   4.179   2.048
 3591TIP3   OH210715   2.521   4.379   2.203
 3591TIP3    H110716   2.513   4.281   2.191
 3591TIP3    H210717   2.476   4.410   2.121
 3592TIP3   OH210718   1.733   2.909   3.987
 3592TIP3    H110719   1.695   2.843   4.047
 3592TIP3    H210720   1.827   2.909   4.016
 3593TIP3   OH210721   1.984   2.908   4.107
 3593TIP3    H110722   2.064   2.881   4.059
 3593TIP3    H210723   1.974   2.835   4.172
 3594TIP3   OH210724   1.104   4.090   2.159
 3594TIP3    H110725   1.108   4.116   2.252
 3594TIP3    H210726   1.191   4.048   2.145
 3595TIP3   OH210727   2.813   2.968   3.897
 3595TIP3    H110728   2.836   2.923   3.980
 3595TIP3    H210729   2.900   2.969   3.851
 3596TIP3   OH210730   2.743   4.521   3.387
 3596TIP3    H110731   2.665   4.491   3.335
 3596TIP3    H210732   2.725   4.617   3.393
 3597TIP3   OH210733   4.014   3.897   2.148
 3597TIP3    H110734   3.982   3.986   2.127
 3597TIP3    H210735   3.940   3.843   2.116
 3598TIP3   OH210736   4.014   3.896   2.541
 3598TIP3    H110737   4.051   3.872   2.628
 3598TIP3    H210738   3.973   3.813   2.512
 3599TIP3   OH210739   3.308   3.785   2.903
 3599TIP3    H110740   3.339   3.717   2.965
 3599TIP3    H210741   3.389   3.837   2.891
 3600TIP3   OH210742   4.260   4.199   2.219
 3600TIP3    H110743   4.242   4.131   2.285
 3600TIP3    H210744   4.290   4.274   2.274
 3601TIP3   OH210745   3.286   4.199   2.621
 3601TIP3    H110746   3.277   4.102   2.622
 3601TIP3    H210747   3.383   4.208   2.613
 3602TIP3   OH210748   2.989   3.397   2.404
 3602TIP3    H110749   2.943   3.481   2.423
 3602TIP3    H210750   2.919   3.348   2.358
 3603TIP3   OH210751   3.047   3.688   2.587
 3603TIP3    H110752   3.098   3.610   2.619
 3603TIP3    H210753   3.108   3.727   2.524
 3604TIP3   OH210754   3.913   4.660   2.236
 3604TIP3    H110755   3.952   4.589   2.181
 3604TIP3    H210756   3.899   4.615   2.320
 3605TIP3   OH210757   3.810   4.121   2.583
 3605TIP3    H110758   3.851   4.044   2.541
 3605TIP3    H210759   3.892   4.169   2.609
 3606TIP3   OH210760   4.828   3.439   2.581
 3606TIP3    H110761   4.858   3.523   2.623
 3606TIP3    H210762   4.851   3.456   2.488
 3607TIP3   OH210763   4.224   3.620   2.611
 3607TIP3    H110764   4.267   3.535   2.632
 3607TIP3    H210765   4.191   3.601   2.521
 3608TIP3   OH210766   3.567   3.280   2.577
 3608TIP3    H110767   3.546   3.353   2.515
 3608TIP3    H210768   3.517   3.207   2.535
 3609TIP3   OH210769   4.260   3.373   2.198
 3609TIP3    H110770   4.331   3.359   2.265
 3609TIP3    H210771   4.313   3.407   2.124
 3610TIP3   OH210772   3.195   3.481   2.688
 3610TIP3    H110773   3.279   3.463   2.735
 3610TIP3    H210774   3.210   3.427   2.607
 3611TIP3   OH210775   3.634   3.679   2.486
 3611TIP3    H110776   3.729   3.656   2.496
 3611TIP3    H210777   3.597   3.596   2.451
 3612TIP3   OH210778   4.901   3.650   2.750
 3612TIP3    H110779   4.816   3.694   2.733
 3612TIP3    H210780   4.922   3.683   2.839
 3613TIP3   OH210781   3.559   3.264   3.014
 3613TIP3    H110782   3.500   3.301   2.945
 3613TIP3    H210783   3.505   3.282   3.094
 3614TIP3   OH210784   3.901   4.115   2.018
 3614TIP3    H110785   3.861   4.102   1.931
 3614TIP3    H210786   3.855   4.197   2.048
 3615TIP3   OH210787   3.665   4.040   2.803
 3615TIP3    H110788   3.606   4.110   2.839
 3615TIP3    H210789   3.709   4.087   2.729
 3616TIP3   OH210790   4.461   3.380   2.380
 3616TIP3    H110791   4.445   3.337   2.465
 3616TIP3    H210792   4.514   3.458   2.406
 3617TIP3   OH210793   3.431   3.378   2.796
 3617TIP3    H110794   3.493   3.451   2.820
 3617TIP3    H210795   3.481   3.338   2.721
 3618TIP3   OH210796   3.496   4.238   2.906
 3618TIP3    H110797   3.470   4.326   2.870
 3618TIP3    H210798   3.417   4.220   2.960
 3619TIP3   OH210799   2.882   3.926   2.141
 3619TIP3    H110800   2.844   3.952   2.055
 3619TIP3    H210801   2.915   4.012   2.175
 3620TIP3   OH210802   4.325   4.444   2.381
 3620TIP3    H110803   4.235   4.434   2.421
 3620TIP3    H210804   4.316   4.530   2.336
 3621TIP3   OH210805   4.621   3.337   2.746
 3621TIP3    H110806   4.534   3.365   2.713
 3621TIP3    H210807   4.682   3.371   2.677
 3622TIP3   OH210808   3.909   2.978   2.729
 3622TIP3    H110809   3.895   2.883   2.750
 3622TIP3    H210810   3.833   3.018   2.777
 3623TIP3   OH210811   4.023   4.486   2.051
 3623TIP3    H110812   4.074   4.403   2.033
 3623TIP3    H210813   4.087   4.551   2.012
 3624TIP3   OH210814   4.170   4.270   1.968
 3624TIP3    H110815   4.129   4.190   1.933
 3624TIP3    H210816   4.209   4.237   2.052
 3625TIP3   OH210817   4.551   4.351   2.726
 3625TIP3    H110818   4.538   4.273   2.666
 3625TIP3    H210819   4.533   4.426   2.665
 3626TIP3   OH210820   3.844   3.746   1.987
 3626TIP3    H110821   3.764   3.799   1.967
 3626TIP3    H210822   3.889   3.743   1.900
 3627TIP3   OH210823   3.802   3.534   1.697
 3627TIP3    H110824   3.869   3.586   1.744
 3627TIP3    H210825   3.860   3.470   1.649
 3628TIP3   OH210826   4.746   3.992   2.574
 3628TIP3    H110827   4.662   4.043   2.577
 3628TIP3    H210828   4.777   4.015   2.484
 3629TIP3   OH210829   4.193   3.830   1.953
 3629TIP3    H110830   4.138   3.854   2.031
 3629TIP3    H210831   4.277   3.805   1.997
 3630TIP3   OH210832   4.425   3.865   2.874
 3630TIP3    H110833   4.423   3.948   2.925
 3630TIP3    H210834   4.339   3.870   2.828
 3631TIP3   OH210835   3.423   3.824   2.374
 3631TIP3    H110836   3.383   3.766   2.306
 3631TIP3    H210837   3.500   3.771   2.404
 3632TIP3   OH210838   3.553   4.238   2.519
 3632TIP3    H110839   3.534   4.205   2.429
 3632TIP3    H210840   3.642   4.200   2.536
 3633TIP3   OH210841   3.555   3.798   2.728
 3633TIP3    H110842   3.589   3.771   2.640
 3633TIP3    H210843   3.601   3.883   2.744
 3634TIP3   OH210844   4.086   4.436   2.505
 3634TIP3    H110845   4.073   4.515   2.561
 3634TIP3    H210846   4.069   4.362   2.567
 3635TIP3   OH210847   3.700   4.354   3.052
 3635TIP3    H110848   3.637   4.415   3.098
 3635TIP3    H210849   3.636   4.300   3.000
 3636TIP3   OH210850   4.029   3.687   1.782
 3636TIP3    H110851   4.089   3.748   1.832
 3636TIP3    H210852   4.056   3.707   1.689
 3637TIP3   OH210853   3.456   3.907   3.159
 3637TIP3    H110854   3.460   3.996   3.199
 3637TIP3    H210855   3.360   3.887   3.170
 3638TIP3   OH210856   3.778   4.362   2.058
 3638TIP3    H110857   3.861   4.414   2.063
 3638TIP3    H210858   3.718   4.423   2.013
 3639TIP3   OH210859   3.492   4.519   3.139
 3639TIP3    H110860   3.457   4.522   3.048
 3639TIP3    H210861   3.411   4.497   3.191
 3640TIP3   OH210862   4.547   2.925   1.832
 3640TIP3    H110863   4.466   2.948   1.881
 3640TIP3    H210864   4.562   3.007   1.781
 3641TIP3   OH210865   3.290   3.669   2.177
 3641TIP3    H110866   3.221   3.713   2.123
 3641TIP3    H210867   3.254   3.580   2.185
 3642TIP3   OH210868   4.348   4.293   1.380
 3642TIP3    H110869   4.356   4.389   1.365
 3642TIP3    H210870   4.441   4.264   1.367
 3643TIP3   OH210871   3.070   4.054   3.085
 3643TIP3    H110872   3.003   4.033   3.017
 3643TIP3    H210873   3.109   3.967   3.106
 3644TIP3   OH210874   2.926   4.245   2.717
 3644TIP3    H110875   3.022   4.240   2.707
 3644TIP3    H210876   2.917   4.323   2.773
 3645TIP3   OH210877   4.787   4.700   2.775
 3645TIP3    H110878   4.788   4.604   2.791
 3645TIP3    H210879   4.704   4.725   2.822
 3646TIP3   OH210880   3.895   4.482   2.909
 3646TIP3    H110881   3.890   4.575   2.941
 3646TIP3    H210882   3.823   4.441   2.962
 3647TIP3   OH210883   3.662   4.610   1.862
 3647TIP3    H110884   3.613   4.592   1.779
 3647TIP3    H210885   3.626   4.696   1.889
 3648TIP3   OH210886   3.095   4.458   2.247
 3648TIP3    H110887   3.142   4.449   2.333
 3648TIP3    H210888   3.045   4.374   2.244
 3649TIP3   OH210889   3.858   4.514   1.497
 3649TIP3    H110890   3.917   4.443   1.462
 3649TIP3    H210891   3.893   4.525   1.588
 3650TIP3   OH210892   3.911   4.563   1.766
 3650TIP3    H110893   3.822   4.573   1.807
 3650TIP3    H210894   3.961   4.524   1.840
 3651TIP3   OH210895   4.677   3.826   3.050
 3651TIP3    H110896   4.594   3.835   3.002
 3651TIP3    H210897   4.695   3.730   3.042
 3652TIP3   OH210898   3.276   4.236   3.069
 3652TIP3    H110899   3.325   4.220   3.152
 3652TIP3    H210900   3.201   4.173   3.077
 3653TIP3   OH210901   3.674   3.058   2.861
 3653TIP3    H110902   3.585   3.028   2.831
 3653TIP3    H210903   3.647   3.138   2.910
 3654TIP3   OH210904   4.211   3.172   3.054
 3654TIP3    H110905   4.281   3.145   3.117
 3654TIP3    H210906   4.129   3.153   3.103
 3655TIP3   OH210907   4.444   3.602   2.971
 3655TIP3    H110908   4.394   3.600   3.056
 3655TIP3    H210909   4.422   3.690   2.935
 3656TIP3   OH210910   4.109   3.726   1.527
 3656TIP3    H110911   4.072   3.707   1.439
 3656TIP3    H210912   4.193   3.770   1.503
 3657TIP3   OH210913   3.820   3.104   1.831
 3657TIP3    H110914   3.784   3.102   1.922
 3657TIP3    H210915   3.778   3.023   1.795
 3658TIP3   OH210916   3.606   3.576   2.876
 3658TIP3    H110917   3.557   3.596   2.958
 3658TIP3    H210918   3.590   3.657   2.824
 3659TIP3   OH210919   3.491   3.462   2.391
 3659TIP3    H110920   3.398   3.436   2.410
 3659TIP3    H210921   3.502   3.421   2.302
 3660TIP3   OH210922   3.980   3.546   2.122
 3660TIP3    H110923   3.930   3.617   2.077
 3660TIP3    H210924   4.036   3.511   2.049
 3661TIP3   OH210925   4.156   3.820   3.202
 3661TIP3    H110926   4.133   3.748   3.265
 3661TIP3    H210927   4.249   3.834   3.225
 3662TIP3   OH210928   4.136   3.571   2.355
 3662TIP3    H110929   4.073   3.598   2.286
 3662TIP3    H210930   4.173   3.492   2.311
 3663TIP3   OH210931   3.426   3.602   3.085
 3663TIP3    H110932   3.460   3.665   3.151
 3663TIP3    H210933   3.416   3.521   3.138
 3664TIP3   OH210934   3.476   3.083   1.788
 3664TIP3    H110935   3.460   3.086   1.884
 3664TIP3    H210936   3.398   3.131   1.754
 3665TIP3   OH210937   3.019   3.120   2.670
 3665TIP3    H110938   3.093   3.156   2.724
 3665TIP3    H210939   3.061   3.096   2.587
 3666TIP3   OH210940   2.979   3.103   2.187
 3666TIP3    H110941   3.026   3.140   2.108
 3666TIP3    H210942   2.919   3.178   2.205
 3667TIP3   OH210943   4.147   3.817   2.777
 3667TIP3    H110944   4.181   3.746   2.717
 3667TIP3    H210945   4.117   3.763   2.852
 3668TIP3   OH210946   3.825   3.280   2.450
 3668TIP3    H110947   3.744   3.280   2.506
 3668TIP3    H210948   3.895   3.273   2.517
 3669TIP3   OH210949   3.252   3.340   2.458
 3669TIP3    H110950   3.158   3.347   2.429
 3669TIP3    H210951   3.276   3.249   2.434
 3670TIP3   OH210952   3.515   3.334   2.150
 3670TIP3    H110953   3.609   3.349   2.128
 3670TIP3    H210954   3.469   3.355   2.066
 3671TIP3   OH210955   4.311   3.359   2.654
 3671TIP3    H110956   4.280   3.372   2.747
 3671TIP3    H210957   4.242   3.299   2.621
 3672TIP3   OH210958   3.369   3.366   1.923
 3672TIP3    H110959   3.298   3.321   1.876
 3672TIP3    H210960   3.420   3.405   1.849
 3673TIP3   OH210961   4.484   5.048   2.875
 3673TIP3    H110962   4.483   5.070   2.780
 3673TIP3    H210963   4.566   5.093   2.904
 3674TIP3   OH210964   3.438   4.158   3.293
 3674TIP3    H110965   3.518   4.187   3.341
 3674TIP3    H210966   3.373   4.156   3.366
 3675TIP3   OH210967   3.899   3.613   2.549
 3675TIP3    H110968   3.973   3.574   2.501
 3675TIP3    H210969   3.904   3.568   2.635
 3676TIP3   OH210970   3.417   3.098   2.433
 3676TIP3    H110971   3.382   3.021   2.482
 3676TIP3    H210972   3.461   3.056   2.358
 3677TIP3   OH210973   3.876   3.513   2.837
 3677TIP3    H110974   3.786   3.548   2.852
 3677TIP3    H210975   3.933   3.574   2.888
 3678TIP3   OH210976   3.613   3.897   1.933
 3678TIP3    H110977   3.540   3.832   1.920
 3678TIP3    H210978   3.592   3.931   2.024
 3679TIP3   OH210979   4.511   4.135   2.558
 3679TIP3    H110980   4.535   4.186   2.478
 3679TIP3    H210981   4.427   4.092   2.531
 3680TIP3   OH210982   4.070   3.207   1.802
 3680TIP3    H110983   3.974   3.187   1.811
 3680TIP3    H210984   4.076   3.301   1.827
 3681TIP3   OH210985   4.011   4.217   2.931
 3681TIP3    H110986   4.045   4.200   3.020
 3681TIP3    H210987   3.973   4.306   2.939
 3682TIP3   OH210988   4.138   3.459   1.904
 3682TIP3    H110989   4.234   3.466   1.918
 3682TIP3    H210990   4.118   3.540   1.852
 3683TIP3   OH210991   3.307   3.922   2.607
 3683TIP3    H110992   3.344   3.894   2.520
 3683TIP3    H210993   3.355   3.865   2.668
 3684TIP3   OH210994   3.760   4.049   1.760
 3684TIP3    H110995   3.710   4.134   1.762
 3684TIP3    H210996   3.705   3.993   1.819
 3685TIP3   OH210997   3.190   3.841   3.223
 3685TIP3    H110998   3.209   3.828   3.318
 3685TIP3    H210999   3.121   3.775   3.207
 3686TIP3   OH211000   3.917   3.960   3.240
 3686TIP3    H111001   3.856   3.899   3.196
 3686TIP3    H211002   4.003   3.922   3.213
 3687TIP3   OH211003   4.171   4.479   2.828
 3687TIP3    H111004   4.074   4.477   2.842
 3687TIP3    H211005   4.198   4.531   2.907
 3688TIP3   OH211006   4.578   3.553   1.736
 3688TIP3    H111007   4.517   3.509   1.672
 3688TIP3    H211008   4.575   3.643   1.696
 3689TIP3   OH211009   4.801   4.411   2.814
 3689TIP3    H111010   4.703   4.403   2.806
 3689TIP3    H211011   4.828   4.380   2.725
 3690TIP3   OH211012   4.288   4.369   1.647
 3690TIP3    H111013   4.255   4.302   1.708
 3690TIP3    H211014   4.296   4.320   1.563
 3691TIP3   OH211015   4.278   3.999   2.474
 3691TIP3    H111016   4.185   3.974   2.489
 3691TIP3    H211017   4.311   3.917   2.431
 3692TIP3   OH211018   3.410   4.228   2.237
 3692TIP3    H111019   3.407   4.309   2.181
 3692TIP3    H211020   3.316   4.208   2.246
 3693TIP3   OH211021   2.974   3.528   1.939
 3693TIP3    H111022   3.018   3.613   1.961
 3693TIP3    H211023   2.896   3.532   2.000
 3694TIP3   OH211024   3.537   3.989   2.175
 3694TIP3    H111025   3.506   4.079   2.196
 3694TIP3    H211026   3.503   3.938   2.252
 3695TIP3   OH211027   3.679   4.568   2.702
 3695TIP3    H111028   3.721   4.640   2.651
 3695TIP3    H211029   3.756   4.530   2.748
 3696TIP3   OH211030   3.326   4.464   2.087
 3696TIP3    H111031   3.240   4.474   2.132
 3696TIP3    H211032   3.360   4.556   2.089
 3697TIP3   OH211033   4.061   4.204   2.663
 3697TIP3    H111034   4.050   4.202   2.761
 3697TIP3    H211035   4.140   4.149   2.652
 3698TIP3   OH211036   4.043   4.100   1.545
 3698TIP3    H111037   4.096   4.074   1.625
 3698TIP3    H211038   3.955   4.069   1.571
 3699TIP3   OH211039   4.312   4.734   2.713
 3699TIP3    H111040   4.232   4.678   2.708
 3699TIP3    H211041   4.295   4.798   2.639
 3700TIP3   OH211042   4.377   4.569   1.362
 3700TIP3    H111043   4.410   4.644   1.310
 3700TIP3    H211044   4.297   4.611   1.401
 3701TIP3   OH211045   3.396   3.346   3.227
 3701TIP3    H111046   3.300   3.346   3.240
 3701TIP3    H211047   3.426   3.292   3.302
 3702TIP3   OH211048   4.203   4.029   1.758
 3702TIP3    H111049   4.192   3.963   1.830
 3702TIP3    H211050   4.301   4.026   1.748
 3703TIP3   OH211051   3.115   4.429   2.860
 3703TIP3    H111052   3.170   4.358   2.897
 3703TIP3    H211053   3.142   4.505   2.914
 3704TIP3   OH211054   3.405   4.075   1.546
 3704TIP3    H111055   3.415   3.981   1.520
 3704TIP3    H211056   3.382   4.066   1.641
 3705TIP3   OH211057   3.346   4.082   1.818
 3705TIP3    H111058   3.422   4.055   1.872
 3705TIP3    H211059   3.350   4.180   1.826
 3706TIP3   OH211060   3.081   3.773   2.023
 3706TIP3    H111061   3.014   3.819   2.079
 3706TIP3    H211062   3.095   3.840   1.954
 3707TIP3   OH211063   4.239   3.409   2.914
 3707TIP3    H111064   4.319   3.449   2.952
 3707TIP3    H211065   4.227   3.329   2.969
 3708TIP3   OH211066   4.120   3.156   2.084
 3708TIP3    H111067   4.105   3.179   1.990
 3708TIP3    H211068   4.159   3.239   2.119
 3709TIP3   OH211069   3.617   4.278   1.766
 3709TIP3    H111070   3.529   4.301   1.802
 3709TIP3    H211071   3.631   4.354   1.707
 3710TIP3   OH211072   3.800   3.344   2.182
 3710TIP3    H111073   3.864   3.416   2.165
 3710TIP3    H211074   3.808   3.334   2.279
 3711TIP3   OH211075   4.075   3.657   2.985
 3711TIP3    H111076   4.100   3.708   3.064
 3711TIP3    H211077   4.128   3.575   2.995
 3712TIP3   OH211078   3.945   3.060   2.280
 3712TIP3    H111079   3.938   3.138   2.338
 3712TIP3    H211080   4.009   3.094   2.213
 3713TIP3   OH211081   3.363   4.353   1.837
 3713TIP3    H111082   3.334   4.423   1.774
 3713TIP3    H211083   3.346   4.397   1.923
 3714TIP3   OH211084   3.459   3.069   2.068
 3714TIP3    H111085   3.456   3.159   2.106
 3714TIP3    H211086   3.555   3.052   2.075
 3715TIP3   OH211087   4.711   3.560   2.970
 3715TIP3    H111088   4.613   3.558   2.977
 3715TIP3    H211089   4.723   3.513   2.887
 3716TIP3   OH211090   4.364   3.753   2.356
 3716TIP3    H111091   4.287   3.694   2.369
 3716TIP3    H211092   4.435   3.706   2.405
 3717TIP3   OH211093   3.079   3.976   1.825
 3717TIP3    H111094   3.150   4.042   1.833
 3717TIP3    H211095   3.121   3.917   1.759
 3718TIP3   OH211096   3.023   3.259   1.967
 3718TIP3    H111097   3.018   3.357   1.961
 3718TIP3    H211098   2.964   3.231   1.897
 3719TIP3   OH211099   4.334   4.715   2.304
 3719TIP3    H111100   4.291   4.762   2.229
 3719TIP3    H211101   4.428   4.733   2.283
 3720TIP3   OH211102   3.408   2.978   2.830
 3720TIP3    H111103   3.379   2.944   2.743
 3720TIP3    H211104   3.398   2.900   2.888
 3721TIP3   OH211105   2.943   4.195   2.208
 3721TIP3    H111106   2.881   4.226   2.276
 3721TIP3    H211107   2.907   4.241   2.128
 3722TIP3   OH211108   3.110   4.748   3.284
 3722TIP3    H111109   3.196   4.748   3.332
 3722TIP3    H211110   3.090   4.653   3.283
 3723TIP3   OH211111   3.584   4.699   3.328
 3723TIP3    H111112   3.678   4.678   3.335
 3723TIP3    H211113   3.557   4.638   3.257
 3724TIP3   OH211114   3.567   4.277   1.454
 3724TIP3    H111115   3.511   4.205   1.493
 3724TIP3    H211116   3.642   4.225   1.421
 3725TIP3   OH211117   4.223   4.613   3.064
 3725TIP3    H111118   4.217   4.541   3.131
 3725TIP3    H211119   4.301   4.663   3.094
 3726TIP3   OH211120   4.003   4.315   1.371
 3726TIP3    H111121   4.040   4.248   1.432
 3726TIP3    H211122   4.062   4.309   1.294
 3727TIP3   OH211123   3.236   4.148   3.484
 3727TIP3    H111124   3.251   4.052   3.494
 3727TIP3    H211125   3.148   4.150   3.439
 3728TIP3   OH211126   3.215   3.791   1.682
 3728TIP3    H111127   3.273   3.762   1.754
 3728TIP3    H211128   3.280   3.797   1.609
 3729TIP3   OH211129   3.842   4.235   3.259
 3729TIP3    H111130   3.802   4.255   3.172
 3729TIP3    H211131   3.874   4.143   3.248
 3730TIP3   OH211132   3.736   3.998   1.489
 3730TIP3    H111133   3.733   4.008   1.586
 3730TIP3    H211134   3.734   3.900   1.482
 3731TIP3   OH211135   4.335   4.247   2.867
 3731TIP3    H111136   4.412   4.288   2.823
 3731TIP3    H211137   4.266   4.315   2.850
 3732TIP3   OH211138   3.356   3.882   3.468
 3732TIP3    H111139   3.436   3.836   3.439
 3732TIP3    H211140   3.385   3.915   3.556
 3733TIP3   OH211141   3.418   3.702   1.897
 3733TIP3    H111142   3.392   3.661   1.981
 3733TIP3    H211143   3.457   3.627   1.848
 3734TIP3   OH211144   3.689   3.762   3.128
 3734TIP3    H111145   3.612   3.824   3.130
 3734TIP3    H211146   3.741   3.798   3.052
 3735TIP3   OH211147   3.526   3.499   1.741
 3735TIP3    H111148   3.500   3.508   1.647
 3735TIP3    H211149   3.623   3.501   1.733
 3736TIP3   OH211150   4.208   4.166   3.260
 3736TIP3    H111151   4.285   4.132   3.213
 3736TIP3    H211152   4.202   4.104   3.335
 3737TIP3   OH211153   4.341   3.823   1.408
 3737TIP3    H111154   4.321   3.779   1.323
 3737TIP3    H211155   4.308   3.913   1.388
 3738TIP3   OH211156   3.814   3.555   3.253
 3738TIP3    H111157   3.816   3.477   3.194
 3738TIP3    H211158   3.770   3.622   3.196
 3739TIP3   OH211159   3.817   3.342   3.062
 3739TIP3    H111160   3.846   3.383   2.978
 3739TIP3    H211161   3.724   3.319   3.043
 3740TIP3   OH211162   3.839   3.875   2.936
 3740TIP3    H111163   3.925   3.889   2.896
 3740TIP3    H211164   3.783   3.940   2.889
 3741TIP3   OH211165   4.422   3.840   3.312
 3741TIP3    H111166   4.468   3.757   3.330
 3741TIP3    H211167   4.493   3.895   3.275
 3742TIP3   OH211168   4.464   4.096   3.051
 3742TIP3    H111169   4.407   4.152   2.993
 3742TIP3    H211170   4.552   4.117   3.012
 3743TIP3   OH211171   3.691   3.659   3.485
 3743TIP3    H111172   3.624   3.590   3.502
 3743TIP3    H211173   3.725   3.632   3.398
 3744TIP3   OH211174   3.948   3.103   3.134
 3744TIP3    H111175   3.899   3.184   3.110
 3744TIP3    H211176   3.880   3.034   3.122
 3745TIP3   OH211177   4.074   3.604   3.347
 3745TIP3    H111178   4.060   3.590   3.442
 3745TIP3    H211179   3.985   3.581   3.314
 3746TIP3   OH211180   4.312   3.556   3.201
 3746TIP3    H111181   4.238   3.557   3.265
 3746TIP3    H211182   4.387   3.527   3.257
 3747TIP3   OH211183   4.542   3.499   3.348
 3747TIP3    H111184   4.556   3.403   3.365
 3747TIP3    H211185   4.537   3.535   3.439
 3748TIP3   OH211186   3.529   3.440   3.543
 3748TIP3    H111187   3.535   3.347   3.512
 3748TIP3    H211188   3.568   3.431   3.633
 3749TIP3   OH211189   4.039   3.112   3.393
 3749TIP3    H111190   4.106   3.041   3.386
 3749TIP3    H211191   4.001   3.108   3.303
 3750TIP3   OH211192   4.108   3.327   3.550
 3750TIP3    H111193   4.086   3.256   3.486
 3750TIP3    H211194   4.029   3.385   3.543
 3751TIP3   OH211195   3.333   4.553   1.648
 3751TIP3    H111196   3.428   4.547   1.627
 3751TIP3    H211197   3.303   4.608   1.573
 3752TIP3   OH211198   2.810   3.938   1.862
 3752TIP3    H111199   2.905   3.959   1.846
 3752TIP3    H211200   2.803   3.850   1.820
 3753TIP3   OH211201   2.726   4.548   2.281
 3753TIP3    H111202   2.661   4.488   2.240
 3753TIP3    H211203   2.771   4.487   2.344
 3754TIP3   OH211204   2.861   4.392   2.465
 3754TIP3    H111205   2.848   4.325   2.534
 3754TIP3    H211206   2.914   4.458   2.514
 3755TIP3   OH211207   4.590   4.800   2.267
 3755TIP3    H111208   4.617   4.830   2.355
 3755TIP3    H211209   4.658   4.840   2.210
 3756TIP3   OH211210   4.618   4.820   2.549
 3756TIP3    H111211   4.571   4.734   2.544
 3756TIP3    H211212   4.692   4.794   2.607
 3757TIP3   OH211213   4.663   4.499   3.121
 3757TIP3    H111214   4.591   4.509   3.187
 3757TIP3    H211215   4.707   4.586   3.126
 3758TIP3   OH211216   4.482   4.009   1.738
 3758TIP3    H111217   4.548   4.076   1.709
 3758TIP3    H211218   4.526   3.972   1.817
 3759TIP3   OH211219   4.609   3.877   1.943
 3759TIP3    H111220   4.541   3.836   2.002
 3759TIP3    H211221   4.674   3.913   2.007
 3760TIP3   OH211222   4.666   4.273   2.374
 3760TIP3    H111223   4.718   4.204   2.329
 3760TIP3    H211224   4.661   4.343   2.306
 3761TIP3   OH211225   4.490   4.572   2.567
 3761TIP3    H111226   4.418   4.612   2.619
 3761TIP3    H211227   4.441   4.526   2.496
 3762TIP3   OH211228   4.545   3.787   1.588
 3762TIP3    H111229   4.472   3.788   1.521
 3762TIP3    H211230   4.517   3.862   1.643
 3763TIP3   OH211231   4.416   3.458   1.539
 3763TIP3    H111232   4.367   3.492   1.463
 3763TIP3    H211233   4.395   3.363   1.533
 3764TIP3   OH211234   4.419   3.737   2.087
 3764TIP3    H111235   4.427   3.641   2.079
 3764TIP3    H211236   4.404   3.749   2.184
 3765TIP3   OH211237   3.044   3.807   2.838
 3765TIP3    H111238   3.042   3.773   2.746
 3765TIP3    H211239   3.142   3.809   2.853
 3766TIP3   OH211240   4.711   4.161   2.946
 3766TIP3    H111241   4.781   4.093   2.935
 3766TIP3    H211242   4.737   4.228   2.881
 3767TIP3   OH211243   4.892   3.960   2.951
 3767TIP3    H111244   4.818   3.911   2.992
 3767TIP3    H211245   4.966   3.897   2.970
 3768TIP3   OH211246   4.359   3.193   1.524
 3768TIP3    H111247   4.431   3.160   1.580
 3768TIP3    H211248   4.284   3.134   1.545
 3769TIP3   OH211249   4.418   3.453   1.978
 3769TIP3    H111250   4.459   3.365   1.993
 3769TIP3    H211251   4.476   3.487   1.907
 3770TIP3   OH211252   4.576   3.621   2.478
 3770TIP3    H111253   4.661   3.645   2.435
 3770TIP3    H211254   4.591   3.659   2.566
 3771TIP3   OH211255   4.650   3.769   2.707
 3771TIP3    H111256   4.573   3.803   2.757
 3771TIP3    H211257   4.682   3.851   2.663
 3772TIP3   OH211258   3.263   3.490   3.503
 3772TIP3    H111259   3.360   3.489   3.512
 3772TIP3    H211260   3.240   3.405   3.545
 3773TIP3   OH211261   5.100   3.363   3.263
 3773TIP3    H111262   5.160   3.298   3.220
 3773TIP3    H211263   5.068   3.415   3.185
 3774TIP3   OH211264   4.526   3.203   2.019
 3774TIP3    H111265   4.574   3.186   2.103
 3774TIP3    H211266   4.465   3.127   2.017
 3775TIP3   OH211267   3.225   3.188   2.844
 3775TIP3    H111268   3.287   3.113   2.850
 3775TIP3    H211269   3.288   3.262   2.832
 3776TIP3   OH211270   3.024   3.459   2.911
 3776TIP3    H111271   3.075   3.456   2.827
 3776TIP3    H211272   3.053   3.544   2.947
 3777TIP3   OH211273   4.966   3.496   3.067
 3777TIP3    H111274   4.881   3.540   3.087
 3777TIP3    H211275   4.934   3.423   3.010
 3778TIP3   OH211276   4.602   3.132   1.655
 3778TIP3    H111277   4.642   3.063   1.598
 3778TIP3    H211278   4.669   3.203   1.652
 3779TIP3   OH211279   3.013   2.961   2.413
 3779TIP3    H111280   2.921   2.957   2.442
 3779TIP3    H211281   3.007   3.020   2.335
 3780TIP3   OH211282   4.173   4.668   1.921
 3780TIP3    H111283   4.225   4.658   1.838
 3780TIP3    H211284   4.225   4.736   1.969
 3781TIP3   OH211285   3.232   3.043   3.228
 3781TIP3    H111286   3.181   3.041   3.311
 3781TIP3    H211287   3.167   3.080   3.166
 3782TIP3   OH211288   3.271   4.476   3.303
 3782TIP3    H111289   3.177   4.451   3.289
 3782TIP3    H211290   3.283   4.454   3.397
 3783TIP3   OH211291   3.453   4.510   2.853
 3783TIP3    H111292   3.406   4.586   2.814
 3783TIP3    H211293   3.539   4.522   2.807
 3784TIP3   OH211294   3.890   4.749   2.990
 3784TIP3    H111295   3.933   4.747   3.078
 3784TIP3    H211296   3.956   4.801   2.939
 3785TIP3   OH211297   4.071   4.905   2.853
 3785TIP3    H111298   4.139   4.852   2.808
 3785TIP3    H211299   4.126   4.960   2.913
 3786TIP3   OH211300   4.868   3.260   2.949
 3786TIP3    H111301   4.778   3.248   2.914
 3786TIP3    H211302   4.904   3.168   2.939
 3787TIP3   OH211303   3.126   4.761   2.878
 3787TIP3    H111304   3.035   4.792   2.855
 3787TIP3    H211305   3.139   4.809   2.961
 3788TIP3   OH211306   3.363   4.743   2.737
 3788TIP3    H111307   3.275   4.754   2.779
 3788TIP3    H211308   3.344   4.773   2.646
 3789TIP3   OH211309   3.787   4.766   2.535
 3789TIP3    H111310   3.718   4.782   2.468
 3789TIP3    H211311   3.798   4.856   2.574
 3790TIP3   OH211312   4.057   4.707   2.589
 3790TIP3    H111313   3.963   4.723   2.567
 3790TIP3    H211314   4.101   4.778   2.538
 3791TIP3   OH211315   4.263   4.898   2.497
 3791TIP3    H111316   4.249   4.982   2.448
 3791TIP3    H211317   4.290   4.837   2.424
 3792TIP3   OH211318   3.036   4.553   2.620
 3792TIP3    H111319   3.064   4.525   2.710
 3792TIP3    H211320   3.109   4.512   2.568
 3793TIP3   OH211321   3.233   4.428   2.482
 3793TIP3    H111322   3.248   4.344   2.531
 3793TIP3    H211323   3.324   4.464   2.477
 3794TIP3   OH211324   3.501   4.519   2.487
 3794TIP3    H111325   3.530   4.426   2.476
 3794TIP3    H211326   3.550   4.541   2.568
 3795TIP3   OH211327   4.072   3.176   2.569
 3795TIP3    H111328   4.032   3.103   2.620
 3795TIP3    H211329   4.148   3.132   2.526
 3796TIP3   OH211330   4.591   3.058   2.471
 3796TIP3    H111331   4.628   3.110   2.395
 3796TIP3    H211332   4.496   3.080   2.465
 3797TIP3   OH211333   4.689   3.156   2.236
 3797TIP3    H111334   4.764   3.103   2.199
 3797TIP3    H211335   4.724   3.247   2.221
 3798TIP3   OH211336   3.321   2.883   2.583
 3798TIP3    H111337   3.228   2.851   2.586
 3798TIP3    H211338   3.369   2.798   2.579
 3799TIP3   OH211339   3.114   2.756   2.233
 3799TIP3    H111340   3.143   2.811   2.158
 3799TIP3    H211341   3.086   2.824   2.298
 3800TIP3   OH211342   3.770   2.916   2.467
 3800TIP3    H111343   3.824   2.963   2.402
 3800TIP3    H211344   3.801   2.954   2.550
 3801TIP3   OH211345   4.306   3.065   2.449
 3801TIP3    H111346   4.312   3.023   2.362
 3801TIP3    H211347   4.297   2.986   2.508
 3802TIP3   OH211348   4.343   2.991   2.012
 3802TIP3    H111349   4.258   3.035   2.031
 3802TIP3    H211350   4.329   2.905   2.056
 3803TIP3   OH211351   2.824   4.334   2.010
 3803TIP3    H111352   2.738   4.302   1.977
 3803TIP3    H211353   2.818   4.427   1.980
 3804TIP3   OH211354   3.229   2.904   2.003
 3804TIP3    H111355   3.276   2.845   1.940
 3804TIP3    H211356   3.301   2.963   2.031
 3805TIP3   OH211357   3.736   3.093   2.094
 3805TIP3    H111358   3.797   3.047   2.154
 3805TIP3    H211359   3.757   3.186   2.119
 3806TIP3   OH211360   3.600   4.509   1.596
 3806TIP3    H111361   3.686   4.534   1.557
 3806TIP3    H211362   3.577   4.436   1.534
 3807TIP3   OH211363   4.321   4.637   1.689
 3807TIP3    H111364   4.313   4.539   1.678
 3807TIP3    H211365   4.271   4.667   1.610
 3808TIP3   OH211366   3.529   3.164   3.475
 3808TIP3    H111367   3.494   3.093   3.532
 3808TIP3    H211368   3.623   3.164   3.502
 3809TIP3   OH211369   3.779   3.163   3.592
 3809TIP3    H111370   3.865   3.140   3.552
 3809TIP3    H211371   3.769   3.092   3.659
 3810TIP3   OH211372   2.900   4.346   1.647
 3810TIP3    H111373   2.908   4.373   1.739
 3810TIP3    H211374   2.987   4.304   1.630
 3811TIP3   OH211375   4.607   3.228   3.380
 3811TIP3    H111376   4.625   3.198   3.472
 3811TIP3    H211377   4.696   3.223   3.340
 3812TIP3   OH211378   4.539   4.777   2.875
 3812TIP3    H111379   4.461   4.747   2.824
 3812TIP3    H211380   4.520   4.873   2.882
 3813TIP3   OH211381   5.812   4.152   1.635
 3813TIP3    H111382   5.780   4.242   1.616
 3813TIP3    H211383   5.735   4.100   1.606
 3814TIP3   OH211384   5.808   4.152   2.028
 3814TIP3    H111385   5.846   4.131   2.116
 3814TIP3    H211386   5.768   4.067   2.003
 3815TIP3   OH211387   5.105   4.042   2.389
 3815TIP3    H111388   5.134   3.973   2.451
 3815TIP3    H211389   5.185   4.096   2.382
 3816TIP3   OH211390   6.055   4.457   1.707
 3816TIP3    H111391   6.040   4.388   1.774
 3816TIP3    H211392   6.087   4.531   1.761
 3817TIP3   OH211393   5.081   4.456   2.106
 3817TIP3    H111394   5.073   4.358   2.107
 3817TIP3    H211395   5.178   4.465   2.105
 3818TIP3   OH211396   4.787   3.656   1.889
 3818TIP3    H111397   4.739   3.738   1.910
 3818TIP3    H211398   4.716   3.605   1.846
 3819TIP3   OH211399   4.843   3.944   2.074
 3819TIP3    H111400   4.893   3.866   2.107
 3819TIP3    H211401   4.905   3.982   2.010
 3820TIP3   OH211402   5.707   4.916   1.723
 3820TIP3    H111403   5.747   4.844   1.670
 3820TIP3    H211404   5.699   4.873   1.809
 3821TIP3   OH211405   5.607   4.378   2.069
 3821TIP3    H111406   5.649   4.300   2.030
 3821TIP3    H211407   5.688   4.426   2.095
 3822TIP3   OH211408   6.625   3.696   2.069
 3822TIP3    H111409   6.654   3.779   2.111
 3822TIP3    H211410   6.648   3.713   1.976
 3823TIP3   OH211411   6.020   3.876   2.098
 3823TIP3    H111412   6.063   3.791   2.120
 3823TIP3    H211413   5.988   3.857   2.008
 3824TIP3   OH211414   5.363   3.537   2.064
 3824TIP3    H111415   5.342   3.609   2.001
 3824TIP3    H211416   5.314   3.463   2.022
 3825TIP3   OH211417   6.056   3.630   1.685
 3825TIP3    H111418   6.127   3.615   1.752
 3825TIP3    H211419   6.110   3.664   1.611
 3826TIP3   OH211420   4.992   3.738   2.174
 3826TIP3    H111421   5.075   3.719   2.222
 3826TIP3    H211422   5.006   3.683   2.094
 3827TIP3   OH211423   5.431   3.936   1.971
 3827TIP3    H111424   5.525   3.913   1.982
 3827TIP3    H211425   5.393   3.852   1.938
 3828TIP3   OH211426   6.697   3.906   2.239
 3828TIP3    H111427   6.612   3.951   2.222
 3828TIP3    H211428   6.721   3.945   2.325
 3829TIP3   OH211429   5.355   3.521   2.501
 3829TIP3    H111430   5.296   3.558   2.433
 3829TIP3    H211431   5.302   3.538   2.581
 3830TIP3   OH211432   5.695   4.370   1.508
 3830TIP3    H111433   5.655   4.358   1.421
 3830TIP3    H211434   5.652   4.454   1.536
 3831TIP3   OH211435   5.461   4.297   2.290
 3831TIP3    H111436   5.402   4.367   2.327
 3831TIP3    H211437   5.506   4.345   2.217
 3832TIP3   OH211438   6.258   3.636   1.867
 3832TIP3    H111439   6.238   3.596   1.953
 3832TIP3    H211440   6.310   3.715   1.893
 3833TIP3   OH211441   5.228   3.635   2.283
 3833TIP3    H111442   5.289   3.708   2.307
 3833TIP3    H211443   5.278   3.595   2.208
 3834TIP3   OH211444   5.291   4.495   2.391
 3834TIP3    H111445   5.266   4.583   2.358
 3834TIP3    H211446   5.212   4.476   2.447
 3835TIP3   OH211447   4.680   4.184   1.628
 3835TIP3    H111448   4.638   4.212   1.545
 3835TIP3    H211449   4.712   4.269   1.664
 3836TIP3   OH211450   6.120   4.700   1.867
 3836TIP3    H111451   6.030   4.690   1.907
 3836TIP3    H211452   6.111   4.787   1.823
 3837TIP3   OH211453   6.418   3.591   2.232
 3837TIP3    H111454   6.331   3.622   2.201
 3837TIP3    H211455   6.478   3.626   2.163
 3838TIP3   OH211456   5.706   3.235   2.217
 3838TIP3    H111457   5.689   3.141   2.236
 3838TIP3    H211458   5.630   3.276   2.264
 3839TIP3   OH211459   5.818   4.742   1.536
 3839TIP3    H111460   5.870   4.660   1.520
 3839TIP3    H211461   5.882   4.808   1.499
 3840TIP3   OH211462   5.965   4.527   1.456
 3840TIP3    H111463   5.930   4.445   1.420
 3840TIP3    H211464   6.005   4.495   1.541
 3841TIP3   OH211465   6.347   4.608   2.212
 3841TIP3    H111466   6.335   4.530   2.153
 3841TIP3    H211467   6.330   4.682   2.151
 3842TIP3   OH211468   5.640   4.002   1.473
 3842TIP3    H111469   5.560   4.055   1.452
 3842TIP3    H211470   5.687   4.000   1.388
 3843TIP3   OH211471   5.597   3.795   1.179
 3843TIP3    H111472   5.664   3.844   1.231
 3843TIP3    H211473   5.654   3.730   1.134
 3844TIP3   OH211474   6.542   4.247   2.060
 3844TIP3    H111475   6.458   4.298   2.063
 3844TIP3    H211476   6.573   4.271   1.970
 3845TIP3   OH211477   5.989   4.086   1.439
 3845TIP3    H111478   5.935   4.110   1.518
 3845TIP3    H211479   6.073   4.061   1.482
 3846TIP3   OH211480   6.222   4.121   2.362
 3846TIP3    H111481   6.221   4.203   2.415
 3846TIP3    H211482   6.136   4.129   2.315
 3847TIP3   OH211483   5.221   4.081   1.860
 3847TIP3    H111484   5.181   4.022   1.792
 3847TIP3    H211485   5.297   4.028   1.891
 3848TIP3   OH211486   5.352   4.498   2.005
 3848TIP3    H111487   5.333   4.459   1.918
 3848TIP3    H211488   5.441   4.460   2.024
 3849TIP3   OH211489   5.352   4.055   2.214
 3849TIP3    H111490   5.388   4.028   2.126
 3849TIP3    H211491   5.398   4.140   2.231
 3850TIP3   OH211492   5.880   4.692   1.991
 3850TIP3    H111493   5.869   4.771   2.047
 3850TIP3    H211494   5.865   4.619   2.054
 3851TIP3   OH211495   5.497   4.610   2.537
 3851TIP3    H111496   5.436   4.670   2.585
 3851TIP3    H211497   5.432   4.556   2.487
 3852TIP3   OH211498   5.824   3.946   1.269
 3852TIP3    H111499   5.885   4.005   1.319
 3852TIP3    H211500   5.851   3.966   1.176
 3853TIP3   OH211501   5.251   4.165   2.644
 3853TIP3    H111502   5.256   4.253   2.685
 3853TIP3    H211503   5.156   4.144   2.658
 3854TIP3   OH211504   5.574   4.619   1.539
 3854TIP3    H111505   5.658   4.669   1.548
 3854TIP3    H211506   5.514   4.686   1.505
 3855TIP3   OH211507   5.288   4.773   2.625
 3855TIP3    H111508   5.253   4.777   2.534
 3855TIP3    H211509   5.207   4.755   2.678
 3856TIP3   OH211510   6.343   3.181   1.319
 3856TIP3    H111511   6.262   3.203   1.368
 3856TIP3    H211512   6.358   3.264   1.268
 3857TIP3   OH211513   5.089   3.926   1.660
 3857TIP3    H111514   5.016   3.968   1.609
 3857TIP3    H211515   5.054   3.838   1.675
 3858TIP3   OH211516   6.143   4.545   0.867
 3858TIP3    H111517   6.152   4.642   0.853
 3858TIP3    H211518   6.237   4.517   0.858
 3859TIP3   OH211519   4.867   4.310   2.572
 3859TIP3    H111520   4.799   4.289   2.505
 3859TIP3    H211521   4.905   4.223   2.594
 3860TIP3   OH211522   4.722   4.503   2.200
 3860TIP3    H111523   4.819   4.496   2.194
 3860TIP3    H211524   4.712   4.580   2.259
 3861TIP3   OH211525   6.584   4.956   2.261
 3861TIP3    H111526   6.584   4.860   2.278
 3861TIP3    H211527   6.501   4.982   2.308
 3862TIP3   OH211528   5.689   4.741   2.393
 3862TIP3    H111529   5.686   4.832   2.427
 3862TIP3    H211530   5.620   4.698   2.448
 3863TIP3   OH211531   5.455   4.865   1.347
 3863TIP3    H111532   5.407   4.851   1.264
 3863TIP3    H211533   5.422   4.952   1.376
 3864TIP3   OH211534   4.892   4.715   1.733
 3864TIP3    H111535   4.938   4.707   1.820
 3864TIP3    H211536   4.842   4.632   1.731
 3865TIP3   OH211537   5.651   4.769   0.985
 3865TIP3    H111538   5.710   4.698   0.951
 3865TIP3    H211539   5.688   4.782   1.075
 3866TIP3   OH211540   5.707   4.819   1.254
 3866TIP3    H111541   5.619   4.827   1.297
 3866TIP3    H211542   5.760   4.782   1.326
 3867TIP3   OH211543   6.476   4.082   2.537
 3867TIP3    H111544   6.390   4.092   2.493
 3867TIP3    H211545   6.491   3.986   2.530
 3868TIP3   OH211546   5.072   4.493   2.555
 3868TIP3    H111547   5.121   4.477   2.638
 3868TIP3    H211548   4.997   4.429   2.564
 3869TIP3   OH211549   5.471   3.314   2.349
 3869TIP3    H111550   5.382   3.285   2.318
 3869TIP3    H211551   5.444   3.395   2.398
 3870TIP3   OH211552   6.007   3.428   2.540
 3870TIP3    H111553   6.076   3.403   2.605
 3870TIP3    H211554   5.924   3.410   2.589
 3871TIP3   OH211555   6.240   3.859   2.457
 3871TIP3    H111556   6.190   3.857   2.542
 3871TIP3    H211557   6.219   3.948   2.422
 3872TIP3   OH211558   5.900   3.985   1.012
 3872TIP3    H111559   5.870   3.959   0.923
 3872TIP3    H211560   5.986   4.026   0.992
 3873TIP3   OH211561   5.614   3.356   1.314
 3873TIP3    H111562   5.577   3.353   1.405
 3873TIP3    H211563   5.574   3.274   1.277
 3874TIP3   OH211564   5.403   3.833   2.363
 3874TIP3    H111565   5.353   3.853   2.445
 3874TIP3    H211566   5.386   3.914   2.311
 3875TIP3   OH211567   5.286   3.719   1.877
 3875TIP3    H111568   5.194   3.691   1.897
 3875TIP3    H211569   5.297   3.677   1.789
 3876TIP3   OH211570   5.777   3.802   1.609
 3876TIP3    H111571   5.727   3.873   1.563
 3876TIP3    H211572   5.833   3.768   1.536
 3877TIP3   OH211573   5.952   4.076   2.687
 3877TIP3    H111574   5.930   4.004   2.751
 3877TIP3    H211575   6.045   4.093   2.711
 3878TIP3   OH211576   5.932   3.827   1.843
 3878TIP3    H111577   5.869   3.854   1.773
 3878TIP3    H211578   5.970   3.748   1.798
 3879TIP3   OH211579   5.222   3.859   2.572
 3879TIP3    H111580   5.256   3.921   2.638
 3879TIP3    H211581   5.211   3.777   2.624
 3880TIP3   OH211582   5.279   3.341   1.282
 3880TIP3    H111583   5.267   3.335   1.379
 3880TIP3    H211584   5.197   3.387   1.256
 3881TIP3   OH211585   4.816   3.379   2.154
 3881TIP3    H111586   4.890   3.412   2.208
 3881TIP3    H211587   4.858   3.350   2.072
 3882TIP3   OH211588   4.777   3.359   1.671
 3882TIP3    H111589   4.825   3.396   1.594
 3882TIP3    H211590   4.717   3.434   1.690
 3883TIP3   OH211591   5.940   4.074   2.262
 3883TIP3    H111592   5.976   4.003   2.204
 3883TIP3    H211593   5.912   4.020   2.339
 3884TIP3   OH211594   5.621   3.537   1.937
 3884TIP3    H111595   5.540   3.537   1.992
 3884TIP3    H211596   5.691   3.531   2.004
 3885TIP3   OH211597   5.049   3.597   1.944
 3885TIP3    H111598   4.954   3.604   1.915
 3885TIP3    H211599   5.072   3.505   1.922
 3886TIP3   OH211600   5.311   3.590   1.637
 3886TIP3    H111601   5.405   3.603   1.615
 3886TIP3    H211602   5.265   3.612   1.553
 3887TIP3   OH211603   6.107   3.615   2.139
 3887TIP3    H111604   6.078   3.628   2.232
 3887TIP3    H211605   6.036   3.555   2.107
 3888TIP3   OH211606   5.163   3.629   1.412
 3888TIP3    H111607   5.094   3.580   1.364
 3888TIP3    H211608   5.215   3.664   1.337
 3889TIP3   OH211609   6.281   5.305   2.363
 3889TIP3    H111610   6.280   5.328   2.268
 3889TIP3    H211611   6.362   5.349   2.393
 3890TIP3   OH211612   5.234   4.416   2.780
 3890TIP3    H111613   5.315   4.443   2.828
 3890TIP3    H211614   5.170   4.413   2.853
 3891TIP3   OH211615   5.695   3.870   2.036
 3891TIP3    H111616   5.770   3.830   1.989
 3891TIP3    H211617   5.700   3.826   2.123
 3892TIP3   OH211618   5.213   3.354   1.921
 3892TIP3    H111619   5.177   3.277   1.971
 3892TIP3    H211620   5.257   3.310   1.847
 3893TIP3   OH211621   5.673   3.771   2.323
 3893TIP3    H111622   5.583   3.805   2.340
 3893TIP3    H211623   5.729   3.831   2.374
 3894TIP3   OH211624   5.409   4.155   1.417
 3894TIP3    H111625   5.337   4.089   1.406
 3894TIP3    H211626   5.389   4.189   1.508
 3895TIP3   OH211627   6.308   4.392   2.045
 3895TIP3    H111628   6.333   4.443   1.965
 3895TIP3    H211629   6.224   4.350   2.018
 3896TIP3   OH211630   5.864   3.465   1.286
 3896TIP3    H111631   5.769   3.443   1.297
 3896TIP3    H211632   5.870   3.559   1.314
 3897TIP3   OH211633   5.806   4.473   2.419
 3897TIP3    H111634   5.846   4.457   2.506
 3897TIP3    H211635   5.770   4.562   2.428
 3898TIP3   OH211636   5.934   3.716   1.390
 3898TIP3    H111637   6.030   3.720   1.406
 3898TIP3    H211638   5.917   3.797   1.339
 3899TIP3   OH211639   5.104   4.179   2.093
 3899TIP3    H111640   5.143   4.150   2.008
 3899TIP3    H211641   5.150   4.122   2.156
 3900TIP3   OH211642   5.551   4.303   1.235
 3900TIP3    H111643   5.503   4.389   1.241
 3900TIP3    H211644   5.500   4.249   1.299
 3901TIP3   OH211645   4.986   4.098   2.710
 3901TIP3    H111646   5.004   4.084   2.805
 3901TIP3    H211647   4.917   4.031   2.693
 3902TIP3   OH211648   5.713   4.215   2.730
 3902TIP3    H111649   5.653   4.154   2.684
 3902TIP3    H211650   5.801   4.180   2.701
 3903TIP3   OH211651   5.965   4.736   2.313
 3903TIP3    H111652   5.869   4.735   2.328
 3903TIP3    H211653   5.996   4.787   2.391
 3904TIP3   OH211654   6.373   3.810   1.223
 3904TIP3    H111655   6.312   3.766   1.160
 3904TIP3    H211656   6.371   3.900   1.182
 3905TIP3   OH211657   6.597   4.668   2.301
 3905TIP3    H111658   6.500   4.660   2.294
 3905TIP3    H211659   6.624   4.637   2.212
 3906TIP3   OH211660   6.075   4.626   1.130
 3906TIP3    H111661   6.056   4.555   1.193
 3906TIP3    H211662   6.094   4.578   1.047
 3907TIP3   OH211663   6.074   4.256   1.959
 3907TIP3    H111664   5.981   4.231   1.975
 3907TIP3    H211665   6.107   4.174   1.917
 3908TIP3   OH211666   5.205   4.483   1.720
 3908TIP3    H111667   5.199   4.565   1.666
 3908TIP3    H211668   5.111   4.466   1.737
 3909TIP3   OH211669   4.768   3.786   1.427
 3909TIP3    H111670   4.813   3.870   1.451
 3909TIP3    H211671   4.691   3.788   1.489
 3910TIP3   OH211672   5.333   4.245   1.659
 3910TIP3    H111673   5.301   4.334   1.681
 3910TIP3    H211674   5.301   4.194   1.736
 3911TIP3   OH211675   5.476   4.824   2.189
 3911TIP3    H111676   5.520   4.896   2.140
 3911TIP3    H211677   5.551   4.786   2.238
 3912TIP3   OH211678   5.120   4.722   1.571
 3912TIP3    H111679   5.035   4.730   1.620
 3912TIP3    H211680   5.152   4.815   1.576
 3913TIP3   OH211681   5.857   4.461   2.151
 3913TIP3    H111682   5.845   4.459   2.249
 3913TIP3    H211683   5.938   4.408   2.141
 3914TIP3   OH211684   5.838   4.354   1.037
 3914TIP3    H111685   5.896   4.329   1.113
 3914TIP3    H211686   5.752   4.326   1.071
 3915TIP3   OH211687   6.108   4.989   2.200
 3915TIP3    H111688   6.029   4.932   2.197
 3915TIP3    H211689   6.089   5.052   2.127
 3916TIP3   OH211690   6.170   4.819   0.850
 3916TIP3    H111691   6.211   4.881   0.787
 3916TIP3    H211692   6.097   4.874   0.885
 3917TIP3   OH211693   5.192   3.603   2.713
 3917TIP3    H111694   5.095   3.605   2.725
 3917TIP3    H211695   5.220   3.548   2.788
 3918TIP3   OH211696   6.001   4.285   1.246
 3918TIP3    H111697   5.990   4.219   1.318
 3918TIP3    H211698   6.098   4.282   1.235
 3919TIP3   OH211699   4.912   4.685   2.347
 3919TIP3    H111700   4.966   4.614   2.384
 3919TIP3    H211701   4.938   4.759   2.403
 3920TIP3   OH211702   5.196   4.329   1.027
 3920TIP3    H111703   5.212   4.234   1.008
 3920TIP3    H211704   5.179   4.326   1.123
 3921TIP3   OH211705   5.145   4.340   1.298
 3921TIP3    H111706   5.216   4.308   1.357
 3921TIP3    H211707   5.148   4.437   1.312
 3922TIP3   OH211708   4.876   4.029   1.510
 3922TIP3    H111709   4.810   4.074   1.566
 3922TIP3    H211710   4.889   4.098   1.442
 3923TIP3   OH211711   6.037   3.664   2.399
 3923TIP3    H111712   6.114   3.707   2.440
 3923TIP3    H211713   6.024   3.585   2.455
 3924TIP3   OH211714   5.916   3.414   1.571
 3924TIP3    H111715   5.902   3.436   1.477
 3924TIP3    H211716   5.956   3.496   1.606
 3925TIP3   OH211717   5.411   4.534   1.245
 3925TIP3    H111718   5.325   4.556   1.286
 3925TIP3    H211719   5.430   4.618   1.200
 3926TIP3   OH211720   5.596   3.601   1.669
 3926TIP3    H111721   5.660   3.673   1.653
 3926TIP3    H211722   5.603   3.590   1.766
 3927TIP3   OH211723   5.872   3.914   2.472
 3927TIP3    H111724   5.896   3.968   2.550
 3927TIP3    H211725   5.924   3.833   2.486
 3928TIP3   OH211726   5.740   3.317   1.767
 3928TIP3    H111727   5.733   3.396   1.825
 3928TIP3    H211728   5.804   3.351   1.700
 3929TIP3   OH211729   5.159   4.611   1.323
 3929TIP3    H111730   5.129   4.682   1.263
 3929TIP3    H211731   5.142   4.652   1.411
 3930TIP3   OH211732   5.256   3.324   1.559
 3930TIP3    H111733   5.254   3.414   1.597
 3930TIP3    H211734   5.352   3.306   1.565
 3931TIP3   OH211735   6.506   3.815   2.459
 3931TIP3    H111736   6.408   3.813   2.464
 3931TIP3    H211737   6.520   3.778   2.371
 3932TIP3   OH211738   6.160   4.010   1.843
 3932TIP3    H111739   6.084   3.951   1.857
 3932TIP3    H211740   6.231   3.963   1.892
 3933TIP3   OH211741   4.877   4.233   1.312
 3933TIP3    H111742   4.949   4.298   1.322
 3933TIP3    H211743   4.920   4.174   1.246
 3934TIP3   OH211744   4.815   3.515   1.449
 3934TIP3    H111745   4.816   3.613   1.446
 3934TIP3    H211746   4.735   3.494   1.399
 3935TIP3   OH211747   6.130   4.971   1.790
 3935TIP3    H111748   6.088   5.019   1.715
 3935TIP3    H211749   6.224   4.990   1.770
 3936TIP3   OH211750   5.206   3.235   2.316
 3936TIP3    H111751   5.175   3.200   2.230
 3936TIP3    H211752   5.195   3.157   2.375
 3937TIP3   OH211753   4.739   4.454   1.695
 3937TIP3    H111754   4.678   4.483   1.765
 3937TIP3    H211755   4.701   4.499   1.615
 3938TIP3   OH211756   4.906   5.006   2.772
 3938TIP3    H111757   4.992   5.007   2.820
 3938TIP3    H211758   4.889   4.910   2.770
 3939TIP3   OH211759   5.377   4.960   2.812
 3939TIP3    H111760   5.470   4.941   2.828
 3939TIP3    H211761   5.357   4.894   2.742
 3940TIP3   OH211762   5.350   4.535   0.925
 3940TIP3    H111763   5.296   4.466   0.971
 3940TIP3    H211764   5.433   4.487   0.913
 3941TIP3   OH211765   6.024   4.867   2.545
 3941TIP3    H111766   6.013   4.797   2.614
 3941TIP3    H211767   6.100   4.918   2.580
 3942TIP3   OH211768   5.791   4.566   0.861
 3942TIP3    H111769   5.832   4.505   0.925
 3942TIP3    H211770   5.855   4.567   0.788
 3943TIP3   OH211771   5.031   4.405   2.971
 3943TIP3    H111772   5.048   4.309   2.979
 3943TIP3    H211773   4.945   4.406   2.925
 3944TIP3   OH211774   5.014   4.048   1.169
 3944TIP3    H111775   5.069   4.017   1.243
 3944TIP3    H211776   5.083   4.054   1.099
 3945TIP3   OH211777   5.637   4.491   2.747
 3945TIP3    H111778   5.600   4.512   2.659
 3945TIP3    H211779   5.671   4.399   2.735
 3946TIP3   OH211780   5.519   4.252   0.966
 3946TIP3    H111781   5.524   4.266   1.063
 3946TIP3    H211782   5.524   4.154   0.963
 3947TIP3   OH211783   6.129   4.504   2.351
 3947TIP3    H111784   6.207   4.545   2.309
 3947TIP3    H211785   6.062   4.573   2.335
 3948TIP3   OH211786   5.153   4.141   2.955
 3948TIP3    H111787   5.231   4.092   2.927
 3948TIP3    H211788   5.181   4.173   3.044
 3949TIP3   OH211789   5.212   3.960   1.383
 3949TIP3    H111790   5.186   3.923   1.468
 3949TIP3    H211791   5.251   3.883   1.337
 3950TIP3   OH211792   5.485   4.018   2.614
 3950TIP3    H111793   5.409   4.080   2.617
 3950TIP3    H211794   5.537   4.054   2.538
 3951TIP3   OH211795   5.321   3.756   1.226
 3951TIP3    H111796   5.296   3.761   1.131
 3951TIP3    H211797   5.418   3.757   1.220
 3952TIP3   OH211798   6.002   4.420   2.746
 3952TIP3    H111799   6.087   4.396   2.708
 3952TIP3    H211800   5.998   4.361   2.824
 3953TIP3   OH211801   6.132   4.080   0.897
 3953TIP3    H111802   6.117   4.036   0.811
 3953TIP3    H211803   6.100   4.170   0.875
 3954TIP3   OH211804   5.611   3.812   2.739
 3954TIP3    H111805   5.612   3.734   2.680
 3954TIP3    H211806   5.567   3.879   2.683
 3955TIP3   OH211807   5.614   3.598   2.549
 3955TIP3    H111808   5.642   3.640   2.465
 3955TIP3    H211809   5.521   3.575   2.530
 3956TIP3   OH211810   5.634   4.130   2.422
 3956TIP3    H111811   5.722   4.145   2.384
 3956TIP3    H211812   5.579   4.196   2.375
 3957TIP3   OH211813   6.214   4.097   2.797
 3957TIP3    H111814   6.265   4.019   2.822
 3957TIP3    H211815   6.284   4.160   2.772
 3958TIP3   OH211816   6.261   4.350   2.531
 3958TIP3    H111817   6.203   4.407   2.475
 3958TIP3    H211818   6.349   4.373   2.493
 3959TIP3   OH211819   5.486   3.916   2.971
 3959TIP3    H111820   5.420   3.846   2.989
 3959TIP3    H211821   5.521   3.889   2.884
 3960TIP3   OH211822   5.744   3.359   2.621
 3960TIP3    H111823   5.695   3.440   2.596
 3960TIP3    H211824   5.675   3.290   2.609
 3961TIP3   OH211825   5.872   3.860   2.834
 3961TIP3    H111826   5.859   3.847   2.929
 3961TIP3    H211827   5.782   3.837   2.802
 3962TIP3   OH211828   6.106   3.807   2.684
 3962TIP3    H111829   6.033   3.813   2.750
 3962TIP3    H211830   6.182   3.781   2.740
 3963TIP3   OH211831   6.338   3.751   2.828
 3963TIP3    H111832   6.352   3.656   2.848
 3963TIP3    H211833   6.331   3.791   2.918
 3964TIP3   OH211834   5.326   3.696   3.030
 3964TIP3    H111835   5.330   3.604   2.998
 3964TIP3    H211836   5.364   3.686   3.120
 3965TIP3   OH211837   5.835   3.367   2.879
 3965TIP3    H111838   5.902   3.296   2.870
 3965TIP3    H211839   5.796   3.365   2.790
 3966TIP3   OH211840   5.902   3.582   3.037
 3966TIP3    H111841   5.881   3.512   2.972
 3966TIP3    H211842   5.824   3.642   3.029
 3967TIP3   OH211843   5.129   4.815   1.135
 3967TIP3    H111844   5.224   4.802   1.115
 3967TIP3    H211845   5.104   4.870   1.059
 3968TIP3   OH211846   4.606   4.198   1.344
 3968TIP3    H111847   4.702   4.216   1.332
 3968TIP3    H211848   4.600   4.108   1.305
 3969TIP3   OH211849   4.525   4.806   1.766
 3969TIP3    H111850   4.458   4.746   1.727
 3969TIP3    H211851   4.568   4.746   1.830
 3970TIP3   OH211852   4.658   4.650   1.952
 3970TIP3    H111853   4.644   4.582   2.020
 3970TIP3    H211854   4.710   4.714   2.003
 3971TIP3   OH211855   6.385   5.061   1.753
 3971TIP3    H111856   6.414   5.087   1.842
 3971TIP3    H211857   6.457   5.095   1.697
 3972TIP3   OH211858   6.415   5.076   2.035
 3972TIP3    H111859   6.368   4.990   2.031
 3972TIP3    H211860   6.488   5.051   2.094
 3973TIP3   OH211861   6.458   4.754   2.608
 3973TIP3    H111862   6.387   4.764   2.674
 3973TIP3    H211863   6.502   4.841   2.613
 3974TIP3   OH211864   6.277   4.267   1.224
 3974TIP3    H111865   6.344   4.332   1.193
 3974TIP3    H211866   6.323   4.230   1.303
 3975TIP3   OH211867   6.404   4.134   1.429
 3975TIP3    H111868   6.338   4.094   1.489
 3975TIP3    H211869   6.471   4.169   1.491
 3976TIP3   OH211870   6.461   4.529   1.859
 3976TIP3    H111871   6.515   4.460   1.815
 3976TIP3    H211872   6.458   4.600   1.792
 3977TIP3   OH211873   6.286   4.829   2.053
 3977TIP3    H111874   6.215   4.868   2.106
 3977TIP3    H211875   6.237   4.782   1.983
 3978TIP3   OH211876   6.340   4.043   1.074
 3978TIP3    H111877   6.267   4.046   1.007
 3978TIP3    H211878   6.314   4.120   1.129
 3979TIP3   OH211879   6.209   3.714   1.029
 3979TIP3    H111880   6.167   3.748   0.949
 3979TIP3    H211881   6.188   3.618   1.020
 3980TIP3   OH211882   6.214   3.994   1.574
 3980TIP3    H111883   6.224   3.898   1.567
 3980TIP3    H211884   6.200   4.007   1.670
 3981TIP3   OH211885   4.841   4.065   2.324
 3981TIP3    H111886   4.838   4.030   2.233
 3981TIP3    H211887   4.938   4.066   2.340
 3982TIP3   OH211888   6.508   4.419   2.431
 3982TIP3    H111889   6.578   4.350   2.420
 3982TIP3    H211890   6.536   4.487   2.368
 3983TIP3   OH211891   6.688   4.216   2.436
 3983TIP3    H111892   6.615   4.168   2.480
 3983TIP3    H211893   6.762   4.154   2.455
 3984TIP3   OH211894   6.156   3.447   1.006
 3984TIP3    H111895   6.228   3.416   1.065
 3984TIP3    H211896   6.081   3.390   1.030
 3985TIP3   OH211897   6.214   3.709   1.464
 3985TIP3    H111898   6.255   3.621   1.479
 3985TIP3    H211899   6.272   3.743   1.394
 3986TIP3   OH211900   6.372   3.877   1.964
 3986TIP3    H111901   6.458   3.901   1.922
 3986TIP3    H211902   6.387   3.916   2.053
 3987TIP3   OH211903   6.445   4.025   2.193
 3987TIP3    H111904   6.370   4.059   2.245
 3987TIP3    H211905   6.478   4.106   2.150
 3988TIP3   OH211906   5.060   3.748   2.994
 3988TIP3    H111907   5.157   3.745   3.001
 3988TIP3    H211908   5.037   3.662   3.034
 3989TIP3   OH211909   6.897   3.620   2.751
 3989TIP3    H111910   6.957   3.557   2.706
 3989TIP3    H211911   6.864   3.672   2.674
 3990TIP3   OH211912   6.322   3.460   1.506
 3990TIP3    H111913   6.370   3.443   1.590
 3990TIP3    H211914   6.261   3.383   1.505
 3991TIP3   OH211915   5.022   3.445   2.327
 3991TIP3    H111916   5.083   3.369   2.335
 3991TIP3    H211917   5.085   3.518   2.318
 3992TIP3   OH211918   4.821   3.716   2.397
 3992TIP3    H111919   4.872   3.713   2.314
 3992TIP3    H211920   4.851   3.798   2.436
 3993TIP3   OH211921   6.763   3.753   2.556
 3993TIP3    H111922   6.679   3.799   2.580
 3993TIP3    H211923   6.727   3.683   2.498
 3994TIP3   OH211924   6.397   3.390   1.141
 3994TIP3    H111925   6.439   3.320   1.086
 3994TIP3    H211926   6.465   3.460   1.140
 3995TIP3   OH211927   4.809   3.219   1.900
 3995TIP3    H111928   4.717   3.214   1.930
 3995TIP3    H211929   4.802   3.278   1.822
 3996TIP3   OH211930   5.964   4.929   1.406
 3996TIP3    H111931   6.017   4.917   1.324
 3996TIP3    H211932   6.020   4.989   1.457
 3997TIP3   OH211933   5.029   3.300   2.714
 3997TIP3    H111934   4.978   3.295   2.796
 3997TIP3    H211935   4.963   3.338   2.653
 3998TIP3   OH211936   5.066   4.735   2.787
 3998TIP3    H111937   4.973   4.707   2.777
 3998TIP3    H211938   5.084   4.711   2.879
 3999TIP3   OH211939   5.248   4.765   2.338
 3999TIP3    H111940   5.202   4.842   2.299
 3999TIP3    H211941   5.335   4.778   2.294
 4000TIP3   OH211942   5.686   5.007   2.475
 4000TIP3    H111943   5.728   5.002   2.563
 4000TIP3    H211944   5.753   5.059   2.426
 4001TIP3   OH211945   5.868   5.162   2.338
 4001TIP3    H111946   5.938   5.108   2.299
 4001TIP3    H211947   5.920   5.218   2.400
 4002TIP3   OH211948   6.664   3.518   2.435
 4002TIP3    H111949   6.574   3.511   2.398
 4002TIP3    H211950   6.697   3.426   2.425
 4003TIP3   OH211951   4.922   5.020   2.363
 4003TIP3    H111952   4.831   5.051   2.343
 4003TIP3    H211953   4.937   5.065   2.447
 4004TIP3   OH211954   5.159   4.999   2.223
 4004TIP3    H111955   5.071   5.010   2.266
 4004TIP3    H211956   5.139   5.029   2.132
 4005TIP3   OH211957   5.584   5.024   2.020
 4005TIP3    H111958   5.513   5.042   1.956
 4005TIP3    H211959   5.595   5.111   2.063
 4006TIP3   OH211960   5.854   4.962   2.073
 4006TIP3    H111961   5.760   4.981   2.053
 4006TIP3    H211962   5.898   5.036   2.028
 4007TIP3   OH211963   6.058   5.154   1.984
 4007TIP3    H111964   6.045   5.238   1.935
 4007TIP3    H211965   6.086   5.093   1.912
 4008TIP3   OH211966   4.834   4.811   2.107
 4008TIP3    H111967   4.860   4.782   2.197
 4008TIP3    H211968   4.906   4.768   2.056
 4009TIP3   OH211969   5.031   4.685   1.968
 4009TIP3    H111970   5.044   4.601   2.017
 4009TIP3    H211971   5.122   4.720   1.965
 4010TIP3   OH211972   5.299   4.775   1.974
 4010TIP3    H111973   5.327   4.682   1.965
 4010TIP3    H211974   5.349   4.798   2.055
 4011TIP3   OH211975   5.869   3.433   2.057
 4011TIP3    H111976   5.828   3.360   2.108
 4011TIP3    H211977   5.944   3.388   2.013
 4012TIP3   OH211978   6.388   3.314   1.959
 4012TIP3    H111979   6.425   3.366   1.884
 4012TIP3    H211980   6.294   3.336   1.954
 4013TIP3   OH211981   6.486   3.411   1.723
 4013TIP3    H111982   6.560   3.359   1.685
 4013TIP3    H211983   6.520   3.502   1.709
 4014TIP3   OH211984   5.117   3.140   2.070
 4014TIP3    H111985   5.024   3.107   2.074
 4014TIP3    H211986   5.165   3.055   2.065
 4015TIP3   OH211987   4.908   3.014   1.722
 4015TIP3    H111988   4.938   3.069   1.648
 4015TIP3    H211989   4.881   3.081   1.788
 4016TIP3   OH211990   5.566   3.172   1.953
 4016TIP3    H111991   5.620   3.219   1.888
 4016TIP3    H211992   5.594   3.213   2.036
 4017TIP3   OH211993   6.103   3.322   1.935
 4017TIP3    H111994   6.107   3.281   1.848
 4017TIP3    H211995   6.094   3.243   1.993
 4018TIP3   OH211996   6.139   3.248   1.499
 4018TIP3    H111997   6.053   3.291   1.518
 4018TIP3    H211998   6.125   3.161   1.542
 4019TIP3   OH211999   4.622   4.589   1.492
 4019TIP3    H112000   4.535   4.556   1.462
 4019TIP3    H212001   4.613   4.683   1.467
 4020TIP3   OH212002   5.025   3.170   1.483
 4020TIP3    H112003   5.068   3.104   1.424
 4020TIP3    H212004   5.103   3.220   1.515
 4021TIP3   OH212005   5.532   3.351   1.579
 4021TIP3    H112006   5.591   3.301   1.638
 4021TIP3    H212007   5.555   3.443   1.606
 4022TIP3   OH212008   5.393   4.764   1.079
 4022TIP3    H112009   5.482   4.786   1.044
 4022TIP3    H212010   5.368   4.693   1.016
 4023TIP3   OH212011   6.113   4.892   1.176
 4023TIP3    H112012   6.104   4.795   1.164
 4023TIP3    H212013   6.069   4.924   1.094
 4024TIP3   OH212014   5.325   3.421   2.962
 4024TIP3    H112015   5.289   3.351   3.019
 4024TIP3    H212016   5.419   3.421   2.990
 4025TIP3   OH212017   5.575   3.419   3.080
 4025TIP3    H112018   5.661   3.396   3.041
 4025TIP3    H212019   5.564   3.348   3.146
 4026TIP3   OH212020   4.697   4.607   1.136
 4026TIP3    H112021   4.694   4.626   1.231
 4026TIP3    H212022   4.785   4.566   1.125
 4027TIP3   OH212023   6.403   3.482   2.867
 4027TIP3    H112024   6.421   3.454   2.960
 4027TIP3    H212025   6.493   3.479   2.828
 4028TIP3   OH212026   6.337   5.034   2.360
 4028TIP3    H112027   6.257   5.004   2.311
 4028TIP3    H212028   6.316   5.129   2.370
 4029TIP3   OH212029   7.604   4.411   1.123
 4029TIP3    H112030   7.571   4.500   1.100
 4029TIP3    H212031   7.527   4.357   1.100
 4030TIP3   OH212032   7.600   4.409   1.513
 4030TIP3    H112033   7.632   4.396   1.604
 4030TIP3    H212034   7.562   4.322   1.493
 4031TIP3   OH212035   6.900   4.299   1.877
 4031TIP3    H112036   6.930   4.230   1.940
 4031TIP3    H212037   6.981   4.350   1.866
 4032TIP3   OH212038   7.856   4.703   1.193
 4032TIP3    H112039   7.830   4.642   1.264
 4032TIP3    H212040   7.881   4.783   1.243
 4033TIP3   OH212041   6.876   4.712   1.593
 4033TIP3    H112042   6.869   4.614   1.594
 4033TIP3    H212043   6.973   4.721   1.590
 4034TIP3   OH212044   6.582   3.911   1.376
 4034TIP3    H112045   6.537   3.994   1.397
 4034TIP3    H212046   6.510   3.862   1.332
 4035TIP3   OH212047   6.639   4.201   1.560
 4035TIP3    H112048   6.689   4.123   1.593
 4035TIP3    H212049   6.703   4.242   1.501
 4036TIP3   OH212050   7.504   5.176   1.214
 4036TIP3    H112051   7.542   5.105   1.158
 4036TIP3    H212052   7.494   5.130   1.299
 4037TIP3   OH212053   7.403   4.635   1.557
 4037TIP3    H112054   7.445   4.557   1.516
 4037TIP3    H212055   7.485   4.682   1.583
 4038TIP3   OH212056   7.809   4.155   1.582
 4038TIP3    H112057   7.822   4.062   1.611
 4038TIP3    H212058   7.762   4.139   1.498
 4039TIP3   OH212059   7.154   3.793   1.555
 4039TIP3    H112060   7.141   3.865   1.490
 4039TIP3    H212061   7.106   3.721   1.509
 4040TIP3   OH212062   7.845   3.887   1.188
 4040TIP3    H112063   7.909   3.826   1.227
 4040TIP3    H212064   7.901   3.931   1.122
 4041TIP3   OH212065   6.788   3.995   1.661
 4041TIP3    H112066   6.871   3.977   1.709
 4041TIP3    H212067   6.803   3.940   1.581
 4042TIP3   OH212068   7.228   4.192   1.459
 4042TIP3    H112069   7.323   4.170   1.470
 4042TIP3    H212070   7.191   4.108   1.425
 4043TIP3   OH212071   7.150   3.777   1.988
 4043TIP3    H112072   7.092   3.816   1.919
 4043TIP3    H212073   7.096   3.797   2.068
 4044TIP3   OH212074   7.487   4.624   0.997
 4044TIP3    H112075   7.458   4.613   0.904
 4044TIP3    H212076   7.441   4.706   1.022
 4045TIP3   OH212077   7.257   4.553   1.777
 4045TIP3    H112078   7.199   4.623   1.814
 4045TIP3    H212079   7.303   4.601   1.705
 4046TIP3   OH212080   7.022   3.892   1.772
 4046TIP3    H112081   7.084   3.966   1.795
 4046TIP3    H212082   7.072   3.853   1.696
 4047TIP3   OH212083   7.085   4.751   1.878
 4047TIP3    H112084   7.061   4.839   1.844
 4047TIP3    H212085   7.007   4.733   1.934
 4048TIP3   OH212086   6.475   4.439   1.117
 4048TIP3    H112087   6.439   4.462   1.029
 4048TIP3    H212088   6.509   4.526   1.148
 4049TIP3   OH212089   7.917   4.955   1.353
 4049TIP3    H112090   7.830   4.941   1.397
 4049TIP3    H212091   7.903   5.042   1.312
 4050TIP3   OH212092   7.492   3.486   1.706
 4050TIP3    H112093   7.471   3.392   1.723
 4050TIP3    H212094   7.415   3.529   1.750
 4051TIP3   OH212095   7.613   5.006   1.026
 4051TIP3    H112096   7.659   4.919   1.009
 4051TIP3    H212097   7.680   5.066   0.984
 4052TIP3   OH212098   7.746   4.783   0.948
 4052TIP3    H112099   7.716   4.703   0.903
 4052TIP3    H212100   7.795   4.747   1.025
 4053TIP3   OH212101   8.141   4.858   1.700
 4053TIP3    H112102   8.145   4.782   1.639
 4053TIP3    H212103   8.139   4.934   1.640
 4054TIP3   OH212104   7.433   4.257   0.958
 4054TIP3    H112105   7.351   4.310   0.945
 4054TIP3    H212106   7.477   4.268   0.872
 4055TIP3   OH212107   7.387   4.055   0.681
 4055TIP3    H112108   7.460   4.100   0.728
 4055TIP3    H212109   7.438   3.982   0.638
 4056TIP3   OH212110   7.780   4.337   0.931
 4056TIP3    H112111   7.723   4.368   1.005
 4056TIP3    H212112   7.852   4.293   0.981
 4057TIP3   OH212113   8.008   4.360   1.841
 4057TIP3    H112114   8.033   4.431   1.904
 4057TIP3    H212115   7.922   4.392   1.810
 4058TIP3   OH212116   7.017   4.336   1.349
 4058TIP3    H112117   6.978   4.278   1.280
 4058TIP3    H212118   7.093   4.283   1.380
 4059TIP3   OH212119   7.147   4.754   1.492
 4059TIP3    H112120   7.128   4.718   1.404
 4059TIP3    H212121   7.235   4.716   1.511
 4060TIP3   OH212122   7.145   4.313   1.699
 4060TIP3    H112123   7.183   4.285   1.613
 4060TIP3    H212124   7.193   4.396   1.718
 4061TIP3   OH212125   7.680   4.947   1.480
 4061TIP3    H112126   7.666   5.027   1.534
 4061TIP3    H212127   7.662   4.874   1.543
 4062TIP3   OH212128   7.292   4.871   2.018
 4062TIP3    H112129   7.232   4.929   2.069
 4062TIP3    H212130   7.226   4.815   1.971
 4063TIP3   OH212131   7.625   4.203   0.749
 4063TIP3    H112132   7.678   4.262   0.807
 4063TIP3    H212133   7.672   4.211   0.664
 4064TIP3   OH212134   7.047   4.421   2.133
 4064TIP3    H112135   7.052   4.510   2.172
 4064TIP3    H212136   6.952   4.401   2.145
 4065TIP3   OH212137   7.371   4.873   1.037
 4065TIP3    H112138   7.453   4.926   1.040
 4065TIP3    H212139   7.311   4.929   0.985
 4066TIP3   OH212140   7.083   5.032   2.112
 4066TIP3    H112141   7.048   5.034   2.021
 4066TIP3    H212142   7.002   5.012   2.165
 4067TIP3   OH212143   6.886   4.183   1.145
 4067TIP3    H112144   6.813   4.225   1.095
 4067TIP3    H212145   6.850   4.095   1.162
 4068TIP3   OH212146   6.663   4.567   2.059
 4068TIP3    H112147   6.596   4.544   1.991
 4068TIP3    H212148   6.702   4.480   2.082
 4069TIP3   OH212149   6.520   4.759   1.687
 4069TIP3    H112150   6.616   4.749   1.678
 4069TIP3    H212151   6.514   4.834   1.749
 4070TIP3   OH212152   7.485   5.000   1.877
 4070TIP3    H112153   7.481   5.091   1.914
 4070TIP3    H212154   7.416   4.956   1.931
 4071TIP3   OH212155   7.241   5.123   0.842
 4071TIP3    H112156   7.192   5.104   0.761
 4071TIP3    H212157   7.219   5.216   0.859
 4072TIP3   OH212158   6.688   4.972   1.220
 4072TIP3    H112159   6.734   4.963   1.307
 4072TIP3    H212160   6.640   4.888   1.216
 4073TIP3   OH212161   7.488   5.050   0.745
 4073TIP3    H112162   7.404   5.073   0.788
 4073TIP3    H212163   7.546   5.030   0.819
 4074TIP3   OH212164   6.867   4.750   2.043
 4074TIP3    H112165   6.917   4.734   2.125
 4074TIP3    H212166   6.793   4.687   2.051
 4075TIP3   OH212167   7.265   3.570   1.838
 4075TIP3    H112168   7.176   3.543   1.806
 4075TIP3    H212169   7.240   3.653   1.883
 4076TIP3   OH212170   7.767   3.704   2.012
 4076TIP3    H112171   7.830   3.664   2.074
 4076TIP3    H212172   7.681   3.686   2.056
 4077TIP3   OH212173   8.077   4.114   1.952
 4077TIP3    H112174   8.016   4.118   2.028
 4077TIP3    H212175   8.054   4.197   1.905
 4078TIP3   OH212176   7.419   3.616   0.805
 4078TIP3    H112177   7.383   3.614   0.895
 4078TIP3    H212178   7.377   3.535   0.768
 4079TIP3   OH212179   7.196   4.090   1.848
 4079TIP3    H112180   7.150   4.112   1.932
 4079TIP3    H212181   7.180   4.172   1.796
 4080TIP3   OH212182   7.082   3.975   1.365
 4080TIP3    H112183   6.990   3.947   1.385
 4080TIP3    H212184   7.095   3.933   1.278
 4081TIP3   OH212185   7.575   4.059   1.091
 4081TIP3    H112186   7.522   4.129   1.046
 4081TIP3    H212187   7.635   4.030   1.020
 4082TIP3   OH212188   7.745   4.335   2.171
 4082TIP3    H112189   7.734   4.265   2.239
 4082TIP3    H212190   7.832   4.371   2.196
 4083TIP3   OH212191   7.714   4.092   1.330
 4083TIP3    H112192   7.654   4.105   1.254
 4083TIP3    H212193   7.756   4.007   1.301
 4084TIP3   OH212194   7.016   4.117   2.059
 4084TIP3    H112195   7.057   4.179   2.122
 4084TIP3    H212196   7.007   4.036   2.113
 4085TIP3   OH212197   7.064   3.593   0.770
 4085TIP3    H112198   7.058   3.593   0.868
 4085TIP3    H212199   6.988   3.649   0.747
 4086TIP3   OH212200   6.613   3.634   1.642
 4086TIP3    H112201   6.685   3.669   1.697
 4086TIP3    H212202   6.657   3.609   1.559
 4087TIP3   OH212203   6.572   3.616   1.158
 4087TIP3    H112204   6.620   3.653   1.080
 4087TIP3    H212205   6.513   3.691   1.177
 4088TIP3   OH212206   7.711   4.342   1.754
 4088TIP3    H112207   7.758   4.278   1.696
 4088TIP3    H212208   7.694   4.285   1.832
 4089TIP3   OH212209   7.406   3.818   1.423
 4089TIP3    H112210   7.335   3.803   1.489
 4089TIP3    H212211   7.483   3.773   1.464
 4090TIP3   OH212212   6.844   3.853   1.432
 4090TIP3    H112213   6.750   3.859   1.402
 4090TIP3    H212214   6.870   3.762   1.408
 4091TIP3   OH212215   7.106   3.845   1.126
 4091TIP3    H112216   7.201   3.860   1.109
 4091TIP3    H212217   7.063   3.868   1.041
 4092TIP3   OH212218   7.827   3.888   1.621
 4092TIP3    H112219   7.816   3.898   1.718
 4092TIP3    H212220   7.908   3.832   1.618
 4093TIP3   OH212221   6.958   3.880   0.898
 4093TIP3    H112222   6.888   3.838   0.846
 4093TIP3    H212223   7.013   3.920   0.826
 4094TIP3   OH212224   8.063   5.570   1.847
 4094TIP3    H112225   8.062   5.578   1.749
 4094TIP3    H212226   8.140   5.623   1.870
 4095TIP3   OH212227   7.030   4.672   2.266
 4095TIP3    H112228   7.111   4.699   2.314
 4095TIP3    H212229   6.966   4.670   2.340
 4096TIP3   OH212230   7.493   4.130   1.526
 4096TIP3    H112231   7.556   4.082   1.469
 4096TIP3    H212232   7.498   4.078   1.609
 4097TIP3   OH212233   7.008   3.612   1.406
 4097TIP3    H112234   6.974   3.534   1.455
 4097TIP3    H212235   7.057   3.570   1.334
 4098TIP3   OH212236   7.468   4.023   1.820
 4098TIP3    H112237   7.379   4.063   1.829
 4098TIP3    H212238   7.526   4.087   1.865
 4099TIP3   OH212239   7.198   4.404   0.913
 4099TIP3    H112240   7.124   4.341   0.900
 4099TIP3    H212241   7.178   4.440   1.003
 4100TIP3   OH212242   8.108   4.650   1.516
 4100TIP3    H112243   8.110   4.659   1.420
 4100TIP3    H212244   8.021   4.606   1.528
 4101TIP3   OH212245   7.675   3.709   0.784
 4101TIP3    H112246   7.580   3.681   0.786
 4101TIP3    H212247   7.666   3.803   0.764
 4102TIP3   OH212248   7.599   4.730   1.907
 4102TIP3    H112249   7.655   4.717   1.985
 4102TIP3    H212250   7.565   4.820   1.919
 4103TIP3   OH212251   7.761   3.988   0.861
 4103TIP3    H112252   7.849   4.028   0.855
 4103TIP3    H212253   7.707   4.052   0.809
 4104TIP3   OH212254   6.898   4.434   1.580
 4104TIP3    H112255   6.937   4.405   1.494
 4104TIP3    H212256   6.950   4.381   1.642
 4105TIP3   OH212257   7.355   4.559   0.758
 4105TIP3    H112258   7.306   4.645   0.758
 4105TIP3    H212259   7.297   4.505   0.816
 4106TIP3   OH212260   6.781   4.356   2.197
 4106TIP3    H112261   6.800   4.342   2.292
 4106TIP3    H212262   6.714   4.288   2.181
 4107TIP3   OH212263   7.511   4.473   2.217
 4107TIP3    H112264   7.453   4.416   2.165
 4107TIP3    H212265   7.599   4.438   2.190
 4108TIP3   OH212266   7.760   5.007   1.804
 4108TIP3    H112267   7.664   4.998   1.816
 4108TIP3    H212268   7.787   5.042   1.892
 4109TIP3   OH212269   7.863   4.514   1.453
 4109TIP3    H112270   7.768   4.493   1.466
 4109TIP3    H212271   7.896   4.427   1.424
 4110TIP3   OH212272   7.002   4.741   1.211
 4110TIP3    H112273   7.000   4.820   1.153
 4110TIP3    H212274   6.908   4.721   1.219
 4111TIP3   OH212275   6.567   4.042   0.916
 4111TIP3    H112276   6.611   4.127   0.936
 4111TIP3    H212277   6.489   4.047   0.976
 4112TIP3   OH212278   7.127   4.501   1.151
 4112TIP3    H112279   7.098   4.592   1.173
 4112TIP3    H212280   7.094   4.451   1.229
 4113TIP3   OH212281   7.272   5.080   1.676
 4113TIP3    H112282   7.317   5.152   1.627
 4113TIP3    H212283   7.347   5.042   1.725
 4114TIP3   OH212284   6.914   4.979   1.055
 4114TIP3    H112285   6.830   4.985   1.105
 4114TIP3    H212286   6.947   5.071   1.063
 4115TIP3   OH212287   7.654   4.717   1.640
 4115TIP3    H112288   7.637   4.714   1.737
 4115TIP3    H212289   7.739   4.670   1.635
 4116TIP3   OH212290   7.906   5.245   1.687
 4116TIP3    H112291   7.830   5.183   1.689
 4116TIP3    H212292   7.881   5.305   1.614
 4117TIP3   OH212293   6.988   3.859   2.201
 4117TIP3    H112294   6.891   3.863   2.214
 4117TIP3    H212295   7.016   3.806   2.277
 4118TIP3   OH212296   7.764   4.547   0.750
 4118TIP3    H112297   7.772   4.474   0.813
 4118TIP3    H212298   7.854   4.577   0.739
 4119TIP3   OH212299   6.707   4.942   1.834
 4119TIP3    H112300   6.762   4.870   1.869
 4119TIP3    H212301   6.734   5.015   1.891
 4120TIP3   OH212302   7.036   4.567   0.531
 4120TIP3    H112303   7.007   4.476   0.508
 4120TIP3    H212304   7.004   4.574   0.623
 4121TIP3   OH212305   6.943   4.597   0.798
 4121TIP3    H112306   7.016   4.569   0.855
 4121TIP3    H212307   6.947   4.694   0.809
 4122TIP3   OH212308   6.673   4.285   0.997
 4122TIP3    H112309   6.606   4.331   1.053
 4122TIP3    H212310   6.686   4.352   0.928
 4123TIP3   OH212311   7.831   3.943   1.890
 4123TIP3    H112312   7.912   3.971   1.935
 4123TIP3    H212313   7.807   3.861   1.938
 4124TIP3   OH212314   7.683   3.687   1.068
 4124TIP3    H112315   7.686   3.695   0.971
 4124TIP3    H212316   7.731   3.766   1.098
 4125TIP3   OH212317   7.206   4.779   0.749
 4125TIP3    H112318   7.121   4.826   0.751
 4125TIP3    H212319   7.250   4.813   0.668
 4126TIP3   OH212320   7.385   3.861   1.154
 4126TIP3    H112321   7.455   3.928   1.138
 4126TIP3    H212322   7.394   3.848   1.251
 4127TIP3   OH212323   7.664   4.170   1.959
 4127TIP3    H112324   7.693   4.222   2.037
 4127TIP3    H212325   7.725   4.094   1.961
 4128TIP3   OH212326   7.530   3.561   1.253
 4128TIP3    H112327   7.562   3.609   1.333
 4128TIP3    H212328   7.585   3.606   1.185
 4129TIP3   OH212329   6.943   4.868   0.802
 4129TIP3    H112330   6.932   4.946   0.743
 4129TIP3    H212331   6.932   4.909   0.891
 4130TIP3   OH212332   7.053   3.581   1.046
 4130TIP3    H112333   7.050   3.671   1.084
 4130TIP3    H212334   7.149   3.564   1.053
 4131TIP3   OH212335   7.952   4.254   1.363
 4131TIP3    H112336   7.866   4.213   1.336
 4131TIP3    H212337   7.959   4.213   1.453
 4132TIP3   OH212338   6.671   4.492   0.805
 4132TIP3    H112339   6.743   4.557   0.816
 4132TIP3    H212340   6.713   4.434   0.738
 4133TIP3   OH212341   6.611   3.771   0.936
 4133TIP3    H112342   6.617   3.868   0.934
 4133TIP3    H212343   6.533   3.756   0.882
 4134TIP3   OH212344   7.934   5.229   1.278
 4134TIP3    H112345   7.890   5.280   1.205
 4134TIP3    H212346   8.027   5.236   1.252
 4135TIP3   OH212347   7.001   3.492   1.803
 4135TIP3    H112348   6.971   3.458   1.716
 4135TIP3    H212349   6.990   3.413   1.860
 4136TIP3   OH212350   6.538   4.712   1.181
 4136TIP3    H112351   6.477   4.740   1.250
 4136TIP3    H212352   6.500   4.757   1.102
 4137TIP3   OH212353   6.702   5.262   2.258
 4137TIP3    H112354   6.788   5.263   2.305
 4137TIP3    H212355   6.684   5.166   2.257
 4138TIP3   OH212356   7.174   5.215   2.300
 4138TIP3    H112357   7.268   5.195   2.313
 4138TIP3    H212358   7.151   5.151   2.230
 4139TIP3   OH212359   7.815   5.100   2.066
 4139TIP3    H112360   7.842   5.024   2.122
 4139TIP3    H212361   7.889   5.162   2.080
 4140TIP3   OH212362   6.828   4.662   2.458
 4140TIP3    H112363   6.844   4.566   2.467
 4140TIP3    H212364   6.741   4.664   2.413
 4141TIP3   OH212365   6.820   4.311   0.669
 4141TIP3    H112366   6.882   4.284   0.739
 4141TIP3    H212367   6.879   4.314   0.591
 4142TIP3   OH212368   7.425   4.746   2.234
 4142TIP3    H112369   7.398   4.764   2.142
 4142TIP3    H212370   7.469   4.659   2.226
 4143TIP3   OH212371   7.339   4.481   0.500
 4143TIP3    H112372   7.343   4.522   0.589
 4143TIP3    H212373   7.246   4.451   0.497
 4144TIP3   OH212374   7.926   4.751   1.832
 4144TIP3    H112375   8.009   4.791   1.796
 4144TIP3    H212376   7.865   4.826   1.824
 4145TIP3   OH212377   6.949   4.397   2.443
 4145TIP3    H112378   7.029   4.353   2.412
 4145TIP3    H212379   6.977   4.429   2.531
 4146TIP3   OH212380   7.002   4.215   0.869
 4146TIP3    H112381   6.979   4.178   0.956
 4146TIP3    H212382   7.045   4.138   0.825
 4147TIP3   OH212383   7.277   4.270   2.097
 4147TIP3    H112384   7.204   4.336   2.102
 4147TIP3    H212385   7.332   4.307   2.025
 4148TIP3   OH212386   7.117   4.012   0.721
 4148TIP3    H112387   7.092   4.020   0.626
 4148TIP3    H212388   7.215   4.012   0.715
 4149TIP3   OH212389   7.407   4.068   2.227
 4149TIP3    H112390   7.409   3.991   2.168
 4149TIP3    H212391   7.363   4.136   2.170
 4150TIP3   OH212392   7.409   3.853   2.037
 4150TIP3    H112393   7.438   3.899   1.956
 4150TIP3    H212394   7.315   3.834   2.016
 4151TIP3   OH212395   7.431   4.385   1.910
 4151TIP3    H112396   7.519   4.397   1.872
 4151TIP3    H212397   7.378   4.452   1.862
 4152TIP3   OH212398   8.016   4.366   2.290
 4152TIP3    H112399   8.077   4.294   2.270
 4152TIP3    H212400   8.064   4.443   2.255
 4153TIP3   OH212401   8.064   4.575   2.003
 4153TIP3    H112402   8.009   4.645   1.961
 4153TIP3    H212403   8.149   4.586   1.956
 4154TIP3   OH212404   7.285   4.172   2.462
 4154TIP3    H112405   7.217   4.104   2.477
 4154TIP3    H212406   7.318   4.148   2.374
 4155TIP3   OH212407   7.528   3.615   2.112
 4155TIP3    H112408   7.478   3.696   2.088
 4155TIP3    H212409   7.460   3.546   2.098
 4156TIP3   OH212410   7.672   4.113   2.317
 4156TIP3    H112411   7.660   4.106   2.413
 4156TIP3    H212412   7.581   4.094   2.287
 4157TIP3   OH212413   7.906   4.059   2.165
 4157TIP3    H112414   7.827   4.073   2.222
 4157TIP3    H212415   7.970   4.023   2.230
 4158TIP3   OH212416   8.098   3.969   2.339
 4158TIP3    H112417   8.169   3.907   2.360
 4158TIP3    H212418   8.110   4.038   2.407
 4159TIP3   OH212419   7.121   3.952   2.517
 4159TIP3    H112420   7.128   3.860   2.484
 4159TIP3    H212421   7.159   3.943   2.607
 4160TIP3   OH212422   7.630   3.622   2.366
 4160TIP3    H112423   7.688   3.545   2.359
 4160TIP3    H212424   7.589   3.622   2.277
 4161TIP3   OH212425   7.699   3.839   2.525
 4161TIP3    H112426   7.677   3.771   2.458
 4161TIP3    H212427   7.623   3.901   2.517
 4162TIP3   OH212428   6.950   5.065   0.615
 4162TIP3    H112429   7.033   5.052   0.563
 4162TIP3    H212430   6.893   5.108   0.549
 4163TIP3   OH212431   6.401   4.450   0.844
 4163TIP3    H112432   6.494   4.475   0.822
 4163TIP3    H212433   6.394   4.365   0.795
 4164TIP3   OH212434   6.318   5.064   1.256
 4164TIP3    H112435   6.255   5.002   1.214
 4164TIP3    H212436   6.363   5.004   1.319
 4165TIP3   OH212437   6.453   4.907   1.440
 4165TIP3    H112438   6.442   4.838   1.508
 4165TIP3    H212439   6.506   4.972   1.491
 4166TIP3   OH212440   8.250   5.309   1.522
 4166TIP3    H112441   8.200   5.226   1.509
 4166TIP3    H212442   8.228   5.326   1.616
 4167TIP3   OH212443   8.223   5.035   2.091
 4167TIP3    H112444   8.158   5.026   2.164
 4167TIP3    H212445   8.266   5.120   2.113
 4168TIP3   OH212446   8.088   5.085   1.534
 4168TIP3    H112447   8.022   5.121   1.597
 4168TIP3    H212448   8.032   5.034   1.472
 4169TIP3   OH212449   7.989   4.215   1.063
 4169TIP3    H112450   8.078   4.174   1.072
 4169TIP3    H212451   7.983   4.259   1.150
 4170TIP3   OH212452   6.637   4.323   1.810
 4170TIP3    H112453   6.634   4.287   1.719
 4170TIP3    H212454   6.734   4.323   1.827
 4171TIP3   OH212455   6.855   4.003   2.477
 4171TIP3    H112456   6.953   4.001   2.486
 4171TIP3    H212457   6.832   3.918   2.519
 4172TIP3   OH212458   6.818   3.701   1.815
 4172TIP3    H112459   6.880   3.626   1.822
 4172TIP3    H212460   6.880   3.776   1.805
 4173TIP3   OH212461   6.617   3.972   1.884
 4173TIP3    H112462   6.668   3.970   1.801
 4173TIP3    H212463   6.647   4.054   1.924
 4174TIP3   OH212464   6.605   3.472   1.385
 4174TIP3    H112465   6.513   3.470   1.417
 4174TIP3    H212466   6.598   3.533   1.308
 4175TIP3   OH212467   7.761   5.186   0.880
 4175TIP3    H112468   7.771   5.184   0.783
 4175TIP3    H212469   7.833   5.244   0.907
 4176TIP3   OH212470   6.824   3.550   2.199
 4176TIP3    H112471   6.775   3.553   2.282
 4176TIP3    H212472   6.760   3.593   2.138
 4177TIP3   OH212473   6.861   4.992   2.275
 4177TIP3    H112474   6.769   4.964   2.263
 4177TIP3    H212475   6.878   4.967   2.367
 4178TIP3   OH212476   7.044   5.022   1.825
 4178TIP3    H112477   6.999   5.100   1.786
 4178TIP3    H212478   7.131   5.033   1.782
 4179TIP3   OH212479   7.481   5.265   1.964
 4179TIP3    H112480   7.524   5.260   2.052
 4179TIP3    H212481   7.549   5.316   1.914
 4180TIP3   OH212482   7.663   5.417   1.824
 4180TIP3    H112483   7.734   5.366   1.782
 4180TIP3    H212484   7.715   5.474   1.886
 4181TIP3   OH212485   6.718   5.277   1.849
 4181TIP3    H112486   6.627   5.309   1.830
 4181TIP3    H212487   6.733   5.320   1.934
 4182TIP3   OH212488   6.955   5.257   1.710
 4182TIP3    H112489   6.867   5.267   1.753
 4182TIP3    H212490   6.936   5.285   1.619
 4183TIP3   OH212491   7.379   5.281   1.508
 4183TIP3    H112492   7.308   5.300   1.444
 4183TIP3    H212493   7.391   5.368   1.552
 4184TIP3   OH212494   7.647   5.216   1.559
 4184TIP3    H112495   7.554   5.238   1.538
 4184TIP3    H212496   7.695   5.291   1.519
 4185TIP3   OH212497   7.835   5.402   1.469
 4185TIP3    H112498   7.832   5.490   1.424
 4185TIP3    H212499   7.869   5.344   1.398
 4186TIP3   OH212500   6.629   5.067   1.595
 4186TIP3    H112501   6.657   5.038   1.685
 4186TIP3    H212502   6.702   5.025   1.543
 4187TIP3   OH212503   6.826   4.942   1.455
 4187TIP3    H112504   6.840   4.857   1.504
 4187TIP3    H212505   6.918   4.976   1.452
 4188TIP3   OH212506   7.096   5.034   1.460
 4188TIP3    H112507   7.123   4.941   1.449
 4188TIP3    H212508   7.145   5.054   1.542
 4189TIP3   OH212509   7.614   3.655   1.498
 4189TIP3    H112510   7.603   3.603   1.580
 4189TIP3    H212511   7.712   3.653   1.488
 4190TIP3   OH212512   6.913   3.397   1.556
 4190TIP3    H112513   6.821   3.365   1.560
 4190TIP3    H212514   6.961   3.312   1.552
 4191TIP3   OH212515   6.703   3.270   1.208
 4191TIP3    H112516   6.733   3.327   1.135
 4191TIP3    H212517   6.676   3.337   1.275
 4192TIP3   OH212518   7.361   3.428   1.440
 4192TIP3    H112519   7.411   3.473   1.369
 4192TIP3    H212520   7.395   3.473   1.519
 4193TIP3   OH212521   7.868   3.560   1.418
 4193TIP3    H112522   7.896   3.539   1.328
 4193TIP3    H212523   7.866   3.471   1.459
 4194TIP3   OH212524   6.414   4.849   0.986
 4194TIP3    H112525   6.330   4.813   0.952
 4194TIP3    H212526   6.407   4.940   0.950
 4195TIP3   OH212527   6.823   3.427   0.968
 4195TIP3    H112528   6.871   3.364   0.910
 4195TIP3    H212529   6.897   3.480   1.003
 4196TIP3   OH212530   7.329   3.608   1.067
 4196TIP3    H112531   7.391   3.563   1.128
 4196TIP3    H212532   7.349   3.701   1.091
 4197TIP3   OH212533   7.121   3.675   2.445
 4197TIP3    H112534   7.085   3.606   2.505
 4197TIP3    H212535   7.215   3.676   2.475
 4198TIP3   OH212536   7.370   3.676   2.567
 4198TIP3    H112537   7.457   3.657   2.529
 4198TIP3    H212538   7.360   3.604   2.632
 4199TIP3   OH212539   6.460   4.834   0.644
 4199TIP3    H112540   6.477   4.894   0.717
 4199TIP3    H212541   6.551   4.804   0.622
 4200TIP3   OH212542   8.135   5.305   1.836
 4200TIP3    H112543   8.055   5.265   1.796
 4200TIP3    H212544   8.104   5.395   1.852
 4201TIP3   OH212545   0.061   5.201   2.819
 4201TIP3    H112546   0.024   5.290   2.819
 4201TIP3    H212547  -0.009   5.153   2.770
 4202TIP3   OH212548   0.080   5.182   3.185
 4202TIP3    H112549   0.099   5.158   3.277
 4202TIP3    H212550   0.027   5.107   3.154
 4203TIP3   OH212551   0.306   5.500   2.882
 4203TIP3    H112552   0.290   5.434   2.950
 4203TIP3    H212553   0.333   5.578   2.934
 4204TIP3   OH212554   0.004   5.988   2.883
 4204TIP3    H112555   0.050   5.905   2.861
 4204TIP3    H212556  -0.064   5.956   2.945
 4205TIP3   OH212557  -0.118   5.383   3.269
 4205TIP3    H112558  -0.087   5.318   3.204
 4205TIP3    H212559  -0.036   5.435   3.282
 4206TIP3   OH212560   0.876   4.741   3.246
 4206TIP3    H112561   0.904   4.828   3.280
 4206TIP3    H212562   0.895   4.751   3.151
 4207TIP3   OH212563   0.264   4.918   3.279
 4207TIP3    H112564   0.310   4.833   3.296
 4207TIP3    H212565   0.236   4.906   3.187
 4208TIP3   OH212566   0.304   4.678   2.868
 4208TIP3    H112567   0.380   4.663   2.928
 4208TIP3    H212568   0.351   4.712   2.789
 4209TIP3   OH212569   0.946   4.956   3.416
 4209TIP3    H112570   0.866   5.003   3.385
 4209TIP3    H212571   0.926   4.952   3.511
 4210TIP3   OH212572  -0.075   5.429   2.698
 4210TIP3    H112573  -0.089   5.380   2.615
 4210TIP3    H212574   0.004   5.484   2.675
 4211TIP3   OH212575   0.511   4.679   3.043
 4211TIP3    H112576   0.491   4.637   3.128
 4211TIP3    H212577   0.561   4.758   3.071
 4212TIP3   OH212578   0.369   5.741   3.041
 4212TIP3    H112579   0.280   5.734   3.082
 4212TIP3    H212580   0.363   5.830   3.001
 4213TIP3   OH212581   0.667   4.643   3.414
 4213TIP3    H112582   0.579   4.663   3.378
 4213TIP3    H212583   0.726   4.673   3.341
 4214TIP3   OH212584  -0.034   4.271   3.381
 4214TIP3    H112585  -0.047   4.176   3.400
 4214TIP3    H212586  -0.084   4.312   3.453
 4215TIP3   OH212587   0.067   5.767   2.706
 4215TIP3    H112588   0.113   5.682   2.685
 4215TIP3    H212589   0.134   5.831   2.673
 4216TIP3   OH212590   0.185   5.533   2.634
 4216TIP3    H112591   0.222   5.470   2.568
 4216TIP3    H212592   0.241   5.514   2.714
 4217TIP3   OH212593   0.592   5.649   3.391
 4217TIP3    H112594   0.581   5.573   3.329
 4217TIP3    H212595   0.576   5.726   3.332
 4218TIP3   OH212596  -0.116   5.075   2.660
 4218TIP3    H112597  -0.194   5.015   2.674
 4218TIP3    H212598  -0.087   5.056   2.569
 4219TIP3   OH212599  -0.140   4.836   2.369
 4219TIP3    H112600  -0.087   4.909   2.405
 4219TIP3    H212601  -0.064   4.780   2.338
 4220TIP3   OH212602   0.799   5.303   3.239
 4220TIP3    H112603   0.711   5.348   3.241
 4220TIP3    H212604   0.824   5.320   3.146
 4221TIP3   OH212605   0.240   5.138   2.618
 4221TIP3    H112606   0.188   5.156   2.699
 4221TIP3    H212607   0.323   5.103   2.658
 4222TIP3   OH212608   0.471   5.165   3.533
 4222TIP3    H112609   0.473   5.245   3.589
 4222TIP3    H212610   0.385   5.176   3.488
 4223TIP3   OH212611   0.129   5.738   3.162
 4223TIP3    H112612   0.106   5.822   3.206
 4223TIP3    H212613   0.112   5.671   3.230
 4224TIP3   OH212614   0.047   5.019   2.441
 4224TIP3    H112615   0.121   5.053   2.496
 4224TIP3    H212616   0.097   4.958   2.381
 4225TIP3   OH212617   0.592   4.223   2.497
 4225TIP3    H112618   0.510   4.249   2.544
 4225TIP3    H212619   0.610   4.305   2.446
 4226TIP3   OH212620   0.392   5.593   2.043
 4226TIP3    H112621   0.402   5.689   2.028
 4226TIP3    H212622   0.485   5.562   2.031
 4227TIP3   OH212623   0.835   6.005   3.442
 4227TIP3    H112624   0.834   5.908   3.457
 4227TIP3    H212625   0.751   6.029   3.487
 4228TIP3   OH212626  -0.051   5.841   2.160
 4228TIP3    H112627  -0.006   5.760   2.129
 4228TIP3    H212628  -0.057   5.827   2.256
 4229TIP3   OH212629  -0.051   5.867   2.448
 4229TIP3    H112630  -0.115   5.869   2.522
 4229TIP3    H212631   0.031   5.849   2.498
 4230TIP3   OH212632   0.759   5.139   3.716
 4230TIP3    H112633   0.685   5.177   3.667
 4230TIP3    H212634   0.755   5.046   3.689
 4231TIP3   OH212635   0.265   4.475   3.714
 4231TIP3    H112636   0.333   4.449   3.779
 4231TIP3    H212637   0.181   4.458   3.762
 4232TIP3   OH212638   0.493   4.906   3.637
 4232TIP3    H112639   0.441   4.903   3.720
 4232TIP3    H212640   0.472   4.995   3.602
 4233TIP3   OH212641  -0.151   4.414   2.463
 4233TIP3    H112642  -0.160   4.414   2.562
 4233TIP3    H212643  -0.178   4.321   2.446
 4234TIP3   OH212644   0.025   4.860   2.793
 4234TIP3    H112645  -0.026   4.930   2.749
 4234TIP3    H212646   0.086   4.833   2.721
 4235TIP3   OH212647   0.227   5.110   3.851
 4235TIP3    H112648   0.200   5.041   3.916
 4235TIP3    H212649   0.319   5.126   3.880
 4236TIP3   OH212650   0.178   4.874   3.021
 4236TIP3    H112651   0.116   4.900   2.949
 4236TIP3    H212652   0.217   4.796   2.976
 4237TIP3   OH212653   0.186   5.118   3.443
 4237TIP3    H112654   0.224   5.050   3.382
 4237TIP3    H212655   0.160   5.061   3.518
 4238TIP3   OH212656  -0.129   4.574   3.105
 4238TIP3    H112657  -0.219   4.608   3.120
 4238TIP3    H212658  -0.081   4.603   3.184
 4239TIP3   OH212659   0.358   4.657   3.323
 4239TIP3    H112660   0.324   4.674   3.413
 4239TIP3    H212661   0.290   4.595   3.290
 4240TIP3   OH212662   0.534   6.346   3.540
 4240TIP3    H112663   0.528   6.374   3.447
 4240TIP3    H212664   0.607   6.401   3.573
 4241TIP3   OH212665  -0.042   4.894   3.210
 4241TIP3    H112666   0.033   4.874   3.151
 4241TIP3    H212667  -0.013   4.858   3.295
 4242TIP3   OH212668  -0.051   4.793   3.504
 4242TIP3    H112669  -0.115   4.867   3.494
 4242TIP3    H212670   0.021   4.840   3.551
 4243TIP3   OH212671   0.560   5.432   3.221
 4243TIP3    H112672   0.581   5.486   3.142
 4243TIP3    H212673   0.475   5.390   3.195
 4244TIP3   OH212674   0.112   4.501   2.472
 4244TIP3    H112675   0.014   4.488   2.466
 4244TIP3    H212676   0.124   4.579   2.413
 4245TIP3   OH212677   0.042   5.519   3.593
 4245TIP3    H112678   0.086   5.527   3.678
 4245TIP3    H212679  -0.010   5.603   3.590
 4246TIP3   OH212680   0.199   4.793   2.595
 4246TIP3    H112681   0.295   4.779   2.598
 4246TIP3    H212682   0.181   4.778   2.499
 4247TIP3   OH212683  -0.205   5.348   2.434
 4247TIP3    H112684  -0.271   5.417   2.419
 4247TIP3    H212685  -0.256   5.282   2.482
 4248TIP3   OH212686   0.012   5.230   3.972
 4248TIP3    H112687  -0.057   5.198   3.912
 4248TIP3    H212688   0.093   5.208   3.922
 4249TIP3   OH212689   0.217   5.769   3.489
 4249TIP3    H112690   0.122   5.782   3.502
 4249TIP3    H212691   0.254   5.822   3.564
 4250TIP3   OH212692   0.626   4.853   2.395
 4250TIP3    H112693   0.569   4.806   2.329
 4250TIP3    H212694   0.618   4.943   2.357
 4251TIP3   OH212695   0.841   5.726   3.474
 4251TIP3    H112696   0.746   5.700   3.472
 4251TIP3    H212697   0.871   5.682   3.391
 4252TIP3   OH212698   0.333   5.665   2.309
 4252TIP3    H112699   0.301   5.589   2.358
 4252TIP3    H212700   0.345   5.628   2.220
 4253TIP3   OH212701   0.332   5.298   3.136
 4253TIP3    H112702   0.238   5.273   3.151
 4253TIP3    H212703   0.364   5.217   3.090
 4254TIP3   OH212704   0.121   5.500   3.330
 4254TIP3    H112705   0.106   5.511   3.426
 4254TIP3    H212706   0.210   5.463   3.328
 4255TIP3   OH212707   0.096   5.405   2.211
 4255TIP3    H112708   0.144   5.380   2.294
 4255TIP3    H212709   0.010   5.363   2.226
 4256TIP3   OH212710   0.358   6.027   3.369
 4256TIP3    H112711   0.275   5.976   3.364
 4256TIP3    H212712   0.340   6.099   3.304
 4257TIP3   OH212713   0.421   5.865   2.033
 4257TIP3    H112714   0.448   5.934   1.969
 4257TIP3    H212715   0.344   5.911   2.074
 4258TIP3   OH212716   0.253   5.345   2.438
 4258TIP3    H112717   0.238   5.268   2.496
 4258TIP3    H212718   0.348   5.330   2.416
 4259TIP3   OH212719   0.282   4.716   3.582
 4259TIP3    H112720   0.366   4.753   3.616
 4259TIP3    H212721   0.274   4.633   3.633
 4260TIP3   OH212722   0.169   4.457   2.746
 4260TIP3    H112723   0.144   4.479   2.654
 4260TIP3    H212724   0.201   4.543   2.779
 4261TIP3   OH212725  -0.154   4.653   2.840
 4261TIP3    H112726  -0.089   4.725   2.825
 4261TIP3    H212727  -0.148   4.640   2.937
 4262TIP3   OH212728   0.130   4.949   3.647
 4262TIP3    H112729   0.159   5.006   3.722
 4262TIP3    H212730   0.188   4.872   3.656
 4263TIP3   OH212731   0.000   4.363   2.959
 4263TIP3    H112732  -0.030   4.445   3.001
 4263TIP3    H212733   0.053   4.398   2.884
 4264TIP3   OH212734   0.759   4.866   3.623
 4264TIP3    H112735   0.662   4.873   3.641
 4264TIP3    H212736   0.754   4.805   3.547
 4265TIP3   OH212737   0.410   5.052   3.019
 4265TIP3    H112738   0.330   4.996   3.029
 4265TIP3    H212739   0.478   5.001   3.068
 4266TIP3   OH212740   0.382   6.009   2.969
 4266TIP3    H112741   0.340   6.057   2.894
 4266TIP3    H212742   0.476   6.028   2.949
 4267TIP3   OH212743   0.291   5.901   3.713
 4267TIP3    H112744   0.260   5.851   3.792
 4267TIP3    H212745   0.361   5.956   3.753
 4268TIP3   OH212746   0.078   5.616   2.036
 4268TIP3    H112747   0.095   5.545   2.101
 4268TIP3    H212748   0.152   5.604   1.974
 4269TIP3   OH212749  -0.200   5.282   2.162
 4269TIP3    H112750  -0.204   5.285   2.260
 4269TIP3    H212751  -0.196   5.184   2.147
 4270TIP3   OH212752   0.378   5.545   3.530
 4270TIP3    H112753   0.456   5.587   3.488
 4270TIP3    H212754   0.312   5.617   3.515
 4271TIP3   OH212755  -0.396   4.811   2.465
 4271TIP3    H112756  -0.422   4.803   2.371
 4271TIP3    H212757  -0.299   4.810   2.454
 4272TIP3   OH212758   0.241   5.471   3.936
 4272TIP3    H112759   0.318   5.447   3.882
 4272TIP3    H212760   0.245   5.404   4.007
 4273TIP3   OH212761   0.413   5.130   2.061
 4273TIP3    H112762   0.368   5.072   1.997
 4273TIP3    H212763   0.364   5.214   2.043
 4274TIP3   OH212764  -0.178   4.589   3.645
 4274TIP3    H112765  -0.125   4.654   3.591
 4274TIP3    H212766  -0.217   4.652   3.711
 4275TIP3   OH212767  -0.060   5.237   3.548
 4275TIP3    H112768   0.035   5.222   3.517
 4275TIP3    H212769  -0.073   5.327   3.501
 4276TIP3   OH212770   0.473   5.141   3.974
 4276TIP3    H112771   0.533   5.066   3.989
 4276TIP3    H212772   0.533   5.210   3.942
 4277TIP3   OH212773   0.516   5.387   3.705
 4277TIP3    H112774   0.459   5.447   3.651
 4277TIP3    H212775   0.605   5.410   3.670
 4278TIP3   OH212776   0.004   4.407   3.783
 4278TIP3    H112777  -0.057   4.477   3.751
 4278TIP3    H212778  -0.052   4.329   3.771
 4279TIP3   OH212779   0.135   4.909   4.016
 4279TIP3    H112780   0.166   4.909   4.109
 4279TIP3    H212781   0.045   4.873   4.025
 4280TIP3   OH212782   0.362   4.844   3.864
 4280TIP3    H112783   0.287   4.851   3.927
 4280TIP3    H212784   0.437   4.822   3.922
 4281TIP3   OH212785   0.597   4.803   4.014
 4281TIP3    H112786   0.605   4.707   4.030
 4281TIP3    H212787   0.586   4.839   4.105
 4282TIP3   OH212788   0.094   4.413   4.044
 4282TIP3    H112789   0.156   4.338   4.037
 4282TIP3    H212790   0.053   4.412   3.956
 4283TIP3   OH212791   0.170   4.622   4.202
 4283TIP3    H112792   0.149   4.546   4.144
 4283TIP3    H212793   0.083   4.668   4.203
 4284TIP3   OH212794   0.640   6.093   2.932
 4284TIP3    H112795   0.660   6.127   3.021
 4284TIP3    H212796   0.699   6.145   2.876
 4285TIP3   OH212797   0.665   6.121   3.212
 4285TIP3    H112798   0.616   6.036   3.207
 4285TIP3    H212799   0.735   6.095   3.275
 4286TIP3   OH212800   0.524   5.313   2.403
 4286TIP3    H112801   0.591   5.376   2.370
 4286TIP3    H212802   0.571   5.274   2.480
 4287TIP3   OH212803   0.654   5.179   2.606
 4287TIP3    H112804   0.586   5.135   2.662
 4287TIP3    H212805   0.716   5.215   2.672
 4288TIP3   OH212806   0.716   5.577   3.041
 4288TIP3    H112807   0.761   5.509   2.988
 4288TIP3    H212808   0.708   5.650   2.976
 4289TIP3   OH212809   0.537   5.870   3.230
 4289TIP3    H112810   0.467   5.916   3.282
 4289TIP3    H212811   0.485   5.827   3.160
 4290TIP3   OH212812   0.592   5.088   2.255
 4290TIP3    H112813   0.527   5.090   2.181
 4290TIP3    H212814   0.558   5.163   2.308
 4291TIP3   OH212815   0.472   4.749   2.197
 4291TIP3    H112816   0.383   4.788   2.193
 4291TIP3    H212817   0.451   4.657   2.171
 4292TIP3   OH212818   0.468   5.036   2.749
 4292TIP3    H112819   0.470   4.939   2.736
 4292TIP3    H212820   0.452   5.044   2.846
 4293TIP3   OH212821   0.766   5.424   3.585
 4293TIP3    H112822   0.836   5.421   3.515
 4293TIP3    H212823   0.779   5.514   3.623
 4294TIP3   OH212824   0.416   4.473   2.168
 4294TIP3    H112825   0.470   4.458   2.248
 4294TIP3    H212826   0.325   4.456   2.200
 4295TIP3   OH212827   0.472   4.756   2.648
 4295TIP3    H112828   0.512   4.667   2.661
 4295TIP3    H212829   0.522   4.785   2.569
 4296TIP3   OH212830   0.622   4.919   3.144
 4296TIP3    H112831   0.707   4.945   3.100
 4296TIP3    H212832   0.636   4.961   3.231
 4297TIP3   OH212833   0.695   5.075   3.368
 4297TIP3    H112834   0.617   5.104   3.420
 4297TIP3    H212835   0.724   5.158   3.327
 4298TIP3   OH212836   1.139   4.667   3.921
 4298TIP3    H112837   1.202   4.603   3.881
 4298TIP3    H212838   1.115   4.723   3.843
 4299TIP3   OH212839   0.575   4.502   2.682
 4299TIP3    H112840   0.619   4.484   2.767
 4299TIP3    H212841   0.510   4.429   2.679
 4300TIP3   OH212842   1.014   4.814   3.722
 4300TIP3    H112843   0.925   4.851   3.738
 4300TIP3    H212844   0.989   4.736   3.669
 4301TIP3   OH212845   0.653   4.432   2.328
 4301TIP3    H112846   0.687   4.367   2.263
 4301TIP3    H212847   0.715   4.507   2.317
 4302TIP3   OH212848   0.220   5.953   2.588
 4302TIP3    H112849   0.275   5.952   2.508
 4302TIP3    H212850   0.257   6.028   2.638
 4303TIP3   OH212851   0.126   6.202   3.507
 4303TIP3    H112852   0.189   6.130   3.497
 4303TIP3    H212853   0.175   6.261   3.568
 4304TIP3   OH212854   0.914   4.564   3.614
 4304TIP3    H112855   0.825   4.555   3.576
 4304TIP3    H212856   0.948   4.472   3.604
 4305TIP3   OH212857   0.091   6.008   3.256
 4305TIP3    H112858   0.011   6.034   3.305
 4305TIP3    H212859   0.114   6.092   3.214
 4306TIP3   OH212860   0.326   6.205   3.161
 4306TIP3    H112861   0.298   6.284   3.111
 4306TIP3    H212862   0.337   6.139   3.090
 4307TIP3   OH212863   0.140   4.481   3.255
 4307TIP3    H112864   0.083   4.407   3.279
 4307TIP3    H212865   0.197   4.442   3.186
 4308TIP3   OH212866   0.638   4.362   3.141
 4308TIP3    H112867   0.674   4.412   3.064
 4308TIP3    H212868   0.542   4.378   3.130
 4309TIP3   OH212869   0.735   4.453   2.903
 4309TIP3    H112870   0.809   4.403   2.862
 4309TIP3    H212871   0.767   4.545   2.888
 4310TIP3   OH212872  -0.165   4.207   3.133
 4310TIP3    H112873  -0.125   4.259   3.061
 4310TIP3    H212874  -0.124   4.249   3.211
 4311TIP3   OH212875   0.358   4.367   3.109
 4311TIP3    H112876   0.348   4.330   3.020
 4311TIP3    H212877   0.343   4.287   3.166
 4312TIP3   OH212878   0.388   4.295   2.676
 4312TIP3    H112879   0.304   4.344   2.693
 4312TIP3    H212880   0.367   4.209   2.718
 4313TIP3   OH212881  -0.170   4.401   2.731
 4313TIP3    H112882  -0.165   4.354   2.815
 4313TIP3    H212883  -0.178   4.494   2.761
 4314TIP3   OH212884   0.367   5.932   2.358
 4314TIP3    H112885   0.361   5.834   2.345
 4314TIP3    H212886   0.319   5.964   2.279
 4315TIP3   OH212887   0.651   4.529   4.043
 4315TIP3    H112888   0.669   4.500   4.136
 4315TIP3    H212889   0.741   4.525   4.004
 4316TIP3   OH212890   0.584   6.078   3.533
 4316TIP3    H112891   0.505   6.047   3.483
 4316TIP3    H212892   0.565   6.174   3.539
 4317TIP3   OH212893   1.855   5.453   2.301
 4317TIP3    H112894   1.823   5.543   2.278
 4317TIP3    H212895   1.781   5.400   2.266
 4318TIP3   OH212896   1.854   5.455   2.691
 4318TIP3    H112897   1.891   5.429   2.778
 4318TIP3    H212898   1.815   5.372   2.660
 4319TIP3   OH212899   1.159   5.359   3.070
 4319TIP3    H112900   1.189   5.282   3.122
 4319TIP3    H212901   1.238   5.378   3.016
 4320TIP3   OH212902   2.100   5.758   2.369
 4320TIP3    H112903   2.083   5.689   2.435
 4320TIP3    H212904   2.132   5.832   2.424
 4321TIP3   OH212905   1.128   5.758   2.771
 4321TIP3    H112906   1.119   5.660   2.773
 4321TIP3    H212907   1.225   5.767   2.762
 4322TIP3   OH212908   0.830   4.957   2.554
 4322TIP3    H112909   0.780   5.039   2.572
 4322TIP3    H212910   0.761   4.906   2.508
 4323TIP3   OH212911   0.889   5.247   2.738
 4323TIP3    H112912   0.940   5.167   2.768
 4323TIP3    H212913   0.943   5.279   2.665
 4324TIP3   OH212914   1.753   6.218   2.387
 4324TIP3    H112915   1.792   6.146   2.333
 4324TIP3    H212916   1.741   6.173   2.472
 4325TIP3   OH212917   1.651   5.678   2.735
 4325TIP3    H112918   1.693   5.602   2.691
 4325TIP3    H212919   1.732   5.727   2.760
 4326TIP3   OH212920   2.670   4.996   2.731
 4326TIP3    H112921   2.699   5.081   2.770
 4326TIP3    H212922   2.694   5.009   2.638
 4327TIP3   OH212923   2.063   5.176   2.762
 4327TIP3    H112924   2.108   5.092   2.782
 4327TIP3    H212925   2.032   5.159   2.671
 4328TIP3   OH212926   1.408   4.838   2.727
 4328TIP3    H112927   1.387   4.910   2.664
 4328TIP3    H212928   1.359   4.764   2.684
 4329TIP3   OH212929   2.100   4.932   2.348
 4329TIP3    H112930   2.172   4.918   2.414
 4329TIP3    H212931   2.153   4.966   2.273
 4330TIP3   OH212932   1.037   5.038   2.838
 4330TIP3    H112933   1.120   5.016   2.884
 4330TIP3    H212934   1.049   4.984   2.757
 4331TIP3   OH212935   1.472   5.236   2.644
 4331TIP3    H112936   1.568   5.214   2.649
 4331TIP3    H212937   1.436   5.154   2.605
 4332TIP3   OH212938   2.743   5.207   2.901
 4332TIP3    H112939   2.658   5.252   2.881
 4332TIP3    H212940   2.760   5.241   2.991
 4333TIP3   OH212941   1.399   4.823   3.165
 4333TIP3    H112942   1.341   4.858   3.095
 4333TIP3    H212943   1.345   4.841   3.244
 4334TIP3   OH212944   1.738   5.670   2.172
 4334TIP3    H112945   1.702   5.659   2.083
 4334TIP3    H212946   1.694   5.753   2.200
 4335TIP3   OH212947   1.505   5.596   2.953
 4335TIP3    H112948   1.448   5.668   2.988
 4335TIP3    H212949   1.551   5.642   2.879
 4336TIP3   OH212950   2.302   4.938   2.530
 4336TIP3    H112951   2.289   4.894   2.615
 4336TIP3    H212952   2.355   5.016   2.555
 4337TIP3   OH212953   1.273   4.935   2.946
 4337TIP3    H112954   1.336   5.007   2.970
 4337TIP3    H212955   1.322   4.895   2.870
 4338TIP3   OH212956   1.338   5.796   3.055
 4338TIP3    H112957   1.313   5.883   3.018
 4338TIP3    H212958   1.258   5.779   3.110
 4339TIP3   OH212959   0.724   5.484   2.292
 4339TIP3    H112960   0.684   5.508   2.206
 4339TIP3    H212961   0.755   5.571   2.324
 4340TIP3   OH212962   2.166   6.001   2.532
 4340TIP3    H112963   2.076   5.992   2.571
 4340TIP3    H212964   2.157   6.087   2.487
 4341TIP3   OH212965   2.462   4.895   2.897
 4341TIP3    H112966   2.375   4.922   2.863
 4341TIP3    H212967   2.523   4.928   2.827
 4342TIP3   OH212968   1.751   4.536   2.880
 4342TIP3    H112969   1.735   4.442   2.898
 4342TIP3    H212970   1.675   4.576   2.927
 4343TIP3   OH212971   1.863   6.045   2.201
 4343TIP3    H112972   1.913   5.961   2.184
 4343TIP3    H212973   1.927   6.109   2.162
 4344TIP3   OH212974   2.008   5.829   2.119
 4344TIP3    H112975   1.980   5.747   2.076
 4344TIP3    H212976   2.047   5.795   2.203
 4345TIP3   OH212977   2.392   5.908   2.877
 4345TIP3    H112978   2.380   5.831   2.817
 4345TIP3    H212979   2.374   5.983   2.816
 4346TIP3   OH212980   1.686   5.304   2.138
 4346TIP3    H112981   1.606   5.358   2.117
 4346TIP3    H212982   1.731   5.301   2.051
 4347TIP3   OH212983   1.643   5.092   1.845
 4347TIP3    H112984   1.710   5.144   1.893
 4347TIP3    H212985   1.701   5.029   1.798
 4348TIP3   OH212986   2.588   5.551   2.725
 4348TIP3    H112987   2.503   5.601   2.727
 4348TIP3    H212988   2.618   5.573   2.634
 4349TIP3   OH212989   2.033   5.388   2.103
 4349TIP3    H112990   1.979   5.412   2.182
 4349TIP3    H212991   2.118   5.363   2.145
 4350TIP3   OH212992   2.266   5.423   3.025
 4350TIP3    H112993   2.264   5.506   3.075
 4350TIP3    H212994   2.181   5.428   2.977
 4351TIP3   OH212995   1.264   5.382   2.524
 4351TIP3    H112996   1.222   5.324   2.456
 4351TIP3    H212997   1.339   5.328   2.554
 4352TIP3   OH212998   1.394   5.795   2.669
 4352TIP3    H112999   1.375   5.764   2.579
 4352TIP3    H213000   1.482   5.758   2.686
 4353TIP3   OH213001   1.385   5.358   2.883
 4353TIP3    H113002   1.422   5.327   2.797
 4353TIP3    H213003   1.435   5.441   2.898
 4354TIP3   OH213004   1.926   5.994   2.655
 4354TIP3    H113005   1.913   6.073   2.710
 4354TIP3    H213006   1.909   5.921   2.718
 4355TIP3   OH213007   1.541   5.911   3.203
 4355TIP3    H113008   1.479   5.972   3.249
 4355TIP3    H213009   1.477   5.858   3.150
 4356TIP3   OH213010   1.869   5.246   1.932
 4356TIP3    H113011   1.929   5.306   1.981
 4356TIP3    H213012   1.896   5.266   1.839
 4357TIP3   OH213013   1.289   5.464   3.320
 4357TIP3    H113014   1.291   5.549   3.369
 4357TIP3    H213015   1.226   5.483   3.249
 4358TIP3   OH213016   1.619   5.920   2.209
 4358TIP3    H113017   1.702   5.971   2.213
 4358TIP3    H213018   1.559   5.981   2.164
 4359TIP3   OH213019   1.332   6.074   3.291
 4359TIP3    H113020   1.297   6.079   3.201
 4359TIP3    H213021   1.252   6.051   3.344
 4360TIP3   OH213022   2.389   4.483   1.982
 4360TIP3    H113023   2.307   4.507   2.031
 4360TIP3    H213024   2.404   4.564   1.930
 4361TIP3   OH213025   1.130   5.227   2.328
 4361TIP3    H113026   1.062   5.272   2.274
 4361TIP3    H213027   1.093   5.138   2.335
 4362TIP3   OH213028   2.191   5.850   1.532
 4362TIP3    H113029   2.199   5.946   1.515
 4362TIP3    H213030   2.284   5.820   1.519
 4363TIP3   OH213031   0.910   5.604   3.238
 4363TIP3    H113032   0.840   5.605   3.169
 4363TIP3    H213033   0.917   5.510   3.256
 4364TIP3   OH213034   0.765   5.803   2.868
 4364TIP3    H113035   0.862   5.806   2.861
 4364TIP3    H213036   0.748   5.884   2.920
 4365TIP3   OH213037   2.630   6.259   2.927
 4365TIP3    H113038   2.629   6.162   2.941
 4365TIP3    H213039   2.546   6.284   2.972
 4366TIP3   OH213040   1.736   6.039   3.060
 4366TIP3    H113041   1.732   6.132   3.091
 4366TIP3    H213042   1.665   5.998   3.114
 4367TIP3   OH213043   1.502   6.167   2.011
 4367TIP3    H113044   1.452   6.148   1.930
 4367TIP3    H213045   1.466   6.253   2.039
 4368TIP3   OH213046   0.937   6.017   2.396
 4368TIP3    H113047   0.982   6.007   2.483
 4368TIP3    H213048   0.886   5.934   2.391
 4369TIP3   OH213049   1.699   6.072   1.647
 4369TIP3    H113050   1.757   6.000   1.612
 4369TIP3    H213051   1.734   6.082   1.738
 4370TIP3   OH213052   1.752   6.121   1.916
 4370TIP3    H113053   1.664   6.129   1.958
 4370TIP3    H213054   1.803   6.080   1.988
 4371TIP3   OH213055   2.518   5.384   3.201
 4371TIP3    H113056   2.435   5.394   3.151
 4371TIP3    H213057   2.535   5.288   3.191
 4372TIP3   OH213058   1.117   5.788   3.217
 4372TIP3    H113059   1.159   5.783   3.304
 4372TIP3    H213060   1.040   5.729   3.228
 4373TIP3   OH213061   1.515   4.615   3.012
 4373TIP3    H113062   1.427   4.585   2.981
 4373TIP3    H213063   1.489   4.696   3.060
 4374TIP3   OH213064   2.053   4.730   3.204
 4374TIP3    H113065   2.122   4.703   3.267
 4374TIP3    H213066   1.970   4.711   3.253
 4375TIP3   OH213067   2.284   5.159   3.121
 4375TIP3    H113068   2.234   5.158   3.206
 4375TIP3    H213069   2.263   5.248   3.085
 4376TIP3   OH213070   1.948   5.285   1.677
 4376TIP3    H113071   1.913   5.265   1.588
 4376TIP3    H213072   2.034   5.326   1.653
 4377TIP3   OH213073   1.660   4.663   1.981
 4377TIP3    H113074   1.624   4.660   2.072
 4377TIP3    H213075   1.620   4.581   1.945
 4378TIP3   OH213076   1.448   5.133   3.026
 4378TIP3    H113077   1.402   5.155   3.110
 4378TIP3    H213078   1.431   5.215   2.974
 4379TIP3   OH213079   1.331   5.020   2.542
 4379TIP3    H113080   1.238   4.993   2.559
 4379TIP3    H213081   1.343   4.979   2.453
 4380TIP3   OH213082   1.822   5.103   2.272
 4380TIP3    H113083   1.772   5.175   2.226
 4380TIP3    H213084   1.878   5.069   2.199
 4381TIP3   OH213085   1.997   5.378   3.353
 4381TIP3    H113086   1.975   5.305   3.415
 4381TIP3    H213087   2.091   5.392   3.375
 4382TIP3   OH213088   1.976   5.129   2.506
 4382TIP3    H113089   1.914   5.156   2.435
 4382TIP3    H213090   2.014   5.050   2.461
 4383TIP3   OH213091   1.268   5.162   3.240
 4383TIP3    H113092   1.325   5.215   3.299
 4383TIP3    H213093   1.257   5.079   3.290
 4384TIP3   OH213094   1.319   4.639   1.946
 4384TIP3    H113095   1.306   4.639   2.043
 4384TIP3    H213096   1.241   4.692   1.918
 4385TIP3   OH213097   0.859   4.678   2.823
 4385TIP3    H113098   0.937   4.712   2.871
 4385TIP3    H213099   0.894   4.652   2.736
 4386TIP3   OH213100   0.826   4.664   2.336
 4386TIP3    H113101   0.868   4.700   2.255
 4386TIP3    H213102   0.763   4.736   2.355
 4387TIP3   OH213103   1.987   5.374   2.927
 4387TIP3    H113104   2.021   5.303   2.868
 4387TIP3    H213105   1.957   5.320   3.003
 4388TIP3   OH213106   1.666   4.837   2.601
 4388TIP3    H113107   1.585   4.837   2.655
 4388TIP3    H213108   1.736   4.832   2.668
 4389TIP3   OH213109   1.091   4.898   2.608
 4389TIP3    H113110   0.997   4.906   2.579
 4389TIP3    H213111   1.114   4.807   2.584
 4390TIP3   OH213112   1.357   4.892   2.301
 4390TIP3    H113113   1.450   4.906   2.278
 4390TIP3    H213114   1.309   4.913   2.218
 4391TIP3   OH213115   2.152   4.916   2.807
 4391TIP3    H113116   2.119   4.930   2.899
 4391TIP3    H213117   2.084   4.857   2.772
 4392TIP3   OH213118   1.210   4.927   2.076
 4392TIP3    H113119   1.140   4.881   2.026
 4392TIP3    H213120   1.262   4.965   2.001
 4393TIP3   OH213121   2.326   6.605   3.026
 4393TIP3    H113122   2.323   6.630   2.932
 4393TIP3    H213123   2.406   6.652   3.056
 4394TIP3   OH213124   1.280   5.713   3.448
 4394TIP3    H113125   1.360   5.742   3.496
 4394TIP3    H213126   1.211   5.732   3.515
 4395TIP3   OH213127   1.741   5.170   2.698
 4395TIP3    H113128   1.815   5.134   2.647
 4395TIP3    H213129   1.749   5.124   2.783
 4396TIP3   OH213130   1.260   4.655   2.583
 4396TIP3    H113131   1.224   4.578   2.632
 4396TIP3    H213132   1.299   4.613   2.506
 4397TIP3   OH213133   1.718   5.068   2.990
 4397TIP3    H113134   1.628   5.104   3.003
 4397TIP3    H213135   1.775   5.130   3.039
 4398TIP3   OH213136   1.454   5.455   2.084
 4398TIP3    H113137   1.382   5.390   2.071
 4398TIP3    H213138   1.433   5.489   2.174
 4399TIP3   OH213139   2.352   5.693   2.709
 4399TIP3    H113140   2.377   5.743   2.628
 4399TIP3    H213141   2.268   5.650   2.681
 4400TIP3   OH213142   1.912   4.763   1.956
 4400TIP3    H113143   1.816   4.745   1.962
 4400TIP3    H213144   1.918   4.859   1.977
 4401TIP3   OH213145   1.849   5.773   3.083
 4401TIP3    H113146   1.888   5.762   3.171
 4401TIP3    H213147   1.814   5.864   3.087
 4402TIP3   OH213148   1.979   5.018   2.054
 4402TIP3    H113149   2.076   5.023   2.067
 4402TIP3    H213150   1.960   5.097   2.001
 4403TIP3   OH213151   1.149   5.480   2.755
 4403TIP3    H113152   1.181   5.456   2.665
 4403TIP3    H213153   1.204   5.422   2.810
 4404TIP3   OH213154   1.600   5.606   1.909
 4404TIP3    H113155   1.551   5.691   1.912
 4404TIP3    H213156   1.546   5.551   1.969
 4405TIP3   OH213157   0.986   5.361   3.430
 4405TIP3    H113158   1.075   5.334   3.395
 4405TIP3    H213159   0.927   5.322   3.360
 4406TIP3   OH213160   1.760   5.516   3.392
 4406TIP3    H113161   1.702   5.460   3.338
 4406TIP3    H213162   1.848   5.481   3.366
 4407TIP3   OH213163   2.011   6.034   2.980
 4407TIP3    H113164   1.915   6.034   2.993
 4407TIP3    H213165   2.040   6.087   3.058
 4408TIP3   OH213166   2.417   5.112   1.888
 4408TIP3    H113167   2.357   5.067   1.824
 4408TIP3    H213168   2.417   5.201   1.846
 4409TIP3   OH213169   2.643   5.969   2.965
 4409TIP3    H113170   2.545   5.961   2.957
 4409TIP3    H213171   2.669   5.938   2.875
 4410TIP3   OH213172   2.124   5.927   1.795
 4410TIP3    H113173   2.099   5.856   1.856
 4410TIP3    H213174   2.139   5.880   1.711
 4411TIP3   OH213175   2.119   5.556   2.625
 4411TIP3    H113176   2.025   5.532   2.639
 4411TIP3    H213177   2.152   5.475   2.582
 4412TIP3   OH213178   1.250   5.786   2.388
 4412TIP3    H113179   1.247   5.866   2.332
 4412TIP3    H213180   1.157   5.765   2.397
 4413TIP3   OH213181   0.816   5.085   2.095
 4413TIP3    H113182   0.858   5.172   2.115
 4413TIP3    H213183   0.737   5.089   2.154
 4414TIP3   OH213184   1.378   5.547   2.326
 4414TIP3    H113185   1.347   5.637   2.346
 4414TIP3    H213186   1.343   5.496   2.402
 4415TIP3   OH213187   1.521   6.126   2.852
 4415TIP3    H113188   1.563   6.198   2.802
 4415TIP3    H213189   1.597   6.088   2.899
 4416TIP3   OH213190   1.166   6.023   2.237
 4416TIP3    H113191   1.081   6.031   2.283
 4416TIP3    H213192   1.198   6.116   2.239
 4417TIP3   OH213193   1.901   5.762   2.814
 4417TIP3    H113194   1.891   5.759   2.912
 4417TIP3    H213195   1.981   5.708   2.802
 4418TIP3   OH213196   1.884   5.659   1.698
 4418TIP3    H113197   1.938   5.634   1.776
 4418TIP3    H213198   1.797   5.626   1.723
 4419TIP3   OH213199   2.153   6.291   2.862
 4419TIP3    H113200   2.072   6.237   2.856
 4419TIP3    H213201   2.137   6.356   2.790
 4420TIP3   OH213202   2.219   6.126   1.513
 4420TIP3    H113203   2.257   6.201   1.465
 4420TIP3    H213204   2.138   6.170   1.548
 4421TIP3   OH213205   1.233   4.907   3.375
 4421TIP3    H113206   1.136   4.911   3.387
 4421TIP3    H213207   1.260   4.852   3.451
 4422TIP3   OH213208   2.044   5.591   1.913
 4422TIP3    H113209   2.034   5.522   1.981
 4422TIP3    H213210   2.141   5.585   1.899
 4423TIP3   OH213211   0.958   5.988   3.007
 4423TIP3    H113212   1.015   5.918   3.046
 4423TIP3    H213213   0.975   6.061   3.067
 4424TIP3   OH213214   1.245   5.635   1.697
 4424TIP3    H113215   1.255   5.542   1.669
 4424TIP3    H213216   1.223   5.624   1.792
 4425TIP3   OH213217   1.188   5.640   1.968
 4425TIP3    H113218   1.263   5.612   2.022
 4425TIP3    H213219   1.192   5.738   1.977
 4426TIP3   OH213220   0.923   5.332   2.174
 4426TIP3    H113221   0.855   5.376   2.229
 4426TIP3    H213222   0.935   5.399   2.104
 4427TIP3   OH213223   2.077   4.970   3.067
 4427TIP3    H113224   2.160   5.008   3.101
 4427TIP3    H213225   2.067   4.888   3.121
 4428TIP3   OH213226   1.960   4.714   2.235
 4428TIP3    H113227   1.945   4.735   2.140
 4428TIP3    H213228   2.000   4.798   2.268
 4429TIP3   OH213229   1.459   5.836   1.916
 4429TIP3    H113230   1.371   5.860   1.953
 4429TIP3    H213231   1.472   5.910   1.855
 4430TIP3   OH213232   1.641   4.902   2.332
 4430TIP3    H113233   1.705   4.974   2.314
 4430TIP3    H213234   1.649   4.892   2.429
 4431TIP3   OH213235   1.915   5.214   3.136
 4431TIP3    H113236   1.943   5.265   3.215
 4431TIP3    H213237   1.968   5.133   3.143
 4432TIP3   OH213238   1.785   4.618   2.430
 4432TIP3    H113239   1.776   4.697   2.486
 4432TIP3    H213240   1.849   4.652   2.363
 4433TIP3   OH213241   1.205   5.912   1.987
 4433TIP3    H113242   1.174   5.982   1.926
 4433TIP3    H213243   1.187   5.954   2.075
 4434TIP3   OH213244   1.300   4.627   2.223
 4434TIP3    H113245   1.297   4.717   2.260
 4434TIP3    H213246   1.397   4.610   2.229
 4435TIP3   OH213247   2.552   5.118   3.121
 4435TIP3    H113248   2.453   5.116   3.127
 4435TIP3    H213249   2.564   5.074   3.036
 4436TIP3   OH213250   2.204   5.311   2.508
 4436TIP3    H113251   2.129   5.251   2.518
 4436TIP3    H213252   2.276   5.263   2.556
 4437TIP3   OH213253   0.920   5.535   1.976
 4437TIP3    H113254   0.993   5.600   1.984
 4437TIP3    H213255   0.961   5.475   1.909
 4438TIP3   OH213256   0.854   4.813   2.109
 4438TIP3    H113257   0.858   4.911   2.108
 4438TIP3    H213258   0.767   4.797   2.069
 4439TIP3   OH213259   2.175   6.272   2.454
 4439TIP3    H113260   2.132   6.319   2.379
 4439TIP3    H213261   2.269   6.291   2.433
 4440TIP3   OH213262   1.250   4.536   2.980
 4440TIP3    H113263   1.220   4.503   2.893
 4440TIP3    H213264   1.239   4.457   3.037
 4441TIP3   OH213265   0.787   5.755   2.362
 4441TIP3    H113266   0.724   5.784   2.429
 4441TIP3    H213267   0.749   5.797   2.280
 4442TIP3   OH213268   0.949   6.305   3.432
 4442TIP3    H113269   1.034   6.305   3.481
 4442TIP3    H213270   0.926   6.211   3.436
 4443TIP3   OH213271   1.425   6.256   3.480
 4443TIP3    H113272   1.520   6.238   3.485
 4443TIP3    H213273   1.398   6.194   3.409
 4444TIP3   OH213274   1.409   5.835   1.606
 4444TIP3    H113275   1.353   5.763   1.644
 4444TIP3    H213276   1.485   5.782   1.574
 4445TIP3   OH213277   2.064   6.169   3.214
 4445TIP3    H113278   2.059   6.099   3.283
 4445TIP3    H213279   2.142   6.221   3.244
 4446TIP3   OH213280   1.843   5.873   1.522
 4446TIP3    H113281   1.881   5.807   1.583
 4446TIP3    H213282   1.902   5.867   1.444
 4447TIP3   OH213283   1.077   5.726   3.632
 4447TIP3    H113284   1.080   5.632   3.654
 4447TIP3    H213285   0.979   5.736   3.620
 4448TIP3   OH213286   1.057   5.350   1.832
 4448TIP3    H113287   1.114   5.320   1.905
 4448TIP3    H213288   1.123   5.356   1.759
 4449TIP3   OH213289   1.686   5.793   3.408
 4449TIP3    H113290   1.644   5.815   3.322
 4449TIP3    H213291   1.717   5.701   3.395
 4450TIP3   OH213292   1.575   5.555   1.639
 4450TIP3    H113293   1.574   5.565   1.736
 4450TIP3    H213294   1.573   5.456   1.631
 4451TIP3   OH213295   2.176   5.806   3.018
 4451TIP3    H113296   2.253   5.845   2.973
 4451TIP3    H213297   2.108   5.874   3.000
 4452TIP3   OH213298   1.260   5.260   2.048
 4452TIP3    H113299   1.232   5.218   2.131
 4452TIP3    H213300   1.299   5.185   1.999
 4453TIP3   OH213301   1.520   5.312   3.274
 4453TIP3    H113302   1.452   5.381   3.287
 4453TIP3    H213303   1.576   5.352   3.203
 4454TIP3   OH213304   1.366   5.056   1.890
 4454TIP3    H113305   1.340   5.064   1.795
 4454TIP3    H213306   1.463   5.058   1.882
 4455TIP3   OH213307   2.049   5.724   3.411
 4455TIP3    H113308   2.126   5.692   3.363
 4455TIP3    H213309   2.043   5.661   3.485
 4456TIP3   OH213310   2.179   5.381   1.560
 4456TIP3    H113311   2.162   5.337   1.474
 4456TIP3    H213312   2.147   5.471   1.538
 4457TIP3   OH213313   1.657   5.112   3.401
 4457TIP3    H113314   1.659   5.033   3.343
 4457TIP3    H213315   1.611   5.177   3.344
 4458TIP3   OH213316   1.658   4.899   3.214
 4458TIP3    H113317   1.688   4.940   3.130
 4458TIP3    H213318   1.565   4.876   3.193
 4459TIP3   OH213319   1.677   5.434   3.093
 4459TIP3    H113320   1.764   5.444   3.052
 4459TIP3    H213321   1.624   5.499   3.042
 4460TIP3   OH213322   2.263   5.399   3.462
 4460TIP3    H113323   2.311   5.315   3.474
 4460TIP3    H213324   2.332   5.456   3.426
 4461TIP3   OH213325   2.305   5.654   3.201
 4461TIP3    H113326   2.247   5.710   3.143
 4461TIP3    H213327   2.393   5.675   3.163
 4462TIP3   OH213328   1.542   5.212   3.640
 4462TIP3    H113329   1.464   5.156   3.654
 4462TIP3    H213330   1.570   5.187   3.550
 4463TIP3   OH213331   1.789   4.661   3.285
 4463TIP3    H113332   1.740   4.742   3.260
 4463TIP3    H213333   1.721   4.592   3.272
 4464TIP3   OH213334   1.916   5.161   3.497
 4464TIP3    H113335   1.900   5.147   3.592
 4464TIP3    H213336   1.826   5.139   3.463
 4465TIP3   OH213337   2.154   5.116   3.352
 4465TIP3    H113338   2.079   5.116   3.416
 4465TIP3    H213339   2.229   5.086   3.408
 4466TIP3   OH213340   2.382   5.057   3.501
 4466TIP3    H113341   2.397   4.961   3.516
 4466TIP3    H213342   2.379   5.092   3.593
 4467TIP3   OH213343   1.362   4.999   3.691
 4467TIP3    H113344   1.367   4.907   3.657
 4467TIP3    H213345   1.406   4.989   3.777
 4468TIP3   OH213346   1.879   4.669   3.544
 4468TIP3    H113347   1.947   4.599   3.536
 4468TIP3    H213348   1.841   4.666   3.453
 4469TIP3   OH213349   1.950   4.883   3.700
 4469TIP3    H113350   1.928   4.812   3.636
 4469TIP3    H213351   1.873   4.943   3.694
 4470TIP3   OH213352   1.176   6.118   1.803
 4470TIP3    H113353   1.270   6.107   1.778
 4470TIP3    H213354   1.143   6.166   1.725
 4471TIP3   OH213355   0.651   5.496   2.015
 4471TIP3    H113356   0.745   5.518   1.998
 4471TIP3    H213357   0.644   5.409   1.971
 4472TIP3   OH213358   0.567   6.112   2.429
 4472TIP3    H113359   0.502   6.049   2.390
 4472TIP3    H213360   0.612   6.052   2.492
 4473TIP3   OH213361   0.701   5.955   2.614
 4473TIP3    H113362   0.686   5.886   2.681
 4473TIP3    H213363   0.753   6.018   2.666
 4474TIP3   OH213364   2.430   6.359   2.417
 4474TIP3    H113365   2.458   6.390   2.505
 4474TIP3    H213366   2.499   6.396   2.359
 4475TIP3   OH213367   2.458   6.378   2.700
 4475TIP3    H113368   2.412   6.291   2.694
 4475TIP3    H213369   2.533   6.353   2.756
 4476TIP3   OH213370   2.505   6.055   3.272
 4476TIP3    H113371   2.433   6.066   3.337
 4476TIP3    H213372   2.548   6.143   3.275
 4477TIP3   OH213373   2.321   5.569   1.888
 4477TIP3    H113374   2.388   5.633   1.856
 4477TIP3    H213375   2.367   5.531   1.966
 4478TIP3   OH213376   2.449   5.437   2.093
 4478TIP3    H113377   2.383   5.395   2.152
 4478TIP3    H213378   2.516   5.471   2.156
 4479TIP3   OH213379   2.508   5.830   2.525
 4479TIP3    H113380   2.559   5.761   2.478
 4479TIP3    H213381   2.504   5.901   2.458
 4480TIP3   OH213382   2.332   6.129   2.719
 4480TIP3    H113383   2.259   6.170   2.769
 4480TIP3    H213384   2.283   6.083   2.647
 4481TIP3   OH213385   2.384   5.344   1.739
 4481TIP3    H113386   2.313   5.346   1.672
 4481TIP3    H213387   2.358   5.421   1.793
 4482TIP3   OH213388   2.252   5.017   1.694
 4482TIP3    H113389   2.214   5.051   1.613
 4482TIP3    H213390   2.232   4.921   1.686
 4483TIP3   OH213391   2.259   5.296   2.237
 4483TIP3    H113392   2.269   5.200   2.228
 4483TIP3    H213393   2.245   5.306   2.334
 4484TIP3   OH213394   0.890   5.358   2.990
 4484TIP3    H113395   0.886   5.327   2.896
 4484TIP3    H213396   0.986   5.371   3.002
 4485TIP3   OH213397   2.552   5.719   3.097
 4485TIP3    H113398   2.622   5.651   3.085
 4485TIP3    H213399   2.576   5.786   3.031
 4486TIP3   OH213400   2.733   5.517   3.102
 4486TIP3    H113401   2.659   5.469   3.144
 4486TIP3    H213402   2.807   5.455   3.122
 4487TIP3   OH213403   2.200   4.751   1.675
 4487TIP3    H113404   2.273   4.718   1.731
 4487TIP3    H213405   2.127   4.690   1.695
 4488TIP3   OH213406   2.259   5.012   2.128
 4488TIP3    H113407   2.301   4.924   2.143
 4488TIP3    H213408   2.317   5.046   2.057
 4489TIP3   OH213409   2.417   5.179   2.629
 4489TIP3    H113410   2.503   5.203   2.586
 4489TIP3    H213411   2.434   5.217   2.717
 4490TIP3   OH213412   2.492   5.328   2.857
 4490TIP3    H113413   2.414   5.362   2.906
 4490TIP3    H213414   2.524   5.409   2.813
 4491TIP3   OH213415   1.109   5.110   3.706
 4491TIP3    H113416   1.203   5.088   3.692
 4491TIP3    H213417   1.073   5.020   3.715
 4492TIP3   OH213418   2.939   4.922   3.413
 4492TIP3    H113419   3.001   4.857   3.372
 4492TIP3    H213420   2.909   4.973   3.334
 4493TIP3   OH213421   2.366   4.762   2.171
 4493TIP3    H113422   2.415   4.744   2.254
 4493TIP3    H213423   2.306   4.685   2.168
 4494TIP3   OH213424   1.068   4.746   2.995
 4494TIP3    H113425   1.129   4.670   3.000
 4494TIP3    H213426   1.131   4.819   2.983
 4495TIP3   OH213427   0.867   5.018   3.064
 4495TIP3    H113428   0.915   5.008   2.979
 4495TIP3    H213429   0.892   5.108   3.088
 4496TIP3   OH213430   2.807   5.055   3.215
 4496TIP3    H113431   2.722   5.098   3.234
 4496TIP3    H213432   2.776   4.981   3.159
 4497TIP3   OH213433   2.443   4.690   1.806
 4497TIP3    H113434   2.484   4.622   1.748
 4497TIP3    H213435   2.509   4.762   1.804
 4498TIP3   OH213436   0.854   4.526   2.568
 4498TIP3    H113437   0.760   4.516   2.591
 4498TIP3    H213438   0.848   4.582   2.487
 4499TIP3   OH213439   2.011   6.229   2.070
 4499TIP3    H113440   2.063   6.217   1.988
 4499TIP3    H213441   2.066   6.292   2.119
 4500TIP3   OH213442   1.074   4.600   3.379
 4500TIP3    H113443   1.022   4.598   3.461
 4500TIP3    H213444   1.010   4.641   3.317
 4501TIP3   OH213445   1.113   6.023   3.456
 4501TIP3    H113446   1.018   6.005   3.441
 4501TIP3    H213447   1.120   6.012   3.552
 4502TIP3   OH213448   1.295   6.066   3.003
 4502TIP3    H113449   1.246   6.142   2.964
 4502TIP3    H213450   1.381   6.082   2.957
 4503TIP3   OH213451   1.731   6.306   3.138
 4503TIP3    H113452   1.773   6.305   3.227
 4503TIP3    H213453   1.797   6.359   3.088
 4504TIP3   OH213454   1.911   6.462   3.003
 4504TIP3    H113455   1.981   6.411   2.959
 4504TIP3    H213456   1.965   6.519   3.063
 4505TIP3   OH213457   2.709   4.818   3.100
 4505TIP3    H113458   2.620   4.807   3.063
 4505TIP3    H213459   2.745   4.726   3.090
 4506TIP3   OH213460   0.967   6.321   3.028
 4506TIP3    H113461   0.876   6.351   3.006
 4506TIP3    H213462   0.980   6.366   3.113
 4507TIP3   OH213463   1.204   6.300   2.887
 4507TIP3    H113464   1.116   6.311   2.931
 4507TIP3    H213465   1.184   6.330   2.797
 4508TIP3   OH213466   1.629   6.324   2.685
 4508TIP3    H113467   1.558   6.341   2.619
 4508TIP3    H213468   1.640   6.412   2.726
 4509TIP3   OH213469   1.898   6.263   2.738
 4509TIP3    H113470   1.804   6.281   2.717
 4509TIP3    H213471   1.943   6.335   2.691
 4510TIP3   OH213472   2.102   6.455   2.647
 4510TIP3    H113473   2.090   6.539   2.599
 4510TIP3    H213474   2.130   6.394   2.575
 4511TIP3   OH213475   0.879   6.114   2.769
 4511TIP3    H113476   0.905   6.084   2.859
 4511TIP3    H213477   0.951   6.070   2.718
 4512TIP3   OH213478   1.075   5.986   2.631
 4512TIP3    H113479   1.089   5.902   2.681
 4512TIP3    H213480   1.166   6.021   2.628
 4513TIP3   OH213481   1.343   6.078   2.636
 4513TIP3    H113482   1.371   5.985   2.625
 4513TIP3    H213483   1.392   6.100   2.718
 4514TIP3   OH213484   1.915   4.735   2.722
 4514TIP3    H113485   1.874   4.661   2.771
 4514TIP3    H213486   1.989   4.691   2.676
 4515TIP3   OH213487   2.432   4.618   2.625
 4515TIP3    H113488   2.470   4.667   2.549
 4515TIP3    H213489   2.337   4.637   2.617
 4516TIP3   OH213490   2.530   4.711   2.388
 4516TIP3    H113491   2.604   4.659   2.349
 4516TIP3    H213492   2.565   4.802   2.374
 4517TIP3   OH213493   1.162   4.443   2.734
 4517TIP3    H113494   1.069   4.411   2.736
 4517TIP3    H213495   1.209   4.356   2.729
 4518TIP3   OH213496   0.962   4.315   2.388
 4518TIP3    H113497   0.984   4.370   2.311
 4518TIP3    H213498   0.927   4.381   2.451
 4519TIP3   OH213499   1.612   4.472   2.617
 4519TIP3    H113500   1.666   4.520   2.550
 4519TIP3    H213501   1.641   4.515   2.699
 4520TIP3   OH213502   2.147   4.624   2.599
 4520TIP3    H113503   2.153   4.583   2.511
 4520TIP3    H213504   2.138   4.544   2.656
 4521TIP3   OH213505   2.184   4.549   2.163
 4521TIP3    H113506   2.098   4.593   2.180
 4521TIP3    H213507   2.169   4.462   2.206
 4522TIP3   OH213508   0.667   5.882   2.161
 4522TIP3    H113509   0.579   5.854   2.130
 4522TIP3    H213510   0.665   5.975   2.129
 4523TIP3   OH213511   1.070   4.468   2.147
 4523TIP3    H113512   1.118   4.407   2.087
 4523TIP3    H213513   1.144   4.523   2.181
 4524TIP3   OH213514   1.577   4.651   2.245
 4524TIP3    H113515   1.638   4.605   2.304
 4524TIP3    H213516   1.598   4.744   2.269
 4525TIP3   OH213517   1.440   6.069   1.742
 4525TIP3    H113518   1.529   6.090   1.707
 4525TIP3    H213519   1.418   5.993   1.683
 4526TIP3   OH213520   2.159   6.194   1.839
 4526TIP3    H113521   2.152   6.096   1.829
 4526TIP3    H213522   2.114   6.224   1.758
 4527TIP3   OH213523   1.369   4.719   3.625
 4527TIP3    H113524   1.336   4.649   3.683
 4527TIP3    H213525   1.464   4.722   3.653
 4528TIP3   OH213526   1.620   4.722   3.744
 4528TIP3    H113527   1.705   4.701   3.703
 4528TIP3    H213528   1.611   4.649   3.809
 4529TIP3   OH213529   0.734   5.892   1.810
 4529TIP3    H113530   0.735   5.919   1.903
 4529TIP3    H213531   0.824   5.853   1.798
 4530TIP3   OH213532   2.448   4.787   3.531
 4530TIP3    H113533   2.466   4.755   3.622
 4530TIP3    H213534   2.537   4.782   3.491
 4531TIP3   OH213535   2.381   6.335   3.025
 4531TIP3    H113536   2.302   6.305   2.973
 4531TIP3    H213537   2.362   6.430   3.031
 4532TIP3   OH213538   3.647   5.710   1.783
 4532TIP3    H113539   3.616   5.800   1.762
 4532TIP3    H213540   3.573   5.658   1.746
 4533TIP3   OH213541   3.656   5.712   2.174
 4533TIP3    H113542   3.686   5.680   2.261
 4533TIP3    H213543   3.611   5.634   2.138
 4534TIP3   OH213544   2.946   5.601   2.540
 4534TIP3    H113545   2.978   5.532   2.601
 4534TIP3    H213546   3.029   5.647   2.518
 4535TIP3   OH213547   3.900   6.014   1.855
 4535TIP3    H113548   3.875   5.946   1.918
 4535TIP3    H213549   3.927   6.088   1.912
 4536TIP3   OH213550   2.924   6.016   2.259
 4536TIP3    H113551   2.915   5.918   2.260
 4536TIP3    H213552   3.020   6.024   2.248
 4537TIP3   OH213553   2.624   5.208   2.046
 4537TIP3    H113554   2.582   5.295   2.058
 4537TIP3    H213555   2.555   5.161   1.996
 4538TIP3   OH213556   2.686   5.503   2.222
 4538TIP3    H113557   2.737   5.424   2.253
 4538TIP3    H213558   2.739   5.531   2.146
 4539TIP3   OH213559   3.550   6.475   1.874
 4539TIP3    H113560   3.589   6.403   1.819
 4539TIP3    H213561   3.535   6.429   1.958
 4540TIP3   OH213562   3.445   5.937   2.222
 4540TIP3    H113563   3.482   5.862   2.173
 4540TIP3    H213564   3.529   5.982   2.246
 4541TIP3   OH213565   4.465   5.253   2.219
 4541TIP3    H113566   4.495   5.337   2.259
 4541TIP3    H213567   4.486   5.269   2.125
 4542TIP3   OH213568   3.863   5.433   2.248
 4542TIP3    H113569   3.904   5.347   2.266
 4542TIP3    H213570   3.827   5.418   2.158
 4543TIP3   OH213571   3.205   5.095   2.213
 4543TIP3    H113572   3.183   5.167   2.150
 4543TIP3    H213573   3.156   5.022   2.171
 4544TIP3   OH213574   3.896   5.189   1.837
 4544TIP3    H113575   3.969   5.174   1.902
 4544TIP3    H213576   3.947   5.223   1.761
 4545TIP3   OH213577   2.832   5.295   2.326
 4545TIP3    H113578   2.917   5.276   2.371
 4545TIP3    H213579   2.846   5.242   2.244
 4546TIP3   OH213580   3.269   5.493   2.129
 4546TIP3    H113581   3.364   5.470   2.134
 4546TIP3    H213582   3.231   5.412   2.088
 4547TIP3   OH213583   4.539   5.465   2.387
 4547TIP3    H113584   4.454   5.509   2.368
 4547TIP3    H213585   4.555   5.494   2.478
 4548TIP3   OH213586   3.196   5.079   2.652
 4548TIP3    H113587   3.138   5.115   2.582
 4548TIP3    H213588   3.141   5.097   2.731
 4549TIP3   OH213589   3.546   5.934   1.654
 4549TIP3    H113590   3.495   5.905   1.577
 4549TIP3    H213591   3.493   6.012   1.682
 4550TIP3   OH213592   3.304   5.855   2.442
 4550TIP3    H113593   3.243   5.924   2.477
 4550TIP3    H213594   3.346   5.901   2.366
 4551TIP3   OH213595   4.101   5.194   2.016
 4551TIP3    H113596   4.083   5.148   2.099
 4551TIP3    H213597   4.151   5.272   2.045
 4552TIP3   OH213598   3.070   5.192   2.433
 4552TIP3    H113599   3.133   5.265   2.456
 4552TIP3    H213600   3.118   5.153   2.356
 4553TIP3   OH213601   3.135   6.053   2.544
 4553TIP3    H113602   3.108   6.139   2.506
 4553TIP3    H213603   3.054   6.034   2.597
 4554TIP3   OH213604   2.519   5.741   1.779
 4554TIP3    H113605   2.484   5.767   1.691
 4554TIP3    H213606   2.555   5.826   1.812
 4555TIP3   OH213607   3.964   6.258   2.020
 4555TIP3    H113608   3.874   6.248   2.059
 4555TIP3    H213609   3.954   6.344   1.973
 4556TIP3   OH213610   4.256   5.155   2.385
 4556TIP3    H113611   4.169   5.178   2.349
 4556TIP3    H213612   4.317   5.186   2.314
 4557TIP3   OH213613   3.548   4.794   2.370
 4557TIP3    H113614   3.531   4.699   2.385
 4557TIP3    H213615   3.471   4.833   2.415
 4558TIP3   OH213616   3.661   6.301   1.689
 4558TIP3    H113617   3.711   6.218   1.672
 4558TIP3    H213618   3.724   6.365   1.649
 4559TIP3   OH213619   3.807   6.086   1.604
 4559TIP3    H113620   3.755   6.010   1.577
 4559TIP3    H213621   3.849   6.052   1.687
 4560TIP3   OH213622   4.189   6.164   2.363
 4560TIP3    H113623   4.175   6.088   2.303
 4560TIP3    H213624   4.170   6.240   2.303
 4561TIP3   OH213625   3.475   5.551   1.624
 4561TIP3    H113626   3.381   5.528   1.612
 4561TIP3    H213627   3.507   5.556   1.533
 4562TIP3   OH213628   3.463   5.363   1.315
 4562TIP3    H113629   3.529   5.405   1.372
 4562TIP3    H213630   3.514   5.288   1.279
 4563TIP3   OH213631   4.384   5.808   2.212
 4563TIP3    H113632   4.299   5.858   2.215
 4563TIP3    H213633   4.414   5.831   2.122
 4564TIP3   OH213634   3.834   5.655   1.592
 4564TIP3    H113635   3.775   5.674   1.669
 4564TIP3    H213636   3.916   5.626   1.638
 4565TIP3   OH213637   4.063   5.679   2.510
 4565TIP3    H113638   4.059   5.766   2.554
 4565TIP3    H213639   3.976   5.679   2.464
 4566TIP3   OH213640   3.059   5.644   2.014
 4566TIP3    H113641   3.006   5.586   1.956
 4566TIP3    H213642   3.134   5.586   2.038
 4567TIP3   OH213643   3.188   6.054   2.155
 4567TIP3    H113644   3.168   6.020   2.066
 4567TIP3    H213645   3.277   6.014   2.171
 4568TIP3   OH213646   3.192   5.611   2.369
 4568TIP3    H113647   3.222   5.582   2.280
 4568TIP3    H213648   3.237   5.697   2.380
 4569TIP3   OH213649   3.724   6.250   2.142
 4569TIP3    H113650   3.710   6.330   2.197
 4569TIP3    H213651   3.706   6.177   2.204
 4570TIP3   OH213652   3.337   6.166   2.691
 4570TIP3    H113653   3.275   6.228   2.735
 4570TIP3    H213654   3.274   6.114   2.638
 4571TIP3   OH213655   3.682   5.498   1.424
 4571TIP3    H113656   3.734   5.565   1.473
 4571TIP3    H213657   3.704   5.521   1.330
 4572TIP3   OH213658   3.094   5.718   2.800
 4572TIP3    H113659   3.096   5.809   2.837
 4572TIP3    H213660   2.998   5.700   2.806
 4573TIP3   OH213661   3.415   6.177   1.698
 4573TIP3    H113662   3.498   6.230   1.701
 4573TIP3    H213663   3.355   6.235   1.648
 4574TIP3   OH213664   3.130   6.331   2.776
 4574TIP3    H113665   3.095   6.336   2.685
 4574TIP3    H213666   3.049   6.311   2.828
 4575TIP3   OH213667   4.184   4.738   1.470
 4575TIP3    H113668   4.102   4.760   1.519
 4575TIP3    H213669   4.199   4.820   1.420
 4576TIP3   OH213670   2.897   5.484   1.856
 4576TIP3    H113671   2.859   5.527   1.777
 4576TIP3    H213672   2.939   5.407   1.813
 4577TIP3   OH213673   3.984   6.107   1.017
 4577TIP3    H113674   3.991   6.204   1.003
 4577TIP3    H213675   4.077   6.079   1.003
 4578TIP3   OH213676   2.707   5.868   2.723
 4578TIP3    H113677   2.640   5.848   2.654
 4578TIP3    H213678   2.746   5.780   2.741
 4579TIP3   OH213679   2.564   6.060   2.353
 4579TIP3    H113680   2.659   6.052   2.342
 4579TIP3    H213681   2.557   6.137   2.411
 4580TIP3   OH213682   4.427   6.516   2.412
 4580TIP3    H113683   4.426   6.420   2.428
 4580TIP3    H213684   4.344   6.541   2.458
 4581TIP3   OH213685   3.532   6.295   2.547
 4581TIP3    H113686   3.528   6.388   2.578
 4581TIP3    H213687   3.460   6.255   2.601
 4582TIP3   OH213688   3.299   6.425   1.497
 4582TIP3    H113689   3.248   6.404   1.416
 4582TIP3    H213690   3.261   6.511   1.524
 4583TIP3   OH213691   2.732   6.272   1.884
 4583TIP3    H113692   2.778   6.263   1.970
 4583TIP3    H213693   2.686   6.187   1.878
 4584TIP3   OH213694   3.494   6.329   1.134
 4584TIP3    H113695   3.552   6.258   1.099
 4584TIP3    H213696   3.529   6.339   1.226
 4585TIP3   OH213697   3.549   6.377   1.403
 4585TIP3    H113698   3.459   6.386   1.444
 4585TIP3    H213699   3.597   6.333   1.475
 4586TIP3   OH213700   4.312   5.641   2.687
 4586TIP3    H113701   4.231   5.650   2.633
 4586TIP3    H213702   4.330   5.545   2.676
 4587TIP3   OH213703   2.913   6.050   2.705
 4587TIP3    H113704   2.961   6.034   2.788
 4587TIP3    H213705   2.838   5.988   2.712
 4588TIP3   OH213706   3.311   4.872   2.499
 4588TIP3    H113707   3.223   4.842   2.467
 4588TIP3    H213708   3.284   4.953   2.546
 4589TIP3   OH213709   3.848   4.989   2.692
 4589TIP3    H113710   3.917   4.958   2.754
 4589TIP3    H213711   3.765   4.967   2.738
 4590TIP3   OH213712   4.082   5.416   2.610
 4590TIP3    H113713   4.030   5.418   2.693
 4590TIP3    H213714   4.060   5.502   2.570
 4591TIP3   OH213715   3.751   5.546   1.169
 4591TIP3    H113716   3.708   5.523   1.084
 4591TIP3    H213717   3.833   5.589   1.138
 4592TIP3   OH213718   3.460   4.914   1.468
 4592TIP3    H113719   3.421   4.915   1.558
 4592TIP3    H213720   3.415   4.835   1.432
 4593TIP3   OH213721   3.247   5.389   2.516
 4593TIP3    H113722   3.193   5.408   2.595
 4593TIP3    H213723   3.229   5.470   2.462
 4594TIP3   OH213724   3.131   5.276   2.026
 4594TIP3    H113725   3.036   5.254   2.040
 4594TIP3    H213726   3.144   5.240   1.936
 4595TIP3   OH213727   3.620   5.365   1.762
 4595TIP3    H113728   3.567   5.434   1.717
 4595TIP3    H213729   3.670   5.327   1.687
 4596TIP3   OH213730   3.796   5.647   2.859
 4596TIP3    H113731   3.770   5.567   2.910
 4596TIP3    H213732   3.893   5.639   2.864
 4597TIP3   OH213733   3.773   5.388   1.992
 4597TIP3    H113734   3.709   5.414   1.922
 4597TIP3    H213735   3.809   5.308   1.947
 4598TIP3   OH213736   3.066   5.417   2.722
 4598TIP3    H113737   3.088   5.481   2.790
 4598TIP3    H213738   3.052   5.335   2.773
 4599TIP3   OH213739   3.108   4.895   1.434
 4599TIP3    H113740   3.101   4.900   1.531
 4599TIP3    H213741   3.038   4.959   1.408
 4600TIP3   OH213742   2.656   4.934   2.309
 4600TIP3    H113743   2.731   4.971   2.360
 4600TIP3    H213744   2.696   4.913   2.223
 4601TIP3   OH213745   2.617   4.916   1.825
 4601TIP3    H113746   2.661   4.951   1.744
 4601TIP3    H213747   2.558   4.992   1.843
 4602TIP3   OH213748   3.792   5.631   2.416
 4602TIP3    H113749   3.822   5.560   2.354
 4602TIP3    H213750   3.756   5.575   2.489
 4603TIP3   OH213751   3.464   5.092   2.091
 4603TIP3    H113752   3.379   5.093   2.140
 4603TIP3    H213753   3.529   5.089   2.162
 4604TIP3   OH213754   2.888   5.154   2.099
 4604TIP3    H113755   2.796   5.162   2.066
 4604TIP3    H213756   2.914   5.065   2.070
 4605TIP3   OH213757   3.163   5.155   1.784
 4605TIP3    H113758   3.253   5.183   1.759
 4605TIP3    H213759   3.113   5.188   1.706
 4606TIP3   OH213760   3.946   5.172   2.295
 4606TIP3    H113761   3.911   5.187   2.386
 4606TIP3    H213762   3.878   5.111   2.260
 4607TIP3   OH213763   3.001   5.163   1.559
 4607TIP3    H113764   2.948   5.145   1.478
 4607TIP3    H213765   3.033   5.255   1.545
 4608TIP3   OH213766   4.123   6.862   2.514
 4608TIP3    H113767   4.121   6.888   2.420
 4608TIP3    H213768   4.201   6.910   2.546
 4609TIP3   OH213769   3.074   5.972   2.929
 4609TIP3    H113770   3.153   6.002   2.978
 4609TIP3    H213771   3.008   5.971   3.002
 4610TIP3   OH213772   3.538   5.428   2.188
 4610TIP3    H113773   3.608   5.387   2.135
 4610TIP3    H213774   3.543   5.379   2.272
 4611TIP3   OH213775   3.057   4.914   2.069
 4611TIP3    H113776   3.023   4.834   2.114
 4611TIP3    H213777   3.087   4.877   1.984
 4612TIP3   OH213778   3.513   5.325   2.474
 4612TIP3    H113779   3.422   5.358   2.487
 4612TIP3    H213780   3.567   5.389   2.524
 4613TIP3   OH213781   3.210   5.743   1.560
 4613TIP3    H113782   3.187   5.647   1.561
 4613TIP3    H213783   3.214   5.759   1.657
 4614TIP3   OH213784   4.148   5.949   2.196
 4614TIP3    H113785   4.170   6.000   2.116
 4614TIP3    H213786   4.063   5.905   2.170
 4615TIP3   OH213787   3.709   5.017   1.445
 4615TIP3    H113788   3.613   4.997   1.448
 4615TIP3    H213789   3.713   5.113   1.464
 4616TIP3   OH213790   3.650   6.034   2.568
 4616TIP3    H113791   3.673   6.020   2.660
 4616TIP3    H213792   3.610   6.123   2.569
 4617TIP3   OH213793   3.776   5.271   1.545
 4617TIP3    H113794   3.872   5.280   1.556
 4617TIP3    H213795   3.752   5.351   1.494
 4618TIP3   OH213796   2.946   5.742   2.245
 4618TIP3    H113797   2.980   5.714   2.158
 4618TIP3    H213798   2.988   5.676   2.303
 4619TIP3   OH213799   3.395   5.862   1.399
 4619TIP3    H113800   3.349   5.949   1.400
 4619TIP3    H213801   3.333   5.808   1.453
 4620TIP3   OH213802   2.827   5.653   2.859
 4620TIP3    H113803   2.840   5.638   2.955
 4620TIP3    H213804   2.756   5.590   2.839
 4621TIP3   OH213805   3.549   5.771   2.882
 4621TIP3    H113806   3.484   5.714   2.837
 4621TIP3    H213807   3.633   5.732   2.850
 4622TIP3   OH213808   3.809   6.292   2.465
 4622TIP3    H113809   3.713   6.291   2.479
 4622TIP3    H213810   3.837   6.345   2.543
 4623TIP3   OH213811   4.218   5.367   1.371
 4623TIP3    H113812   4.157   5.322   1.307
 4623TIP3    H213813   4.212   5.457   1.332
 4624TIP3   OH213814   4.439   6.225   2.452
 4624TIP3    H113815   4.341   6.218   2.443
 4624TIP3    H213816   4.465   6.194   2.362
 4625TIP3   OH213817   3.927   6.182   1.286
 4625TIP3    H113818   3.891   6.115   1.346
 4625TIP3    H213819   3.933   6.134   1.201
 4626TIP3   OH213820   3.916   5.812   2.114
 4626TIP3    H113821   3.822   5.787   2.128
 4626TIP3    H213822   3.948   5.731   2.069
 4627TIP3   OH213823   3.046   6.044   1.879
 4627TIP3    H113824   3.043   6.121   1.820
 4627TIP3    H213825   2.954   6.015   1.878
 4628TIP3   OH213826   2.609   5.342   1.574
 4628TIP3    H113827   2.658   5.423   1.598
 4628TIP3    H213828   2.536   5.345   1.639
 4629TIP3   OH213829   3.190   5.809   1.826
 4629TIP3    H113830   3.148   5.895   1.843
 4629TIP3    H213831   3.146   5.751   1.891
 4630TIP3   OH213832   3.316   6.382   2.339
 4630TIP3    H113833   3.358   6.455   2.289
 4630TIP3    H213834   3.393   6.344   2.385
 4631TIP3   OH213835   2.961   6.281   1.722
 4631TIP3    H113836   2.876   6.288   1.770
 4631TIP3    H213837   2.992   6.374   1.726
 4632TIP3   OH213838   3.698   6.018   2.299
 4632TIP3    H113839   3.689   6.016   2.397
 4632TIP3    H213840   3.774   5.960   2.286
 4633TIP3   OH213841   3.678   5.916   1.181
 4633TIP3    H113842   3.731   5.890   1.260
 4633TIP3    H213843   3.591   5.880   1.205
 4634TIP3   OH213844   3.950   6.547   2.349
 4634TIP3    H113845   3.869   6.492   2.344
 4634TIP3    H213846   3.932   6.612   2.277
 4635TIP3   OH213847   4.015   6.382   1.002
 4635TIP3    H113848   4.043   6.449   0.938
 4635TIP3    H213849   3.936   6.427   1.039
 4636TIP3   OH213850   3.032   5.162   2.864
 4636TIP3    H113851   2.934   5.163   2.874
 4636TIP3    H213852   3.058   5.104   2.937
 4637TIP3   OH213853   3.842   5.846   1.391
 4637TIP3    H113854   3.828   5.784   1.465
 4637TIP3    H213855   3.939   5.840   1.382
 4638TIP3   OH213856   2.751   6.244   2.497
 4638TIP3    H113857   2.807   6.172   2.532
 4638TIP3    H213858   2.780   6.318   2.553
 4639TIP3   OH213859   3.038   5.890   1.185
 4639TIP3    H113860   3.051   5.797   1.158
 4639TIP3    H213861   3.019   5.879   1.280
 4640TIP3   OH213862   2.986   5.891   1.457
 4640TIP3    H113863   3.065   5.849   1.497
 4640TIP3    H213864   3.001   5.986   1.473
 4641TIP3   OH213865   2.716   5.586   1.651
 4641TIP3    H113866   2.654   5.629   1.713
 4641TIP3    H213867   2.732   5.657   1.587
 4642TIP3   OH213868   3.871   5.230   2.558
 4642TIP3    H113869   3.959   5.261   2.586
 4642TIP3    H213870   3.861   5.146   2.608
 4643TIP3   OH213871   3.760   4.968   1.721
 4643TIP3    H113872   3.739   4.988   1.627
 4643TIP3    H213873   3.794   5.054   1.754
 4644TIP3   OH213874   3.258   6.095   1.403
 4644TIP3    H113875   3.170   6.115   1.441
 4644TIP3    H213876   3.266   6.168   1.339
 4645TIP3   OH213877   3.453   5.152   1.820
 4645TIP3    H113878   3.508   5.231   1.802
 4645TIP3    H213879   3.451   5.150   1.918
 4646TIP3   OH213880   3.712   5.470   2.621
 4646TIP3    H113881   3.735   5.511   2.706
 4646TIP3    H213882   3.762   5.386   2.622
 4647TIP3   OH213883   3.581   4.876   1.919
 4647TIP3    H113884   3.560   4.959   1.966
 4647TIP3    H213885   3.645   4.910   1.851
 4648TIP3   OH213886   3.004   6.169   1.474
 4648TIP3    H113887   2.971   6.238   1.412
 4648TIP3    H213888   2.985   6.210   1.561
 4649TIP3   OH213889   3.095   4.887   1.713
 4649TIP3    H113890   3.091   4.983   1.733
 4649TIP3    H213891   3.192   4.874   1.720
 4650TIP3   OH213892   4.349   5.375   2.607
 4650TIP3    H113893   4.250   5.374   2.613
 4650TIP3    H213894   4.359   5.325   2.524
 4651TIP3   OH213895   4.001   5.567   1.994
 4651TIP3    H113896   3.923   5.509   2.003
 4651TIP3    H213897   4.070   5.518   2.043
 4652TIP3   OH213898   2.720   5.793   1.457
 4652TIP3    H113899   2.798   5.851   1.469
 4652TIP3    H213900   2.759   5.730   1.393
 4653TIP3   OH213901   2.644   5.067   1.601
 4653TIP3    H113902   2.664   5.163   1.598
 4653TIP3    H213903   2.570   5.061   1.539
 4654TIP3   OH213904   3.971   6.529   1.941
 4654TIP3    H113905   3.928   6.576   1.866
 4654TIP3    H213906   4.066   6.546   1.919
 4655TIP3   OH213907   3.046   4.793   2.467
 4655TIP3    H113908   3.016   4.760   2.380
 4655TIP3    H213909   3.035   4.714   2.524
 4656TIP3   OH213910   2.585   6.017   1.846
 4656TIP3    H113911   2.519   6.042   1.912
 4656TIP3    H213912   2.547   6.059   1.764
 4657TIP3   OH213913   2.746   6.562   2.921
 4657TIP3    H113914   2.832   6.563   2.969
 4657TIP3    H213915   2.728   6.467   2.920
 4658TIP3   OH213916   3.218   6.512   2.968
 4658TIP3    H113917   3.314   6.499   2.972
 4658TIP3    H213918   3.195   6.450   2.896
 4659TIP3   OH213919   3.203   6.088   1.093
 4659TIP3    H113920   3.145   6.019   1.133
 4659TIP3    H213921   3.279   6.034   1.067
 4660TIP3   OH213922   3.863   6.426   2.700
 4660TIP3    H113923   3.856   6.357   2.770
 4660TIP3    H213924   3.939   6.478   2.730
 4661TIP3   OH213925   3.639   6.130   1.010
 4661TIP3    H113926   3.672   6.061   1.071
 4661TIP3    H213927   3.701   6.123   0.934
 4662TIP3   OH213928   2.872   5.962   3.121
 4662TIP3    H113929   2.888   5.866   3.127
 4662TIP3    H213930   2.785   5.965   3.076
 4663TIP3   OH213931   2.849   5.602   1.314
 4663TIP3    H113932   2.900   5.556   1.383
 4663TIP3    H213933   2.919   5.613   1.246
 4664TIP3   OH213934   3.480   6.049   2.895
 4664TIP3    H113935   3.436   6.073   2.811
 4664TIP3    H213936   3.504   5.955   2.881
 4665TIP3   OH213937   3.371   5.815   1.126
 4665TIP3    H113938   3.368   5.821   1.224
 4665TIP3    H213939   3.370   5.717   1.116
 4666TIP3   OH213940   3.973   6.061   2.507
 4666TIP3    H113941   4.049   6.103   2.461
 4666TIP3    H213942   3.903   6.127   2.489
 4667TIP3   OH213943   2.991   5.701   3.109
 4667TIP3    H113944   3.068   5.652   3.077
 4667TIP3    H213945   3.022   5.732   3.197
 4668TIP3   OH213946   3.333   5.583   2.771
 4668TIP3    H113947   3.251   5.638   2.770
 4668TIP3    H213948   3.379   5.617   2.691
 4669TIP3   OH213949   3.855   5.982   2.897
 4669TIP3    H113950   3.925   5.960   2.833
 4669TIP3    H213951   3.822   5.895   2.923
 4670TIP3   OH213952   3.983   5.639   1.043
 4670TIP3    H113953   3.959   5.594   0.960
 4670TIP3    H213954   3.947   5.729   1.023
 4671TIP3   OH213955   3.454   5.370   2.887
 4671TIP3    H113956   3.452   5.291   2.829
 4671TIP3    H213957   3.408   5.438   2.832
 4672TIP3   OH213958   3.454   5.157   2.701
 4672TIP3    H113959   3.482   5.197   2.616
 4672TIP3    H213960   3.361   5.133   2.682
 4673TIP3   OH213961   3.479   5.694   2.576
 4673TIP3    H113962   3.562   5.704   2.528
 4673TIP3    H213963   3.419   5.756   2.528
 4674TIP3   OH213964   4.068   5.658   2.962
 4674TIP3    H113965   4.107   5.570   2.949
 4674TIP3    H213966   4.130   5.715   2.914
 4675TIP3   OH213967   4.099   5.913   2.692
 4675TIP3    H113968   4.044   5.968   2.631
 4675TIP3    H213969   4.188   5.931   2.654
 4676TIP3   OH213970   3.334   5.472   3.126
 4676TIP3    H113971   3.264   5.405   3.141
 4676TIP3    H213972   3.362   5.450   3.035
 4677TIP3   OH213973   3.586   4.918   2.771
 4677TIP3    H113974   3.536   4.998   2.747
 4677TIP3    H213975   3.518   4.848   2.759
 4678TIP3   OH213976   3.708   5.420   2.982
 4678TIP3    H113977   3.687   5.399   3.076
 4678TIP3    H213978   3.621   5.397   2.943
 4679TIP3   OH213979   3.954   5.391   2.847
 4679TIP3    H113980   3.876   5.375   2.904
 4679TIP3    H213981   4.026   5.348   2.898
 4680TIP3   OH213982   4.178   5.311   2.989
 4680TIP3    H113983   4.194   5.215   3.000
 4680TIP3    H213984   4.181   5.343   3.082
 4681TIP3   OH213985   3.169   5.255   3.180
 4681TIP3    H113986   3.170   5.163   3.146
 4681TIP3    H213987   3.206   5.242   3.269
 4682TIP3   OH213988   3.679   4.929   3.029
 4682TIP3    H113989   3.744   4.856   3.023
 4682TIP3    H213990   3.639   4.924   2.940
 4683TIP3   OH213991   3.749   5.145   3.183
 4683TIP3    H113992   3.728   5.071   3.121
 4683TIP3    H213993   3.669   5.200   3.176
 4684TIP3   OH213994   2.971   6.377   1.287
 4684TIP3    H113995   3.065   6.363   1.266
 4684TIP3    H213996   2.943   6.426   1.207
 4685TIP3   OH213997   2.450   5.755   1.498
 4685TIP3    H113998   2.545   5.775   1.482
 4685TIP3    H213999   2.443   5.665   1.458
 4686TIP3   OH214000   2.363   6.365   1.918
 4686TIP3    H114001   2.299   6.303   1.877
 4686TIP3    H214002   2.408   6.305   1.981
 4687TIP3   OH214003   2.495   6.210   2.104
 4687TIP3    H114004   2.485   6.140   2.170
 4687TIP3    H214005   2.550   6.273   2.154
 4688TIP3   OH214006   4.229   6.611   1.904
 4688TIP3    H114007   4.253   6.643   1.993
 4688TIP3    H214008   4.293   6.658   1.848
 4689TIP3   OH214009   4.255   6.634   2.185
 4689TIP3    H114010   4.208   6.548   2.181
 4689TIP3    H214011   4.327   6.610   2.245
 4690TIP3   OH214012   4.301   6.311   2.758
 4690TIP3    H114013   4.228   6.322   2.823
 4690TIP3    H214014   4.344   6.399   2.762
 4691TIP3   OH214015   4.121   5.823   1.375
 4691TIP3    H114016   4.186   5.890   1.348
 4691TIP3    H214017   4.163   5.785   1.455
 4692TIP3   OH214018   4.247   5.691   1.581
 4692TIP3    H114019   4.178   5.649   1.637
 4692TIP3    H214020   4.308   5.728   1.648
 4693TIP3   OH214021   4.304   6.088   2.013
 4693TIP3    H114022   4.355   6.019   1.967
 4693TIP3    H214023   4.297   6.158   1.945
 4694TIP3   OH214024   4.128   6.386   2.206
 4694TIP3    H114025   4.056   6.428   2.257
 4694TIP3    H214026   4.079   6.340   2.134
 4695TIP3   OH214027   4.182   5.601   1.224
 4695TIP3    H114028   4.110   5.602   1.157
 4695TIP3    H214029   4.153   5.676   1.280
 4696TIP3   OH214030   4.059   5.270   1.172
 4696TIP3    H114031   4.002   5.306   1.103
 4696TIP3    H214032   4.037   5.174   1.165
 4697TIP3   OH214033   4.059   5.551   1.724
 4697TIP3    H114034   4.061   5.454   1.714
 4697TIP3    H214035   4.042   5.561   1.821
 4698TIP3   OH214036   2.681   5.620   2.474
 4698TIP3    H114037   2.679   5.587   2.382
 4698TIP3    H214038   2.779   5.623   2.489
 4699TIP3   OH214039   4.346   5.974   2.586
 4699TIP3    H114040   4.417   5.908   2.573
 4699TIP3    H214041   4.368   6.042   2.520
 4700TIP3   OH214042   4.529   5.774   2.590
 4700TIP3    H114043   4.454   5.725   2.631
 4700TIP3    H214044   4.602   5.711   2.609
 4701TIP3   OH214045   3.998   5.003   1.157
 4701TIP3    H114046   4.063   4.971   1.222
 4701TIP3    H214047   3.917   4.952   1.177
 4702TIP3   OH214048   4.058   5.269   1.618
 4702TIP3    H114049   4.098   5.180   1.633
 4702TIP3    H214050   4.113   5.301   1.545
 4703TIP3   OH214051   4.214   5.434   2.116
 4703TIP3    H114052   4.298   5.459   2.073
 4703TIP3    H214053   4.229   5.473   2.205
 4704TIP3   OH214054   4.288   5.585   2.345
 4704TIP3    H114055   4.209   5.619   2.392
 4704TIP3    H214056   4.320   5.666   2.300
 4705TIP3   OH214057   2.902   5.308   3.148
 4705TIP3    H114058   3.000   5.302   3.152
 4705TIP3    H214059   2.878   5.221   3.185
 4706TIP3   OH214060   4.733   5.178   2.899
 4706TIP3    H114061   4.797   5.114   2.860
 4706TIP3    H214062   4.705   5.229   2.820
 4707TIP3   OH214063   4.165   5.018   1.655
 4707TIP3    H114064   4.210   5.000   1.740
 4707TIP3    H214065   4.102   4.943   1.653
 4708TIP3   OH214066   2.863   5.003   2.484
 4708TIP3    H114067   2.924   4.927   2.487
 4708TIP3    H214068   2.926   5.077   2.469
 4709TIP3   OH214069   2.662   5.274   2.549
 4709TIP3    H114070   2.712   5.268   2.465
 4709TIP3    H214071   2.691   5.360   2.582
 4710TIP3   OH214072   4.603   5.312   2.699
 4710TIP3    H114073   4.516   5.353   2.712
 4710TIP3    H214074   4.576   5.234   2.645
 4711TIP3   OH214075   4.241   4.946   1.296
 4711TIP3    H114076   4.278   4.878   1.235
 4711TIP3    H214077   4.306   5.018   1.289
 4712TIP3   OH214078   2.650   4.776   2.052
 4712TIP3    H114079   2.557   4.771   2.080
 4712TIP3    H214080   2.645   4.835   1.974
 4713TIP3   OH214081   3.809   6.485   1.558
 4713TIP3    H114082   3.861   6.473   1.475
 4713TIP3    H214083   3.863   6.550   1.605
 4714TIP3   OH214084   2.871   4.859   2.866
 4714TIP3    H114085   2.818   4.855   2.947
 4714TIP3    H214086   2.806   4.896   2.803
 4715TIP3   OH214087   2.908   6.289   2.939
 4715TIP3    H114088   2.815   6.265   2.924
 4715TIP3    H214089   2.918   6.271   3.034
 4716TIP3   OH214090   3.090   6.325   2.490
 4716TIP3    H114091   3.043   6.401   2.451
 4716TIP3    H214092   3.176   6.337   2.444
 4717TIP3   OH214093   3.527   6.563   2.624
 4717TIP3    H114094   3.569   6.562   2.713
 4717TIP3    H214095   3.592   6.616   2.574
 4718TIP3   OH214096   3.708   6.719   2.490
 4718TIP3    H114097   3.778   6.668   2.447
 4718TIP3    H214098   3.761   6.775   2.551
 4719TIP3   OH214099   4.506   5.073   2.586
 4719TIP3    H114100   4.416   5.059   2.551
 4719TIP3    H214101   4.543   4.981   2.578
 4720TIP3   OH214102   2.763   6.577   2.515
 4720TIP3    H114103   2.672   6.608   2.493
 4720TIP3    H214104   2.778   6.626   2.597
 4721TIP3   OH214105   3.000   6.557   2.374
 4721TIP3    H114106   2.912   6.568   2.417
 4721TIP3    H214107   2.981   6.587   2.283
 4722TIP3   OH214108   3.424   6.580   2.172
 4722TIP3    H114109   3.355   6.598   2.106
 4722TIP3    H214110   3.435   6.668   2.213
 4723TIP3   OH214111   3.694   6.521   2.225
 4723TIP3    H114112   3.600   6.537   2.204
 4723TIP3    H214113   3.738   6.593   2.178
 4724TIP3   OH214114   3.901   6.712   2.135
 4724TIP3    H114115   3.886   6.796   2.086
 4724TIP3    H214116   3.927   6.652   2.062
 4725TIP3   OH214117   2.674   6.369   2.258
 4725TIP3    H114118   2.701   6.340   2.348
 4725TIP3    H214119   2.746   6.327   2.206
 4726TIP3   OH214120   2.870   6.244   2.119
 4726TIP3    H114121   2.885   6.159   2.167
 4726TIP3    H214122   2.962   6.277   2.114
 4727TIP3   OH214123   3.140   6.334   2.122
 4727TIP3    H114124   3.166   6.241   2.109
 4727TIP3    H214125   3.189   6.354   2.204
 4728TIP3   OH214126   3.719   4.994   2.220
 4728TIP3    H114127   3.671   4.921   2.263
 4728TIP3    H214128   3.784   4.947   2.165
 4729TIP3   OH214129   4.230   4.875   2.110
 4729TIP3    H114130   4.265   4.925   2.034
 4729TIP3    H214131   4.134   4.891   2.102
 4730TIP3   OH214132   4.327   4.969   1.874
 4730TIP3    H114133   4.402   4.918   1.836
 4730TIP3    H214134   4.360   5.061   1.859
 4731TIP3   OH214135   2.958   4.698   2.221
 4731TIP3    H114136   2.865   4.667   2.224
 4731TIP3    H214137   3.005   4.612   2.216
 4732TIP3   OH214138   2.751   4.572   1.871
 4732TIP3    H114139   2.781   4.627   1.797
 4732TIP3    H214140   2.724   4.639   1.937
 4733TIP3   OH214141   3.411   4.727   2.104
 4733TIP3    H114142   3.463   4.776   2.038
 4733TIP3    H214143   3.434   4.773   2.186
 4734TIP3   OH214144   3.948   4.880   2.084
 4734TIP3    H114145   3.944   4.840   1.996
 4734TIP3    H214146   3.937   4.802   2.143
 4735TIP3   OH214147   3.981   4.807   1.650
 4735TIP3    H114148   3.896   4.852   1.668
 4735TIP3    H214149   3.964   4.720   1.693
 4736TIP3   OH214150   2.461   6.148   1.645
 4736TIP3    H114151   2.376   6.113   1.613
 4736TIP3    H214152   2.452   6.241   1.617
 4737TIP3   OH214153   2.867   4.725   1.637
 4737TIP3    H114154   2.915   4.667   1.575
 4737TIP3    H214155   2.938   4.783   1.669
 4738TIP3   OH214156   3.372   4.907   1.731
 4738TIP3    H114157   3.434   4.862   1.791
 4738TIP3    H214158   3.391   5.000   1.754
 4739TIP3   OH214159   3.235   6.324   1.229
 4739TIP3    H114160   3.323   6.347   1.193
 4739TIP3    H214161   3.212   6.249   1.169
 4740TIP3   OH214162   3.958   6.450   1.327
 4740TIP3    H114163   3.951   6.352   1.316
 4740TIP3    H214164   3.910   6.480   1.247
 4741TIP3   OH214165   3.166   4.981   3.115
 4741TIP3    H114166   3.131   4.909   3.171
 4741TIP3    H214167   3.260   4.980   3.142
 4742TIP3   OH214168   3.418   4.979   3.232
 4742TIP3    H114169   3.502   4.950   3.191
 4742TIP3    H214170   3.404   4.908   3.299
 4743TIP3   OH214171   2.540   6.165   1.285
 4743TIP3    H114172   2.545   6.176   1.381
 4743TIP3    H214173   2.626   6.120   1.265
 4744TIP3   OH214174   4.245   5.044   3.018
 4744TIP3    H114175   4.262   5.012   3.109
 4744TIP3    H214176   4.335   5.037   2.978
 4745TIP3   OH214177   4.179   6.592   2.509
 4745TIP3    H114178   4.099   6.562   2.460
 4745TIP3    H214179   4.159   6.687   2.518
 4746TIP3   OH214180   5.455   5.966   1.274
 4746TIP3    H114181   5.426   6.057   1.256
 4746TIP3    H214182   5.378   5.915   1.244
 4747TIP3   OH214183   5.443   5.966   1.667
 4747TIP3    H114184   5.484   5.944   1.753
 4747TIP3    H214185   5.404   5.880   1.643
 4748TIP3   OH214186   4.743   5.856   2.024
 4748TIP3    H114187   4.771   5.786   2.086
 4748TIP3    H214188   4.823   5.911   2.021
 4749TIP3   OH214189   5.691   6.271   1.344
 4749TIP3    H114190   5.679   6.202   1.411
 4749TIP3    H214191   5.722   6.346   1.399
 4750TIP3   OH214192   4.719   6.272   1.743
 4750TIP3    H114193   4.710   6.174   1.744
 4750TIP3    H214194   4.816   6.280   1.745
 4751TIP3   OH214195   4.425   5.473   1.526
 4751TIP3    H114196   4.374   5.553   1.547
 4751TIP3    H214197   4.355   5.419   1.484
 4752TIP3   OH214198   4.481   5.760   1.714
 4752TIP3    H114199   4.531   5.681   1.745
 4752TIP3    H214200   4.537   5.791   1.641
 4753TIP3   OH214201   5.342   6.728   1.355
 4753TIP3    H114202   5.384   6.655   1.306
 4753TIP3    H214203   5.332   6.690   1.444
 4754TIP3   OH214204   5.245   6.192   1.705
 4754TIP3    H114205   5.287   6.112   1.669
 4754TIP3    H214206   5.326   6.240   1.730
 4755TIP3   OH214207   6.260   5.511   1.704
 4755TIP3    H114208   6.291   5.594   1.746
 4755TIP3    H214209   6.285   5.525   1.611
 4756TIP3   OH214210   5.659   5.692   1.734
 4756TIP3    H114211   5.701   5.607   1.757
 4756TIP3    H214212   5.625   5.672   1.645
 4757TIP3   OH214213   5.000   5.352   1.701
 4757TIP3    H114214   4.978   5.424   1.638
 4757TIP3    H214215   4.951   5.278   1.659
 4758TIP3   OH214216   5.693   5.444   1.321
 4758TIP3    H114217   5.763   5.429   1.389
 4758TIP3    H214218   5.748   5.477   1.247
 4759TIP3   OH214219   4.629   5.552   1.811
 4759TIP3    H114220   4.712   5.532   1.859
 4759TIP3    H214221   4.643   5.496   1.731
 4760TIP3   OH214222   5.068   5.751   1.607
 4760TIP3    H114223   5.162   5.726   1.619
 4760TIP3    H214224   5.030   5.666   1.575
 4761TIP3   OH214225   6.335   5.721   1.872
 4761TIP3    H114226   6.248   5.764   1.856
 4761TIP3    H214227   6.350   5.747   1.964
 4762TIP3   OH214228   4.993   5.335   2.138
 4762TIP3    H114229   4.933   5.372   2.070
 4762TIP3    H214230   4.939   5.352   2.219
 4763TIP3   OH214231   5.333   6.185   1.146
 4763TIP3    H114232   5.249   6.139   1.133
 4763TIP3    H214233   5.301   6.277   1.160
 4764TIP3   OH214234   5.099   6.112   1.927
 4764TIP3    H114235   5.039   6.181   1.964
 4764TIP3    H214236   5.142   6.160   1.853
 4765TIP3   OH214237   5.893   5.452   1.503
 4765TIP3    H114238   5.881   5.406   1.587
 4765TIP3    H214239   5.947   5.529   1.530
 4766TIP3   OH214240   4.865   5.449   1.920
 4766TIP3    H114241   4.927   5.522   1.945
 4766TIP3    H214242   4.915   5.409   1.845
 4767TIP3   OH214243   4.929   6.309   2.028
 4767TIP3    H114244   4.903   6.398   1.995
 4767TIP3    H214245   4.850   6.290   2.083
 4768TIP3   OH214246   4.319   5.998   1.265
 4768TIP3    H114247   4.272   6.025   1.185
 4768TIP3    H214248   4.349   6.085   1.301
 4769TIP3   OH214249   5.758   6.514   1.503
 4769TIP3    H114250   5.668   6.505   1.544
 4769TIP3    H214251   5.749   6.601   1.460
 4770TIP3   OH214252   6.054   5.411   1.871
 4770TIP3    H114253   5.967   5.437   1.837
 4770TIP3    H214254   6.115   5.443   1.801
 4771TIP3   OH214255   5.342   5.049   1.853
 4771TIP3    H114256   5.328   4.955   1.875
 4771TIP3    H214257   5.266   5.089   1.901
 4772TIP3   OH214258   5.457   6.553   1.172
 4772TIP3    H114259   5.508   6.470   1.154
 4772TIP3    H214260   5.524   6.618   1.140
 4773TIP3   OH214261   5.605   6.338   1.091
 4773TIP3    H114262   5.557   6.260   1.062
 4773TIP3    H214263   5.645   6.307   1.175
 4774TIP3   OH214264   5.984   6.422   1.850
 4774TIP3    H114265   5.972   6.344   1.791
 4774TIP3    H214266   5.967   6.496   1.788
 4775TIP3   OH214267   5.278   5.822   1.110
 4775TIP3    H114268   5.199   5.870   1.080
 4775TIP3    H214269   5.327   5.809   1.026
 4776TIP3   OH214270   5.238   5.605   0.817
 4776TIP3    H114271   5.306   5.655   0.866
 4776TIP3    H214272   5.295   5.542   0.768
 4777TIP3   OH214273   6.179   6.064   1.698
 4777TIP3    H114274   6.095   6.114   1.701
 4777TIP3    H214275   6.210   6.086   1.607
 4778TIP3   OH214276   5.628   5.898   1.075
 4778TIP3    H114277   5.575   5.921   1.155
 4778TIP3    H214278   5.712   5.872   1.119
 4779TIP3   OH214279   5.858   5.937   1.998
 4779TIP3    H114280   5.855   6.019   2.050
 4779TIP3    H214281   5.772   5.941   1.952
 4780TIP3   OH214282   4.863   5.899   1.491
 4780TIP3    H114283   4.820   5.838   1.427
 4780TIP3    H214284   4.936   5.843   1.526
 4781TIP3   OH214285   4.993   6.313   1.641
 4781TIP3    H114286   4.969   6.269   1.558
 4781TIP3    H214287   5.081   6.275   1.661
 4782TIP3   OH214288   4.994   5.867   1.852
 4782TIP3    H114289   5.026   5.842   1.763
 4782TIP3    H214290   5.037   5.954   1.867
 4783TIP3   OH214291   5.519   6.507   1.628
 4783TIP3    H114292   5.506   6.586   1.683
 4783TIP3    H214293   5.503   6.433   1.690
 4784TIP3   OH214294   5.132   6.425   2.175
 4784TIP3    H114295   5.070   6.485   2.222
 4784TIP3    H214296   5.068   6.371   2.124
 4785TIP3   OH214297   5.458   5.766   0.903
 4785TIP3    H114298   5.522   5.820   0.953
 4785TIP3    H214299   5.483   5.787   0.810
 4786TIP3   OH214300   4.887   5.979   2.281
 4786TIP3    H114301   4.891   6.068   2.321
 4786TIP3    H214302   4.793   5.958   2.294
 4787TIP3   OH214303   5.208   6.431   1.160
 4787TIP3    H114304   5.289   6.483   1.178
 4787TIP3    H214305   5.144   6.501   1.141
 4788TIP3   OH214306   4.925   6.589   2.264
 4788TIP3    H114307   4.889   6.593   2.173
 4788TIP3    H214308   4.845   6.567   2.317
 4789TIP3   OH214309   5.983   4.998   0.955
 4789TIP3    H114310   5.901   5.021   1.003
 4789TIP3    H214311   5.996   5.079   0.901
 4790TIP3   OH214312   4.727   5.742   1.294
 4790TIP3    H114313   4.653   5.782   1.245
 4790TIP3    H214314   4.693   5.653   1.313
 4791TIP3   OH214315   4.504   6.125   2.209
 4791TIP3    H114316   4.435   6.106   2.142
 4791TIP3    H214317   4.541   6.037   2.228
 4792TIP3   OH214318   4.358   6.319   1.837
 4792TIP3    H114319   4.455   6.315   1.834
 4792TIP3    H214320   4.343   6.396   1.894
 4793TIP3   OH214321   6.219   6.770   1.899
 4793TIP3    H114322   6.221   6.674   1.914
 4793TIP3    H214323   6.136   6.794   1.945
 4794TIP3   OH214324   5.327   6.553   2.033
 4794TIP3    H114325   5.323   6.646   2.065
 4794TIP3    H214326   5.256   6.512   2.086
 4795TIP3   OH214327   5.086   6.678   0.994
 4795TIP3    H114328   5.046   6.661   0.907
 4795TIP3    H214329   5.054   6.768   1.015
 4796TIP3   OH214330   4.530   6.529   1.369
 4796TIP3    H114331   4.574   6.521   1.456
 4796TIP3    H214332   4.478   6.447   1.366
 4797TIP3   OH214333   5.310   6.544   0.664
 4797TIP3    H114334   5.404   6.528   0.649
 4797TIP3    H214335   5.314   6.568   0.760
 4798TIP3   OH214336   5.340   6.628   0.922
 4798TIP3    H114337   5.251   6.642   0.959
 4798TIP3    H214338   5.390   6.603   1.001
 4799TIP3   OH214339   6.110   5.898   2.173
 4799TIP3    H114340   6.027   5.905   2.125
 4799TIP3    H214341   6.129   5.802   2.166
 4800TIP3   OH214342   4.709   6.307   2.191
 4800TIP3    H114343   4.757   6.291   2.275
 4800TIP3    H214344   4.634   6.244   2.199
 4801TIP3   OH214345   5.107   5.130   1.985
 4801TIP3    H114346   5.019   5.099   1.955
 4801TIP3    H214347   5.080   5.209   2.035
 4802TIP3   OH214348   5.645   5.243   2.178
 4802TIP3    H114349   5.715   5.215   2.241
 4802TIP3    H214350   5.563   5.223   2.228
 4803TIP3   OH214351   5.877   5.673   2.095
 4803TIP3    H114352   5.827   5.671   2.180
 4803TIP3    H214353   5.854   5.761   2.060
 4804TIP3   OH214354   5.520   5.816   0.639
 4804TIP3    H114355   5.519   5.760   0.561
 4804TIP3    H214356   5.611   5.851   0.631
 4805TIP3   OH214357   5.252   5.180   0.956
 4805TIP3    H114358   5.219   5.176   1.048
 4805TIP3    H214359   5.212   5.098   0.921
 4806TIP3   OH214360   5.041   5.646   2.002
 4806TIP3    H114361   4.989   5.665   2.083
 4806TIP3    H214362   5.024   5.728   1.949
 4807TIP3   OH214363   4.922   5.534   1.514
 4807TIP3    H114364   4.830   5.505   1.535
 4807TIP3    H214365   4.934   5.491   1.427
 4808TIP3   OH214366   5.414   5.618   1.246
 4808TIP3    H114367   5.365   5.689   1.201
 4808TIP3    H214368   5.470   5.583   1.174
 4809TIP3   OH214369   5.589   5.892   2.327
 4809TIP3    H114370   5.566   5.819   2.389
 4809TIP3    H214371   5.683   5.904   2.350
 4810TIP3   OH214372   5.571   5.641   1.479
 4810TIP3    H114373   5.506   5.665   1.410
 4810TIP3    H214374   5.609   5.562   1.435
 4811TIP3   OH214375   4.860   5.673   2.208
 4811TIP3    H114376   4.889   5.735   2.276
 4811TIP3    H214377   4.847   5.590   2.260
 4812TIP3   OH214378   4.910   5.155   0.920
 4812TIP3    H114379   4.898   5.154   1.018
 4812TIP3    H214380   4.831   5.206   0.893
 4813TIP3   OH214381   4.452   5.193   1.791
 4813TIP3    H114382   4.528   5.226   1.844
 4813TIP3    H214383   4.493   5.163   1.709
 4814TIP3   OH214384   4.416   5.175   1.308
 4814TIP3    H114385   4.462   5.213   1.229
 4814TIP3    H214386   4.354   5.249   1.327
 4815TIP3   OH214387   5.580   5.889   1.899
 4815TIP3    H114388   5.614   5.818   1.840
 4815TIP3    H214389   5.550   5.835   1.976
 4816TIP3   OH214390   5.257   5.355   1.574
 4816TIP3    H114391   5.177   5.353   1.630
 4816TIP3    H214392   5.328   5.342   1.640
 4817TIP3   OH214393   4.685   5.412   1.581
 4817TIP3    H114394   4.591   5.419   1.552
 4817TIP3    H214395   4.707   5.319   1.560
 4818TIP3   OH214396   4.948   5.404   1.276
 4818TIP3    H114397   5.042   5.418   1.254
 4818TIP3    H214398   4.901   5.426   1.192
 4819TIP3   OH214399   5.744   5.431   1.779
 4819TIP3    H114400   5.712   5.443   1.872
 4819TIP3    H214401   5.676   5.370   1.745
 4820TIP3   OH214402   4.801   5.443   1.051
 4820TIP3    H114403   4.729   5.396   1.004
 4820TIP3    H214404   4.852   5.479   0.975
 4821TIP3   OH214405   5.918   7.119   1.998
 4821TIP3    H114406   5.910   7.140   1.903
 4821TIP3    H214407   6.001   7.167   2.022
 4822TIP3   OH214408   4.871   6.229   2.416
 4822TIP3    H114409   4.951   6.258   2.465
 4822TIP3    H214410   4.806   6.227   2.488
 4823TIP3   OH214411   5.333   5.687   1.675
 4823TIP3    H114412   5.404   5.642   1.628
 4823TIP3    H214413   5.334   5.641   1.762
 4824TIP3   OH214414   4.851   5.167   1.559
 4824TIP3    H114415   4.813   5.092   1.610
 4824TIP3    H214416   4.898   5.121   1.488
 4825TIP3   OH214417   5.310   5.588   1.954
 4825TIP3    H114418   5.219   5.618   1.975
 4825TIP3    H214419   5.366   5.646   2.009
 4826TIP3   OH214420   5.056   5.991   1.037
 4826TIP3    H114421   4.989   5.920   1.025
 4826TIP3    H214422   5.033   6.018   1.129
 4827TIP3   OH214423   5.944   6.207   1.682
 4827TIP3    H114424   5.969   6.257   1.601
 4827TIP3    H214425   5.860   6.163   1.655
 4828TIP3   OH214426   5.504   5.277   0.929
 4828TIP3    H114427   5.407   5.259   0.936
 4828TIP3    H214428   5.510   5.372   0.949
 4829TIP3   OH214429   5.446   6.290   2.054
 4829TIP3    H114430   5.476   6.269   2.143
 4829TIP3    H214431   5.406   6.378   2.064
 4830TIP3   OH214432   5.571   5.532   1.029
 4830TIP3    H114433   5.668   5.531   1.043
 4830TIP3    H214434   5.559   5.610   0.972
 4831TIP3   OH214435   4.745   5.997   1.729
 4831TIP3    H114436   4.783   5.964   1.645
 4831TIP3    H214437   4.783   5.935   1.794
 4832TIP3   OH214438   4.624   5.910   2.346
 4832TIP3    H114439   4.638   5.894   2.441
 4832TIP3    H214440   4.552   5.846   2.327
 4833TIP3   OH214441   5.349   6.030   2.365
 4833TIP3    H114442   5.287   5.969   2.323
 4833TIP3    H214443   5.435   5.992   2.337
 4834TIP3   OH214444   5.604   6.554   1.950
 4834TIP3    H114445   5.508   6.548   1.965
 4834TIP3    H214446   5.631   6.603   2.030
 4835TIP3   OH214447   6.007   5.619   0.863
 4835TIP3    H114448   5.947   5.578   0.796
 4835TIP3    H214449   6.006   5.710   0.826
 4836TIP3   OH214450   6.235   6.484   1.938
 4836TIP3    H114451   6.137   6.474   1.930
 4836TIP3    H214452   6.261   6.451   1.849
 4837TIP3   OH214453   5.746   6.432   0.755
 4837TIP3    H114454   5.709   6.385   0.832
 4837TIP3    H214455   5.689   6.401   0.683
 4838TIP3   OH214456   5.711   6.071   1.594
 4838TIP3    H114457   5.618   6.045   1.611
 4838TIP3    H214458   5.745   5.988   1.554
 4839TIP3   OH214459   4.839   6.294   1.348
 4839TIP3    H114460   4.831   6.379   1.300
 4839TIP3    H214461   4.748   6.281   1.379
 4840TIP3   OH214462   4.406   5.599   1.067
 4840TIP3    H114463   4.449   5.685   1.090
 4840TIP3    H214464   4.328   5.602   1.126
 4841TIP3   OH214465   4.977   6.063   1.287
 4841TIP3    H114466   4.938   6.149   1.312
 4841TIP3    H214467   4.947   6.007   1.362
 4842TIP3   OH214468   5.113   6.639   1.826
 4842TIP3    H114469   5.155   6.712   1.776
 4842TIP3    H214470   5.189   6.602   1.873
 4843TIP3   OH214471   4.761   6.535   1.212
 4843TIP3    H114472   4.675   6.545   1.257
 4843TIP3    H214473   4.794   6.628   1.214
 4844TIP3   OH214474   5.495   6.276   1.787
 4844TIP3    H114475   5.483   6.274   1.884
 4844TIP3    H214476   5.574   6.220   1.777
 4845TIP3   OH214477   5.450   6.153   0.684
 4845TIP3    H114478   5.522   6.147   0.751
 4845TIP3    H214479   5.409   6.066   0.694
 4846TIP3   OH214480   5.745   6.805   1.837
 4846TIP3    H114481   5.666   6.747   1.834
 4846TIP3    H214482   5.727   6.867   1.763
 4847TIP3   OH214483   4.829   5.418   2.350
 4847TIP3    H114484   4.732   5.419   2.361
 4847TIP3    H214485   4.856   5.362   2.424
 4848TIP3   OH214486   5.636   6.094   0.879
 4848TIP3    H114487   5.628   6.031   0.954
 4848TIP3    H214488   5.733   6.095   0.869
 4849TIP3   OH214489   4.550   6.500   1.983
 4849TIP3    H114490   4.603   6.429   2.023
 4849TIP3    H214491   4.571   6.574   2.041
 4850TIP3   OH214492   4.866   6.111   0.677
 4850TIP3    H114493   4.863   6.021   0.637
 4850TIP3    H214494   4.793   6.106   0.740
 4851TIP3   OH214495   4.827   6.163   0.951
 4851TIP3    H114496   4.809   6.130   1.040
 4851TIP3    H214497   4.796   6.258   0.959
 4852TIP3   OH214498   4.515   5.845   1.147
 4852TIP3    H114499   4.447   5.887   1.205
 4852TIP3    H214500   4.524   5.915   1.079
 4853TIP3   OH214501   5.671   5.481   2.040
 4853TIP3    H114502   5.752   5.519   2.076
 4853TIP3    H214503   5.659   5.400   2.094
 4854TIP3   OH214504   5.552   5.228   1.208
 4854TIP3    H114505   5.540   5.250   1.113
 4854TIP3    H214506   5.593   5.310   1.243
 4855TIP3   OH214507   5.232   5.416   1.306
 4855TIP3    H114508   5.298   5.488   1.290
 4855TIP3    H214509   5.240   5.405   1.403
 4856TIP3   OH214510   5.510   5.729   2.108
 4856TIP3    H114511   5.534   5.778   2.189
 4856TIP3    H214512   5.561   5.646   2.118
 4857TIP3   OH214513   5.379   5.131   1.404
 4857TIP3    H114514   5.378   5.207   1.465
 4857TIP3    H214515   5.442   5.165   1.336
 4858TIP3   OH214516   4.774   6.423   0.960
 4858TIP3    H114517   4.756   6.495   0.896
 4858TIP3    H214518   4.770   6.470   1.046
 4859TIP3   OH214519   4.894   5.139   1.195
 4859TIP3    H114520   4.890   5.228   1.236
 4859TIP3    H214521   4.990   5.123   1.203
 4860TIP3   OH214522   6.144   5.632   2.092
 4860TIP3    H114523   6.046   5.631   2.100
 4860TIP3    H214524   6.154   5.578   2.012
 4861TIP3   OH214525   5.797   5.825   1.480
 4861TIP3    H114526   5.721   5.765   1.493
 4861TIP3    H214527   5.868   5.778   1.528
 4862TIP3   OH214528   4.512   6.050   0.953
 4862TIP3    H114529   4.543   6.140   0.934
 4862TIP3    H214530   4.563   5.997   0.888
 4863TIP3   OH214531   4.452   5.328   1.081
 4863TIP3    H114532   4.451   5.426   1.081
 4863TIP3    H214533   4.368   5.307   1.040
 4864TIP3   OH214534   5.767   6.785   1.427
 4864TIP3    H114535   5.723   6.832   1.353
 4864TIP3    H214536   5.861   6.803   1.406
 4865TIP3   OH214537   4.843   5.049   1.954
 4865TIP3    H114538   4.813   5.014   1.867
 4865TIP3    H214539   4.832   4.971   2.012
 4866TIP3   OH214540   4.376   6.269   1.332
 4866TIP3    H114541   4.316   6.297   1.403
 4866TIP3    H214542   4.337   6.314   1.253
 4867TIP3   OH214543   4.542   6.820   2.406
 4867TIP3    H114544   4.627   6.820   2.455
 4867TIP3    H214545   4.520   6.726   2.408
 4868TIP3   OH214546   5.019   6.769   2.453
 4868TIP3    H114547   5.113   6.746   2.457
 4868TIP3    H214548   4.989   6.709   2.382
 4869TIP3   OH214549   5.030   6.324   0.644
 4869TIP3    H114550   4.954   6.266   0.617
 4869TIP3    H214551   5.071   6.343   0.558
 4870TIP3   OH214552   5.657   6.683   2.188
 4870TIP3    H114553   5.651   6.611   2.256
 4870TIP3    H214554   5.735   6.733   2.219
 4871TIP3   OH214555   4.669   6.218   2.608
 4871TIP3    H114556   4.684   6.122   2.614
 4871TIP3    H214557   4.582   6.221   2.563
 4872TIP3   OH214558   4.658   5.876   0.804
 4872TIP3    H114559   4.704   5.830   0.876
 4872TIP3    H214560   4.724   5.868   0.733
 4873TIP3   OH214561   5.277   6.306   2.382
 4873TIP3    H114562   5.234   6.326   2.296
 4873TIP3    H214563   5.307   6.214   2.371
 4874TIP3   OH214564   5.768   6.318   1.991
 4874TIP3    H114565   5.845   6.360   1.947
 4874TIP3    H214566   5.699   6.384   1.973
 4875TIP3   OH214567   4.790   5.955   2.594
 4875TIP3    H114568   4.868   5.906   2.565
 4875TIP3    H214569   4.819   5.988   2.682
 4876TIP3   OH214570   4.867   5.783   1.024
 4876TIP3    H114571   4.833   5.747   1.108
 4876TIP3    H214572   4.899   5.702   0.978
 4877TIP3   OH214573   5.124   5.837   2.255
 4877TIP3    H114574   5.045   5.896   2.254
 4877TIP3    H214575   5.175   5.871   2.177
 4878TIP3   OH214576   4.958   5.572   0.867
 4878TIP3    H114577   4.932   5.574   0.772
 4878TIP3    H214578   5.056   5.570   0.858
 4879TIP3   OH214579   5.643   6.239   2.384
 4879TIP3    H114580   5.719   6.203   2.336
 4879TIP3    H214581   5.635   6.175   2.458
 4880TIP3   OH214582   5.775   5.857   0.535
 4880TIP3    H114583   5.802   5.793   0.467
 4880TIP3    H214584   5.775   5.941   0.484
 4881TIP3   OH214585   5.247   5.627   2.377
 4881TIP3    H114586   5.248   5.548   2.319
 4881TIP3    H214587   5.203   5.694   2.321
 4882TIP3   OH214588   5.250   5.415   2.186
 4882TIP3    H114589   5.279   5.452   2.100
 4882TIP3    H214590   5.157   5.390   2.167
 4883TIP3   OH214591   5.272   5.946   2.060
 4883TIP3    H114592   5.358   5.957   2.018
 4883TIP3    H214593   5.216   6.011   2.012
 4884TIP3   OH214594   5.855   5.911   2.437
 4884TIP3    H114595   5.899   5.826   2.454
 4884TIP3    H214596   5.928   5.963   2.400
 4885TIP3   OH214597   5.897   6.168   2.176
 4885TIP3    H114598   5.840   6.224   2.117
 4885TIP3    H214599   5.986   6.188   2.137
 4886TIP3   OH214600   5.126   5.731   2.612
 4886TIP3    H114601   5.059   5.661   2.628
 4886TIP3    H214602   5.159   5.705   2.524
 4887TIP3   OH214603   5.382   5.174   2.256
 4887TIP3    H114604   5.331   5.255   2.233
 4887TIP3    H214605   5.313   5.104   2.246
 4888TIP3   OH214606   5.507   5.676   2.470
 4888TIP3    H114607   5.493   5.658   2.565
 4888TIP3    H214608   5.417   5.652   2.438
 4889TIP3   OH214609   5.746   5.630   2.327
 4889TIP3    H114610   5.672   5.628   2.390
 4889TIP3    H214611   5.821   5.598   2.382
 4890TIP3   OH214612   5.975   5.570   2.474
 4890TIP3    H114613   5.990   5.474   2.488
 4890TIP3    H214614   5.972   5.605   2.565
 4891TIP3   OH214615   4.965   5.511   2.668
 4891TIP3    H114616   4.968   5.419   2.635
 4891TIP3    H214617   5.005   5.499   2.757
 4892TIP3   OH214618   5.474   5.185   2.514
 4892TIP3    H114619   5.540   5.113   2.510
 4892TIP3    H214620   5.435   5.179   2.425
 4893TIP3   OH214621   5.544   5.402   2.667
 4893TIP3    H114622   5.522   5.328   2.606
 4893TIP3    H214623   5.463   5.457   2.662
 4894TIP3   OH214624   4.762   6.617   0.761
 4894TIP3    H114625   4.858   6.622   0.749
 4894TIP3    H214626   4.733   6.670   0.684
 4895TIP3   OH214627   4.242   6.011   0.981
 4895TIP3    H114628   4.339   6.026   0.972
 4895TIP3    H214629   4.234   5.922   0.941
 4896TIP3   OH214630   4.162   6.621   1.404
 4896TIP3    H114631   4.095   6.560   1.364
 4896TIP3    H214632   4.205   6.560   1.467
 4897TIP3   OH214633   4.295   6.464   1.588
 4897TIP3    H114634   4.281   6.396   1.657
 4897TIP3    H214635   4.347   6.529   1.640
 4898TIP3   OH214636   6.024   6.870   1.390
 4898TIP3    H114637   6.048   6.899   1.480
 4898TIP3    H214638   6.090   6.915   1.335
 4899TIP3   OH214639   6.051   6.890   1.672
 4899TIP3    H114640   6.004   6.804   1.668
 4899TIP3    H214641   6.125   6.864   1.728
 4900TIP3   OH214642   6.095   6.571   2.243
 4900TIP3    H114643   6.025   6.579   2.311
 4900TIP3    H214644   6.140   6.657   2.250
 4901TIP3   OH214645   5.913   6.079   0.870
 4901TIP3    H114646   5.986   6.139   0.847
 4901TIP3    H214647   5.951   6.035   0.950
 4902TIP3   OH214648   6.041   5.948   1.070
 4902TIP3    H114649   5.976   5.905   1.130
 4902TIP3    H214650   6.108   5.982   1.133
 4903TIP3   OH214651   6.098   6.344   1.496
 4903TIP3    H114652   6.153   6.275   1.454
 4903TIP3    H214653   6.093   6.412   1.427
 4904TIP3   OH214654   5.923   6.643   1.690
 4904TIP3    H114655   5.850   6.682   1.742
 4904TIP3    H214656   5.874   6.596   1.619
 4905TIP3   OH214657   5.977   5.854   0.722
 4905TIP3    H114658   5.900   5.841   0.662
 4905TIP3    H214659   5.946   5.932   0.772
 4906TIP3   OH214660   5.849   5.546   0.655
 4906TIP3    H114661   5.835   5.558   0.559
 4906TIP3    H214662   5.814   5.454   0.668
 4907TIP3   OH214663   5.852   5.806   1.211
 4907TIP3    H114664   5.861   5.710   1.202
 4907TIP3    H214665   5.837   5.818   1.308
 4908TIP3   OH214666   4.478   5.878   1.963
 4908TIP3    H114667   4.474   5.843   1.871
 4908TIP3    H214668   4.575   5.879   1.977
 4909TIP3   OH214669   6.145   6.232   2.071
 4909TIP3    H114670   6.214   6.163   2.060
 4909TIP3    H214671   6.171   6.298   2.004
 4910TIP3   OH214672   6.326   6.031   2.076
 4910TIP3    H114673   6.252   5.981   2.117
 4910TIP3    H214674   6.399   5.968   2.095
 4911TIP3   OH214675   5.769   5.291   0.692
 4911TIP3    H114676   5.856   5.248   0.701
 4911TIP3    H214677   5.708   5.215   0.690
 4912TIP3   OH214678   5.851   5.524   1.100
 4912TIP3    H114679   5.891   5.435   1.117
 4912TIP3    H214680   5.908   5.554   1.027
 4913TIP3   OH214681   6.009   5.693   1.601
 4913TIP3    H114682   6.095   5.717   1.559
 4913TIP3    H214683   6.025   5.730   1.690
 4914TIP3   OH214684   6.083   5.840   1.830
 4914TIP3    H114685   6.006   5.874   1.881
 4914TIP3    H214686   6.116   5.922   1.787
 4915TIP3   OH214687   4.699   5.565   2.637
 4915TIP3    H114688   4.797   5.559   2.641
 4915TIP3    H214689   4.675   5.477   2.672
 4916TIP3   OH214690   6.530   5.435   2.386
 4916TIP3    H114691   6.593   5.370   2.347
 4916TIP3    H214692   6.503   5.486   2.307
 4917TIP3   OH214693   5.956   5.275   1.146
 4917TIP3    H114694   6.005   5.257   1.229
 4917TIP3    H214695   5.896   5.197   1.143
 4918TIP3   OH214696   4.660   5.258   1.963
 4918TIP3    H114697   4.721   5.182   1.972
 4918TIP3    H214698   4.723   5.332   1.955
 4919TIP3   OH214699   4.459   5.530   2.036
 4919TIP3    H114700   4.508   5.526   1.952
 4919TIP3    H214701   4.487   5.615   2.071
 4920TIP3   OH214702   6.400   5.569   2.186
 4920TIP3    H114703   6.314   5.610   2.206
 4920TIP3    H214704   6.370   5.493   2.133
 4921TIP3   OH214705   6.035   5.202   0.775
 4921TIP3    H114706   6.067   5.132   0.713
 4921TIP3    H214707   6.106   5.268   0.770
 4922TIP3   OH214708   4.446   5.035   1.538
 4922TIP3    H114709   4.353   5.028   1.566
 4922TIP3    H214710   4.438   5.093   1.459
 4923TIP3   OH214711   5.616   6.733   1.050
 4923TIP3    H114712   5.657   6.730   0.961
 4923TIP3    H214713   5.658   6.810   1.089
 4924TIP3   OH214714   4.667   5.116   2.353
 4924TIP3    H114715   4.614   5.109   2.434
 4924TIP3    H214716   4.600   5.153   2.291
 4925TIP3   OH214717   4.705   6.544   2.427
 4925TIP3    H114718   4.611   6.523   2.412
 4925TIP3    H214719   4.714   6.526   2.522
 4926TIP3   OH214720   4.887   6.580   1.977
 4926TIP3    H114721   4.838   6.655   1.938
 4926TIP3    H214722   4.972   6.594   1.931
 4927TIP3   OH214723   5.324   6.819   2.114
 4927TIP3    H114724   5.366   6.818   2.202
 4927TIP3    H214725   5.390   6.871   2.063
 4928TIP3   OH214726   5.504   6.974   1.976
 4928TIP3    H114727   5.573   6.923   1.933
 4928TIP3    H214728   5.557   7.031   2.036
 4929TIP3   OH214729   6.303   5.329   2.073
 4929TIP3    H114730   6.212   5.314   2.040
 4929TIP3    H214731   6.340   5.238   2.065
 4930TIP3   OH214732   4.560   6.834   2.002
 4930TIP3    H114733   4.469   6.864   1.979
 4930TIP3    H214734   4.572   6.879   2.086
 4931TIP3   OH214735   4.796   6.813   1.861
 4931TIP3    H114736   4.708   6.824   1.904
 4931TIP3    H214737   4.776   6.844   1.770
 4932TIP3   OH214738   5.222   6.838   1.657
 4932TIP3    H114739   5.150   6.854   1.593
 4932TIP3    H214740   5.232   6.926   1.698
 4933TIP3   OH214741   5.491   6.778   1.710
 4933TIP3    H114742   5.396   6.795   1.690
 4933TIP3    H214743   5.534   6.851   1.664
 4934TIP3   OH214744   5.697   6.968   1.621
 4934TIP3    H114745   5.682   7.052   1.573
 4934TIP3    H214746   5.722   6.908   1.548
 4935TIP3   OH214747   4.472   6.626   1.743
 4935TIP3    H114748   4.497   6.596   1.833
 4935TIP3    H214749   4.544   6.583   1.692
 4936TIP3   OH214750   4.667   6.499   1.604
 4936TIP3    H114751   4.681   6.416   1.654
 4936TIP3    H214752   4.759   6.534   1.602
 4937TIP3   OH214753   4.936   6.588   1.611
 4937TIP3    H114754   4.964   6.495   1.604
 4937TIP3    H214755   4.984   6.613   1.692
 4938TIP3   OH214756   5.501   5.244   1.688
 4938TIP3    H114757   5.464   5.173   1.743
 4938TIP3    H214758   5.579   5.201   1.648
 4939TIP3   OH214759   6.025   5.131   1.596
 4939TIP3    H114760   6.062   5.181   1.520
 4939TIP3    H214761   5.930   5.150   1.589
 4940TIP3   OH214762   6.122   5.230   1.361
 4940TIP3    H114763   6.196   5.177   1.324
 4940TIP3    H214764   6.157   5.321   1.346
 4941TIP3   OH214765   4.755   4.954   1.707
 4941TIP3    H114766   4.662   4.922   1.711
 4941TIP3    H214767   4.803   4.869   1.703
 4942TIP3   OH214768   4.548   4.829   1.360
 4942TIP3    H114769   4.573   4.887   1.286
 4942TIP3    H214770   4.518   4.894   1.427
 4943TIP3   OH214771   5.202   4.988   1.590
 4943TIP3    H114772   5.258   5.035   1.526
 4943TIP3    H214773   5.232   5.024   1.675
 4944TIP3   OH214774   5.739   5.136   1.572
 4944TIP3    H114775   5.748   5.093   1.486
 4944TIP3    H214776   5.730   5.058   1.632
 4945TIP3   OH214777   5.776   5.062   1.136
 4945TIP3    H114778   5.690   5.104   1.155
 4945TIP3    H214779   5.763   4.975   1.180
 4946TIP3   OH214780   4.260   6.404   1.129
 4946TIP3    H114781   4.172   6.372   1.100
 4946TIP3    H214782   4.251   6.497   1.100
 4947TIP3   OH214783   4.663   4.986   1.118
 4947TIP3    H114784   4.710   4.923   1.061
 4947TIP3    H214785   4.737   5.039   1.154
 4948TIP3   OH214786   5.171   5.165   1.219
 4948TIP3    H114787   5.230   5.118   1.280
 4948TIP3    H214788   5.192   5.258   1.244
 4949TIP3   OH214789   5.035   6.593   0.726
 4949TIP3    H114790   5.124   6.609   0.689
 4949TIP3    H214791   5.023   6.500   0.701
 4950TIP3   OH214792   5.756   6.705   0.809
 4950TIP3    H114793   5.746   6.611   0.784
 4950TIP3    H214794   5.752   6.750   0.722
 4951TIP3   OH214795   4.962   5.237   2.601
 4951TIP3    H114796   4.928   5.165   2.657
 4951TIP3    H214797   5.057   5.236   2.629
 4952TIP3   OH214798   5.213   5.234   2.718
 4952TIP3    H114799   5.299   5.208   2.680
 4952TIP3    H214800   5.201   5.164   2.786
 4953TIP3   OH214801   4.332   6.414   0.777
 4953TIP3    H114802   4.332   6.442   0.870
 4953TIP3    H214803   4.421   6.372   0.767
 4954TIP3   OH214804   6.040   5.301   2.505
 4954TIP3    H114805   6.057   5.269   2.597
 4954TIP3    H214806   6.130   5.294   2.466
 4955TIP3   OH214807   5.971   6.848   2.000
 4955TIP3    H114808   5.894   6.817   1.948
 4955TIP3    H214809   5.951   6.943   2.005
 4956TIP3   OH214810   7.224   6.210   1.155
 4956TIP3    H114811   7.272   6.201   1.240
 4956TIP3    H214812   7.185   6.121   1.147
 4957TIP3   OH214813   6.537   6.113   1.514
 4957TIP3    H114814   6.566   6.043   1.576
 4957TIP3    H214815   6.618   6.166   1.508
 4958TIP3   OH214816   6.514   6.525   1.230
 4958TIP3    H114817   6.507   6.427   1.233
 4958TIP3    H214818   6.611   6.535   1.230
 4959TIP3   OH214819   6.221   5.730   1.008
 4959TIP3    H114820   6.170   5.810   1.031
 4959TIP3    H214821   6.150   5.673   0.974
 4960TIP3   OH214822   6.277   6.015   1.197
 4960TIP3    H114823   6.325   5.936   1.231
 4960TIP3    H214824   6.342   6.053   1.137
 4961TIP3   OH214825   7.039   6.447   1.192
 4961TIP3    H114826   7.083   6.368   1.156
 4961TIP3    H214827   7.119   6.498   1.216
 4962TIP3   OH214828   8.040   5.779   1.193
 4962TIP3    H114829   8.079   5.851   1.245
 4962TIP3    H214830   8.078   5.793   1.106
 4963TIP3   OH214831   7.455   5.950   1.236
 4963TIP3    H114832   7.498   5.864   1.254
 4963TIP3    H214833   7.423   5.935   1.145
 4964TIP3   OH214834   6.796   5.608   1.188
 4964TIP3    H114835   6.775   5.679   1.124
 4964TIP3    H214836   6.748   5.533   1.147
 4965TIP3   OH214837   7.457   5.703   0.843
 4965TIP3    H114838   7.540   5.686   0.893
 4965TIP3    H214839   7.493   5.713   0.752
 4966TIP3   OH214840   6.426   5.809   1.296
 4966TIP3    H114841   6.508   5.790   1.345
 4966TIP3    H214842   6.439   5.753   1.217
 4967TIP3   OH214843   6.863   6.005   1.096
 4967TIP3    H114844   6.957   5.981   1.109
 4967TIP3    H214845   6.826   5.921   1.062
 4968TIP3   OH214846   6.789   5.592   1.624
 4968TIP3    H114847   6.728   5.628   1.557
 4968TIP3    H214848   6.736   5.607   1.706
 4969TIP3   OH214849   6.894   6.369   1.414
 4969TIP3    H114850   6.836   6.438   1.451
 4969TIP3    H214851   6.939   6.416   1.341
 4970TIP3   OH214852   7.693   5.706   0.985
 4970TIP3    H114853   7.680   5.658   1.068
 4970TIP3    H214854   7.736   5.788   1.016
 4971TIP3   OH214855   6.661   5.706   1.406
 4971TIP3    H114856   6.723   5.779   1.432
 4971TIP3    H214857   6.712   5.666   1.333
 4972TIP3   OH214858   6.724   6.566   1.516
 4972TIP3    H114859   6.700   6.654   1.481
 4972TIP3    H214860   6.644   6.548   1.571
 4973TIP3   OH214861   6.110   6.244   0.756
 4973TIP3    H114862   6.027   6.275   0.720
 4973TIP3    H214863   6.146   6.328   0.794
 4974TIP3   OH214864   7.850   5.658   1.359
 4974TIP3    H114865   7.763   5.694   1.333
 4974TIP3    H214866   7.909   5.697   1.291
 4975TIP3   OH214867   7.136   5.305   1.338
 4975TIP3    H114868   7.126   5.211   1.363
 4975TIP3    H214869   7.061   5.344   1.387
 4976TIP3   OH214870   8.015   6.299   1.218
 4976TIP3    H114871   7.921   6.325   1.224
 4976TIP3    H214872   8.035   6.337   1.132
 4977TIP3   OH214873   7.653   6.190   1.488
 4977TIP3    H114874   7.648   6.270   1.543
 4977TIP3    H214875   7.569   6.197   1.439
 4978TIP3   OH214876   6.659   6.156   0.989
 4978TIP3    H114877   6.614   6.094   0.927
 4978TIP3    H214878   6.734   6.100   1.020
 4979TIP3   OH214879   6.783   6.565   1.143
 4979TIP3    H114880   6.760   6.539   1.052
 4979TIP3    H214881   6.873   6.528   1.154
 4980TIP3   OH214882   6.783   6.127   1.338
 4980TIP3    H114883   6.820   6.100   1.251
 4980TIP3    H214884   6.831   6.211   1.356
 4981TIP3   OH214885   7.279   6.744   1.094
 4981TIP3    H114886   7.302   6.826   1.141
 4981TIP3    H214887   7.289   6.675   1.162
 4982TIP3   OH214888   6.928   6.679   1.665
 4982TIP3    H114889   6.867   6.740   1.711
 4982TIP3    H214890   6.865   6.626   1.613
 4983TIP3   OH214891   6.684   6.237   1.767
 4983TIP3    H114892   6.688   6.325   1.808
 4983TIP3    H214893   6.589   6.215   1.781
 4984TIP3   OH214894   6.720   6.845   1.748
 4984TIP3    H114895   6.687   6.848   1.656
 4984TIP3    H214896   6.639   6.826   1.799
 4985TIP3   OH214897   6.513   5.993   0.821
 4985TIP3    H114898   6.449   6.030   0.757
 4985TIP3    H214899   6.481   5.903   0.832
 4986TIP3   OH214900   6.300   6.381   1.696
 4986TIP3    H114901   6.233   6.358   1.629
 4986TIP3    H214902   6.339   6.294   1.720
 4987TIP3   OH214903   6.156   6.577   1.318
 4987TIP3    H114904   6.252   6.566   1.319
 4987TIP3    H214905   6.146   6.650   1.382
 4988TIP3   OH214906   7.114   6.815   1.514
 4988TIP3    H114907   7.115   6.908   1.546
 4988TIP3    H214908   7.048   6.774   1.574
 4989TIP3   OH214909   6.298   6.770   0.872
 4989TIP3    H114910   6.371   6.773   0.938
 4989TIP3    H214911   6.222   6.758   0.935
 4990TIP3   OH214912   7.921   6.170   1.665
 4990TIP3    H114913   7.847   6.179   1.604
 4990TIP3    H214914   7.951   6.079   1.645
 4991TIP3   OH214915   6.503   6.565   1.680
 4991TIP3    H114916   6.554   6.548   1.761
 4991TIP3    H214917   6.430   6.500   1.688
 4992TIP3   OH214918   6.903   5.386   1.471
 4992TIP3    H114919   6.815   5.355   1.441
 4992TIP3    H214920   6.875   5.465   1.523
 4993TIP3   OH214921   7.442   5.500   1.666
 4993TIP3    H114922   7.513   5.472   1.728
 4993TIP3    H214923   7.360   5.480   1.716
 4994TIP3   OH214924   7.667   5.923   1.577
 4994TIP3    H114925   7.624   5.923   1.665
 4994TIP3    H214926   7.655   6.016   1.547
 4995TIP3   OH214927   6.836   5.904   1.487
 4995TIP3    H114928   6.787   5.924   1.570
 4995TIP3    H214929   6.818   5.986   1.435
 4996TIP3   OH214930   6.719   5.786   0.998
 4996TIP3    H114931   6.627   5.759   1.022
 4996TIP3    H214932   6.722   5.752   0.906
 4997TIP3   OH214933   7.385   6.149   1.813
 4997TIP3    H114934   7.364   6.076   1.876
 4997TIP3    H214935   7.480   6.163   1.834
 4998TIP3   OH214936   7.361   5.911   0.985
 4998TIP3    H114937   7.319   5.957   0.911
 4998TIP3    H214938   7.391   5.828   0.940
 4999TIP3   OH214939   6.654   5.929   1.696
 4999TIP3    H114940   6.692   5.989   1.762
 4999TIP3    H214941   6.643   5.847   1.747
 5000TIP3   OH214942   6.245   5.456   1.278
 5000TIP3    H114943   6.324   5.482   1.330
 5000TIP3    H214944   6.282   5.416   1.198
 5001TIP3   OH214945   6.213   5.432   0.805
 5001TIP3    H114946   6.260   5.466   0.727
 5001TIP3    H214947   6.149   5.504   0.820
 5002TIP3   OH214948   7.365   6.150   1.389
 5002TIP3    H114949   7.406   6.081   1.332
 5002TIP3    H214950   7.341   6.094   1.466
 5003TIP3   OH214951   7.049   5.615   1.060
 5003TIP3    H114952   6.970   5.610   1.119
 5003TIP3    H214953   7.122   5.600   1.123
 5004TIP3   OH214954   6.482   5.667   1.066
 5004TIP3    H114955   6.387   5.673   1.039
 5004TIP3    H214956   6.503   5.573   1.048
 5005TIP3   OH214957   6.748   5.676   0.741
 5005TIP3    H114958   6.844   5.672   0.762
 5005TIP3    H214959   6.748   5.718   0.654
 5006TIP3   OH214960   7.540   5.688   1.262
 5006TIP3    H114961   7.511   5.699   1.355
 5006TIP3    H214962   7.474   5.624   1.230
 5007TIP3   OH214963   6.666   6.488   1.902
 5007TIP3    H114964   6.747   6.514   1.950
 5007TIP3    H214965   6.603   6.483   1.977
 5008TIP3   OH214966   7.127   5.942   1.165
 5008TIP3    H114967   7.207   5.904   1.125
 5008TIP3    H214968   7.126   5.899   1.254
 5009TIP3   OH214969   6.652   5.422   1.044
 5009TIP3    H114970   6.611   5.349   1.094
 5009TIP3    H214971   6.708   5.373   0.982
 5010TIP3   OH214972   7.106   5.848   1.438
 5010TIP3    H114973   7.016   5.878   1.462
 5010TIP3    H214974   7.164   5.902   1.495
 5011TIP3   OH214975   7.755   6.368   1.152
 5011TIP3    H114976   7.736   6.462   1.135
 5011TIP3    H214977   7.663   6.333   1.157
 5012TIP3   OH214978   7.240   6.533   1.547
 5012TIP3    H114979   7.271   6.516   1.637
 5012TIP3    H214980   7.204   6.622   1.553
 5013TIP3   OH214981   6.534   6.248   1.217
 5013TIP3    H114982   6.577   6.220   1.134
 5013TIP3    H214983   6.582   6.194   1.282
 5014TIP3   OH214984   6.419   6.170   1.835
 5014TIP3    H114985   6.437   6.155   1.930
 5014TIP3    H214986   6.352   6.102   1.817
 5015TIP3   OH214987   7.147   6.286   1.851
 5015TIP3    H114988   7.086   6.224   1.807
 5015TIP3    H214989   7.234   6.249   1.825
 5016TIP3   OH214990   7.388   6.784   1.465
 5016TIP3    H114991   7.292   6.794   1.452
 5016TIP3    H214992   7.400   6.835   1.548
 5017TIP3   OH214993   7.487   6.307   1.118
 5017TIP3    H114994   7.391   6.292   1.111
 5017TIP3    H214995   7.521   6.235   1.061
 5018TIP3   OH214996   6.644   6.567   0.888
 5018TIP3    H114997   6.649   6.611   0.800
 5018TIP3    H214998   6.554   6.589   0.915
 5019TIP3   OH214999   6.195   5.858   0.559
 5019TIP3    H115000   6.240   5.934   0.602
 5019TIP3    H215001   6.117   5.850   0.619
 5020TIP3   OH215002   6.752   6.334   0.796
 5020TIP3    H115003   6.736   6.417   0.844
 5020TIP3    H215004   6.742   6.267   0.866
 5021TIP3   OH215005   6.905   6.880   1.321
 5021TIP3    H115006   6.946   6.948   1.262
 5021TIP3    H215007   6.985   6.847   1.366
 5022TIP3   OH215008   7.292   6.521   1.276
 5022TIP3    H115009   7.280   6.516   1.373
 5022TIP3    H215010   7.371   6.466   1.263
 5023TIP3   OH215011   6.626   5.675   1.837
 5023TIP3    H115012   6.529   5.675   1.849
 5023TIP3    H215013   6.655   5.619   1.911
 5024TIP3   OH215014   6.345   6.756   1.470
 5024TIP3    H115015   6.399   6.685   1.508
 5024TIP3    H215016   6.372   6.831   1.525
 5025TIP3   OH215017   6.316   6.092   0.653
 5025TIP3    H115018   6.242   6.134   0.703
 5025TIP3    H215019   6.350   6.170   0.606
 5026TIP3   OH215020   7.468   5.734   1.520
 5026TIP3    H115021   7.547   5.780   1.555
 5026TIP3    H215022   7.460   5.656   1.580
 5027TIP3   OH215023   7.017   5.661   0.794
 5027TIP3    H115024   7.094   5.716   0.773
 5027TIP3    H215025   7.027   5.652   0.892
 5028TIP3   OH215026   7.305   5.984   1.597
 5028TIP3    H115027   7.331   6.036   1.676
 5028TIP3    H215028   7.359   5.904   1.607
 5029TIP3   OH215029   7.195   5.401   0.900
 5029TIP3    H115030   7.188   5.457   0.979
 5029TIP3    H215031   7.273   5.442   0.858
 5030TIP3   OH215032   6.683   5.398   0.671
 5030TIP3    H115033   6.675   5.487   0.709
 5030TIP3    H215034   6.771   5.373   0.708
 5031TIP3   OH215035   7.942   5.913   1.562
 5031TIP3    H115036   7.844   5.904   1.570
 5031TIP3    H215037   7.963   5.837   1.507
 5032TIP3   OH215038   7.586   6.092   0.979
 5032TIP3    H115039   7.519   6.022   0.987
 5032TIP3    H215040   7.666   6.046   1.009
 5033TIP3   OH215041   6.253   5.587   0.579
 5033TIP3    H115042   6.233   5.682   0.572
 5033TIP3    H215043   6.185   5.549   0.522
 5034TIP3   OH215044   6.638   5.305   1.441
 5034TIP3    H115045   6.608   5.269   1.355
 5034TIP3    H215046   6.628   5.228   1.500
 5035TIP3   OH215047   6.163   6.504   0.828
 5035TIP3    H115048   6.118   6.544   0.904
 5035TIP3    H215049   6.242   6.561   0.821
 5036TIP3   OH215050   6.337   7.074   1.905
 5036TIP3    H115051   6.426   7.075   1.947
 5036TIP3    H215052   6.322   6.979   1.896
 5037TIP3   OH215053   6.805   7.025   1.941
 5037TIP3    H115054   6.901   7.017   1.951
 5037TIP3    H215055   6.789   6.961   1.869
 5038TIP3   OH215056   7.451   6.928   1.688
 5038TIP3    H115057   7.448   6.860   1.759
 5038TIP3    H215058   7.533   6.975   1.711
 5039TIP3   OH215059   6.465   6.477   2.096
 5039TIP3    H115060   6.482   6.381   2.104
 5039TIP3    H215061   6.378   6.477   2.050
 5040TIP3   OH215062   7.069   6.559   1.872
 5040TIP3    H115063   7.032   6.583   1.785
 5040TIP3    H215064   7.102   6.468   1.858
 5041TIP3   OH215065   7.560   6.568   1.472
 5041TIP3    H115066   7.618   6.635   1.437
 5041TIP3    H215067   7.475   6.618   1.473
 5042TIP3   OH215068   6.587   6.214   2.078
 5042TIP3    H115069   6.663   6.162   2.051
 5042TIP3    H215070   6.615   6.244   2.167
 5043TIP3   OH215071   6.916   6.089   1.737
 5043TIP3    H115072   6.841   6.152   1.739
 5043TIP3    H215073   6.970   6.125   1.662
 5044TIP3   OH215074   7.442   6.491   1.867
 5044TIP3    H115075   7.518   6.457   1.817
 5044TIP3    H215076   7.437   6.428   1.942
 5045TIP3   OH215077   7.042   5.883   1.865
 5045TIP3    H115078   7.045   5.805   1.807
 5045TIP3    H215079   6.998   5.950   1.807
 5046TIP3   OH215080   7.046   5.673   1.672
 5046TIP3    H115081   7.076   5.708   1.586
 5046TIP3    H215082   6.954   5.647   1.653
 5047TIP3   OH215083   7.068   6.200   1.545
 5047TIP3    H115084   7.156   6.215   1.508
 5047TIP3    H215085   7.014   6.268   1.498
 5048TIP3   OH215086   7.654   6.168   1.924
 5048TIP3    H115087   7.698   6.083   1.938
 5048TIP3    H215088   7.726   6.221   1.887
 5049TIP3   OH215089   7.665   6.425   1.678
 5049TIP3    H115090   7.613   6.477   1.612
 5049TIP3    H215091   7.754   6.432   1.635
 5050TIP3   OH215092   6.920   5.988   2.098
 5050TIP3    H115093   6.854   5.917   2.115
 5050TIP3    H215094   6.955   5.961   2.011
 5051TIP3   OH215095   7.178   5.431   1.743
 5051TIP3    H115096   7.127   5.512   1.721
 5051TIP3    H215097   7.109   5.361   1.733
 5052TIP3   OH215098   7.303   5.933   1.958
 5052TIP3    H115099   7.292   5.916   2.053
 5052TIP3    H215100   7.214   5.909   1.926
 5053TIP3   OH215101   7.543   5.886   1.814
 5053TIP3    H115102   7.469   5.885   1.878
 5053TIP3    H215103   7.618   5.855   1.869
 5054TIP3   OH215104   7.772   5.828   1.960
 5054TIP3    H115105   7.785   5.732   1.974
 5054TIP3    H215106   7.770   5.863   2.052
 5055TIP3   OH215107   6.761   5.767   2.155
 5055TIP3    H115108   6.764   5.675   2.122
 5055TIP3    H215109   6.801   5.756   2.243
 5056TIP3   OH215110   7.269   5.442   2.002
 5056TIP3    H115111   7.336   5.371   1.998
 5056TIP3    H215112   7.231   5.435   1.912
 5057TIP3   OH215113   7.339   5.656   2.157
 5057TIP3    H115114   7.318   5.583   2.095
 5057TIP3    H215115   7.259   5.712   2.151
 5058TIP3   OH215116   5.954   6.880   0.898
 5058TIP3    H115117   5.886   6.828   0.850
 5058TIP3    H215118   5.991   6.813   0.958
 5059TIP3   OH215119   6.109   6.716   1.066
 5059TIP3    H115120   6.085   6.648   1.133
 5059TIP3    H215121   6.149   6.782   1.126
 5060TIP3   OH215122   6.274   6.139   1.446
 5060TIP3    H115123   6.272   6.102   1.356
 5060TIP3    H215124   6.371   6.138   1.464
 5061TIP3   OH215125   7.892   6.466   1.535
 5061TIP3    H115126   7.977   6.427   1.561
 5061TIP3    H215127   7.920   6.526   1.464
 5062TIP3   OH215128   7.804   5.948   1.071
 5062TIP3    H115129   7.892   5.972   1.040
 5062TIP3    H215130   7.808   5.984   1.163
 5063TIP3   OH215131   7.848   6.082   1.301
 5063TIP3    H115132   7.783   6.119   1.364
 5063TIP3    H215133   7.917   6.150   1.300
 5064TIP3   OH215134   6.495   5.823   2.122
 5064TIP3    H115135   6.593   5.816   2.127
 5064TIP3    H215136   6.471   5.735   2.158
 5065TIP3   OH215137   6.456   5.515   1.451
 5065TIP3    H115138   6.516   5.438   1.460
 5065TIP3    H215139   6.520   5.588   1.442
 5066TIP3   OH215140   6.253   5.788   1.520
 5066TIP3    H115141   6.305   5.783   1.437
 5066TIP3    H215142   6.290   5.867   1.561
 5067TIP3   OH215143   6.243   5.297   1.037
 5067TIP3    H115144   6.149   5.283   1.056
 5067TIP3    H215145   6.238   5.350   0.954
 5068TIP3   OH215146   6.462   5.375   1.840
 5068TIP3    H115147   6.410   5.366   1.921
 5068TIP3    H215148   6.395   5.409   1.778
 5069TIP3   OH215149   6.497   6.810   1.911
 5069TIP3    H115150   6.406   6.777   1.899
 5069TIP3    H215151   6.517   6.780   2.001
 5070TIP3   OH215152   6.679   6.835   1.465
 5070TIP3    H115153   6.634   6.912   1.423
 5070TIP3    H215154   6.766   6.844   1.420
 5071TIP3   OH215155   7.137   7.091   1.594
 5071TIP3    H115156   7.170   7.081   1.686
 5071TIP3    H215157   7.209   7.144   1.556
 5072TIP3   OH215158   8.080   5.569   1.574
 5072TIP3    H115159   8.001   5.579   1.518
 5072TIP3    H215160   8.134   5.507   1.523
 5073TIP3   OH215161   6.352   7.091   1.487
 5073TIP3    H115162   6.260   7.123   1.469
 5073TIP3    H215163   6.372   7.142   1.567
 5074TIP3   OH215164   6.583   7.062   1.344
 5074TIP3    H115165   6.495   7.073   1.386
 5074TIP3    H215166   6.565   7.092   1.252
 5075TIP3   OH215167   6.998   7.070   1.158
 5075TIP3    H115168   6.953   7.111   1.083
 5075TIP3    H215169   7.030   7.147   1.209
 5076TIP3   OH215170   6.269   6.880   1.229
 5076TIP3    H115171   6.291   6.852   1.321
 5076TIP3    H215172   6.343   6.838   1.181
 5077TIP3   OH215173   6.466   6.752   1.088
 5077TIP3    H115174   6.479   6.671   1.143
 5077TIP3    H215175   6.557   6.790   1.092
 5078TIP3   OH215176   6.727   6.842   1.104
 5078TIP3    H115177   6.760   6.750   1.099
 5078TIP3    H215178   6.782   6.872   1.180
 5079TIP3   OH215179   7.289   5.491   1.162
 5079TIP3    H115180   7.257   5.425   1.226
 5079TIP3    H215181   7.373   5.452   1.132
 5080TIP3   OH215182   7.828   5.394   1.093
 5080TIP3    H115183   7.869   5.436   1.014
 5080TIP3    H215184   7.733   5.405   1.075
 5081TIP3   OH215185   7.943   5.477   0.859
 5081TIP3    H115186   7.985   5.427   0.788
 5081TIP3    H215187   7.945   5.567   0.824
 5082TIP3   OH215188   6.550   5.212   1.193
 5082TIP3    H115189   6.458   5.180   1.196
 5082TIP3    H215190   6.598   5.126   1.189
 5083TIP3   OH215191   6.347   5.081   0.854
 5083TIP3    H115192   6.382   5.135   0.779
 5083TIP3    H215193   6.319   5.150   0.916
 5084TIP3   OH215194   6.993   5.246   1.084
 5084TIP3    H115195   7.058   5.285   1.024
 5084TIP3    H215196   7.026   5.275   1.171
 5085TIP3   OH215197   7.538   5.388   1.053
 5085TIP3    H115198   7.556   5.337   0.973
 5085TIP3    H215199   7.529   5.314   1.119
 5086TIP3   OH215200   6.461   5.225   0.650
 5086TIP3    H115201   6.474   5.183   0.564
 5086TIP3    H215202   6.538   5.284   0.656
 5087TIP3   OH215203   6.933   5.398   0.774
 5087TIP3    H115204   7.004   5.339   0.802
 5087TIP3    H215205   6.975   5.484   0.790
 5088TIP3   OH215206   6.759   5.494   2.087
 5088TIP3    H115207   6.724   5.422   2.143
 5088TIP3    H215208   6.853   5.493   2.115
 5089TIP3   OH215209   7.009   5.491   2.205
 5089TIP3    H115210   7.095   5.465   2.166
 5089TIP3    H215211   6.998   5.421   2.272
 5090TIP3   OH215212   7.830   5.557   1.994
 5090TIP3    H115213   7.851   5.526   2.084
 5090TIP3    H215214   7.919   5.553   1.951
 5091TIP3   OH215215   0.512   6.555   2.881
 5091TIP3    H115216   0.538   6.640   2.924
 5091TIP3    H215217   0.534   6.573   2.788
 5092TIP3   OH215218  -0.061   6.459   2.496
 5092TIP3    H115219   0.004   6.475   2.567
 5092TIP3    H215220  -0.034   6.524   2.430
 5093TIP3   OH215221   0.576   6.768   3.053
 5093TIP3    H115222   0.489   6.811   3.041
 5093TIP3    H215223   0.599   6.798   3.142
 5094TIP3   OH215224   0.141   6.507   2.672
 5094TIP3    H115225   0.152   6.424   2.720
 5094TIP3    H215226   0.202   6.569   2.715
 5095TIP3   OH215227   0.310   6.469   3.052
 5095TIP3    H115228   0.227   6.502   3.015
 5095TIP3    H215229   0.375   6.491   2.982
 5096TIP3   OH215230   0.228   7.485   3.030
 5096TIP3    H115231   0.205   7.397   2.993
 5096TIP3    H215232   0.260   7.534   2.952
 5097TIP3   OH215233   0.432   7.109   2.875
 5097TIP3    H115234   0.349   7.160   2.883
 5097TIP3    H215235   0.459   7.132   2.784
 5098TIP3   OH215236   0.238   6.038   2.142
 5098TIP3    H115237   0.157   6.062   2.193
 5098TIP3    H215238   0.266   6.126   2.107
 5099TIP3   OH215239   0.378   6.945   3.351
 5099TIP3    H115240   0.290   6.965   3.317
 5099TIP3    H215241   0.379   6.847   3.342
 5100TIP3   OH215242   0.199   7.256   2.873
 5100TIP3    H115243   0.231   7.305   2.793
 5100TIP3    H215244   0.113   7.222   2.843
 5101TIP3   OH215245   0.479   7.518   3.123
 5101TIP3    H115246   0.381   7.519   3.108
 5101TIP3    H215247   0.509   7.494   3.032
 5102TIP3   OH215248   0.370   6.676   3.274
 5102TIP3    H115249   0.293   6.630   3.311
 5102TIP3    H215250   0.380   6.630   3.189
 5103TIP3   OH215251   0.045   6.845   2.649
 5103TIP3    H115252  -0.018   6.775   2.666
 5103TIP3    H215253   0.124   6.813   2.697
 5104TIP3   OH215254   0.301   6.599   3.686
 5104TIP3    H115255   0.297   6.501   3.688
 5104TIP3    H215256   0.204   6.618   3.690
 5105TIP3   OH215257   0.303   6.996   2.224
 5105TIP3    H115258   0.233   6.954   2.279
 5105TIP3    H215259   0.366   7.026   2.293
 5106TIP3   OH215260   0.334   7.382   2.676
 5106TIP3    H115261   0.396   7.321   2.632
 5106TIP3    H215262   0.337   7.462   2.621
 5107TIP3   OH215263   0.138   6.839   2.385
 5107TIP3    H115264   0.131   6.741   2.381
 5107TIP3    H215265   0.104   6.856   2.476
 5108TIP3   OH215266   0.390   7.273   3.250
 5108TIP3    H115267   0.460   7.205   3.238
 5108TIP3    H215268   0.412   7.338   3.182
 5109TIP3   OH215269   0.585   7.080   3.247
 5109TIP3    H115270   0.511   7.034   3.292
 5109TIP3    H215271   0.656   7.016   3.266
 5110TIP3   OH215272   0.137   6.571   2.307
 5110TIP3    H115273   0.157   6.485   2.351
 5110TIP3    H215274   0.148   6.541   2.215
 5111TIP3   OH215275   0.262   6.740   2.784
 5111TIP3    H115276   0.346   6.763   2.740
 5111TIP3    H215277   0.277   6.783   2.871
 5112TIP3   OH215278   0.320   6.889   3.009
 5112TIP3    H115279   0.239   6.919   3.055
 5112TIP3    H215280   0.355   6.972   2.971
 5113TIP3   OH215281   0.786   6.488   3.559
 5113TIP3    H115282   0.843   6.418   3.520
 5113TIP3    H215283   0.753   6.534   3.480
 5114TIP3   OH215284   0.219   6.304   2.321
 5114TIP3    H115285   0.260   6.289   2.409
 5114TIP3    H215286   0.146   6.238   2.324
 5115TIP3   OH215287   0.645   6.616   3.364
 5115TIP3    H115288   0.566   6.657   3.405
 5115TIP3    H215289   0.604   6.545   3.311
 5116TIP3   OH215290   0.347   6.249   2.001
 5116TIP3    H115291   0.362   6.185   1.926
 5116TIP3    H215292   0.357   6.335   1.958
 5117TIP3   OH215293   0.549   6.373   3.251
 5117TIP3    H115294   0.459   6.352   3.219
 5117TIP3    H215295   0.590   6.284   3.244
 5118TIP3   OH215296   0.299   6.168   2.770
 5118TIP3    H115297   0.335   6.220   2.694
 5118TIP3    H215298   0.203   6.191   2.764
 5119TIP3   OH215299   0.379   6.282   2.540
 5119TIP3    H115300   0.452   6.229   2.500
 5119TIP3    H215301   0.410   6.373   2.521
 5120TIP3   OH215302   0.038   6.218   2.739
 5120TIP3    H115303  -0.037   6.225   2.678
 5120TIP3    H215304   0.016   6.137   2.790
 5121TIP3   OH215305   0.029   6.101   2.309
 5121TIP3    H115306  -0.055   6.128   2.270
 5121TIP3    H215307   0.004   6.018   2.353
 5122TIP3   OH215308   0.293   6.327   3.680
 5122TIP3    H115309   0.307   6.301   3.775
 5122TIP3    H215310   0.384   6.321   3.646
 5123TIP3   OH215311   1.495   7.257   1.946
 5123TIP3    H115312   1.448   7.341   1.929
 5123TIP3    H215313   1.429   7.194   1.910
 5124TIP3   OH215314   1.493   7.266   2.327
 5124TIP3    H115315   1.530   7.244   2.414
 5124TIP3    H215316   1.452   7.182   2.300
 5125TIP3   OH215317   0.785   7.157   2.689
 5125TIP3    H115318   0.815   7.088   2.751
 5125TIP3    H215319   0.863   7.214   2.686
 5126TIP3   OH215320   1.712   7.567   2.010
 5126TIP3    H115321   1.707   7.495   2.076
 5126TIP3    H215322   1.769   7.631   2.055
 5127TIP3   OH215323   0.825   7.514   2.494
 5127TIP3    H115324   0.792   7.428   2.460
 5127TIP3    H215325   0.902   7.529   2.433
 5128TIP3   OH215326   0.457   6.750   2.186
 5128TIP3    H115327   0.413   6.838   2.179
 5128TIP3    H215328   0.409   6.712   2.263
 5129TIP3   OH215329   0.528   7.062   2.375
 5129TIP3    H115330   0.573   6.981   2.409
 5129TIP3    H215331   0.602   7.111   2.337
 5130TIP3   OH215332   1.305   7.482   2.369
 5130TIP3    H115333   1.353   7.405   2.334
 5130TIP3    H215334   1.383   7.537   2.394
 5131TIP3   OH215335   2.306   6.812   2.368
 5131TIP3    H115336   2.336   6.895   2.410
 5131TIP3    H215337   2.330   6.827   2.275
 5132TIP3   OH215338   1.703   6.993   2.399
 5132TIP3    H115339   1.746   6.908   2.420
 5132TIP3    H215340   1.670   6.974   2.309
 5133TIP3   OH215341   1.045   6.653   2.364
 5133TIP3    H115342   1.023   6.725   2.301
 5133TIP3    H215343   0.996   6.579   2.322
 5134TIP3   OH215344   1.738   6.744   1.985
 5134TIP3    H115345   1.808   6.730   2.053
 5134TIP3    H215346   1.793   6.779   1.911
 5135TIP3   OH215347   0.674   6.852   2.473
 5135TIP3    H115348   0.756   6.833   2.523
 5135TIP3    H215349   0.690   6.798   2.393
 5136TIP3   OH215350   1.112   7.054   2.272
 5136TIP3    H115351   1.207   7.030   2.283
 5136TIP3    H215352   1.074   6.969   2.241
 5137TIP3   OH215353   2.380   7.022   2.538
 5137TIP3    H115354   2.294   7.066   2.521
 5137TIP3    H215355   2.399   7.054   2.627
 5138TIP3   OH215356   1.038   6.637   2.802
 5138TIP3    H115357   0.977   6.673   2.734
 5138TIP3    H215358   0.984   6.652   2.882
 5139TIP3   OH215359   1.359   7.468   1.828
 5139TIP3    H115360   1.348   7.448   1.732
 5139TIP3    H215361   1.403   7.555   1.826
 5140TIP3   OH215362   1.141   7.418   2.592
 5140TIP3    H115363   1.076   7.485   2.618
 5140TIP3    H215364   1.180   7.459   2.512
 5141TIP3   OH215365   1.939   6.753   2.166
 5141TIP3    H115366   1.925   6.707   2.250
 5141TIP3    H215367   1.992   6.831   2.194
 5142TIP3   OH215368   0.911   6.751   2.584
 5142TIP3    H115369   0.972   6.824   2.608
 5142TIP3    H215370   0.961   6.711   2.509
 5143TIP3   OH215371   0.967   7.632   2.702
 5143TIP3    H115372   0.921   7.615   2.616
 5143TIP3    H215373   0.890   7.627   2.761
 5144TIP3   OH215374   2.099   6.710   2.534
 5144TIP3    H115375   2.012   6.738   2.500
 5144TIP3    H215376   2.160   6.743   2.464
 5145TIP3   OH215377   1.387   6.350   2.518
 5145TIP3    H115378   1.372   6.256   2.538
 5145TIP3    H215379   1.311   6.391   2.565
 5146TIP3   OH215380   1.741   7.581   1.726
 5146TIP3    H115381   1.712   7.499   1.680
 5146TIP3    H215382   1.750   7.550   1.819
 5147TIP3   OH215383   2.022   7.721   2.516
 5147TIP3    H115384   2.010   7.643   2.458
 5147TIP3    H215385   2.054   7.788   2.453
 5148TIP3   OH215386   1.338   7.109   1.778
 5148TIP3    H115387   1.260   7.169   1.768
 5148TIP3    H215388   1.376   7.114   1.689
 5149TIP3   OH215389   1.305   6.896   1.507
 5149TIP3    H115390   1.373   6.953   1.549
 5149TIP3    H215391   1.363   6.836   1.455
 5150TIP3   OH215392   2.227   7.363   2.361
 5150TIP3    H115393   2.143   7.413   2.366
 5150TIP3    H215394   2.257   7.388   2.271
 5151TIP3   OH215395   1.673   7.194   1.749
 5151TIP3    H115396   1.618   7.216   1.827
 5151TIP3    H215397   1.757   7.168   1.793
 5152TIP3   OH215398   1.904   7.237   2.661
 5152TIP3    H115399   1.902   7.321   2.712
 5152TIP3    H215400   1.817   7.242   2.616
 5153TIP3   OH215401   0.907   7.196   2.151
 5153TIP3    H115402   0.863   7.131   2.092
 5153TIP3    H215403   0.982   7.144   2.186
 5154TIP3   OH215404   1.043   7.565   2.349
 5154TIP3    H115405   1.025   7.540   2.258
 5154TIP3    H215406   1.141   7.574   2.349
 5155TIP3   OH215407   1.031   7.174   2.512
 5155TIP3    H115408   1.069   7.146   2.426
 5155TIP3    H215409   1.078   7.258   2.529
 5156TIP3   OH215410   1.222   7.632   2.833
 5156TIP3    H115411   1.180   7.717   2.855
 5156TIP3    H215412   1.151   7.592   2.780
 5157TIP3   OH215413   1.518   7.054   1.571
 5157TIP3    H115414   1.573   7.118   1.620
 5157TIP3    H215415   1.542   7.074   1.477
 5158TIP3   OH215416   0.932   7.280   2.940
 5158TIP3    H115417   0.938   7.367   2.984
 5158TIP3    H215418   0.839   7.256   2.960
 5159TIP3   OH215419   2.025   6.298   1.619
 5159TIP3    H115420   1.944   6.320   1.669
 5159TIP3    H215421   2.039   6.380   1.568
 5160TIP3   OH215422   0.757   7.034   1.964
 5160TIP3    H115423   0.701   7.083   1.902
 5160TIP3    H215424   0.719   6.945   1.958
 5161TIP3   OH215425   0.566   7.427   2.881
 5161TIP3    H115426   0.499   7.406   2.814
 5161TIP3    H215427   0.602   7.339   2.904
 5162TIP3   OH215428   2.156   7.198   2.838
 5162TIP3    H115429   2.072   7.207   2.789
 5162TIP3    H215430   2.173   7.102   2.829
 5163TIP3   OH215431   0.752   7.633   2.879
 5163TIP3    H115432   0.809   7.592   2.947
 5163TIP3    H215433   0.682   7.565   2.869
 5164TIP3   OH215434   1.152   6.431   2.648
 5164TIP3    H115435   1.064   6.400   2.618
 5164TIP3    H215436   1.124   6.510   2.699
 5165TIP3   OH215437   1.689   6.545   2.841
 5165TIP3    H115438   1.758   6.517   2.905
 5165TIP3    H215439   1.606   6.525   2.890
 5166TIP3   OH215440   1.921   6.974   2.758
 5166TIP3    H115441   1.872   6.972   2.843
 5166TIP3    H215442   1.900   7.062   2.723
 5167TIP3   OH215443   1.588   7.085   1.314
 5167TIP3    H115444   1.558   7.064   1.224
 5167TIP3    H215445   1.642   7.164   1.298
 5168TIP3   OH215446   1.286   6.488   1.609
 5168TIP3    H115447   1.264   6.483   1.704
 5168TIP3    H215448   1.255   6.399   1.581
 5169TIP3   OH215449   1.084   6.952   2.663
 5169TIP3    H115450   1.034   6.969   2.745
 5169TIP3    H215451   1.065   7.033   2.611
 5170TIP3   OH215452   0.966   6.838   2.181
 5170TIP3    H115453   0.873   6.810   2.197
 5170TIP3    H215454   0.979   6.798   2.091
 5171TIP3   OH215455   1.465   6.911   1.912
 5171TIP3    H115456   1.415   6.980   1.864
 5171TIP3    H215457   1.521   6.875   1.840
 5172TIP3   OH215458   1.637   7.190   2.988
 5172TIP3    H115459   1.614   7.119   3.052
 5172TIP3    H215460   1.731   7.204   3.012
 5173TIP3   OH215461   1.617   6.943   2.143
 5173TIP3    H115462   1.552   6.967   2.074
 5173TIP3    H215463   1.654   6.863   2.100
 5174TIP3   OH215464   0.905   6.973   2.871
 5174TIP3    H115465   0.932   7.035   2.940
 5174TIP3    H215466   0.892   6.890   2.922
 5175TIP3   OH215467   0.934   6.434   1.571
 5175TIP3    H115468   0.947   6.440   1.668
 5175TIP3    H215469   0.851   6.484   1.564
 5176TIP3   OH215470   0.493   6.513   2.454
 5176TIP3    H115471   0.576   6.530   2.503
 5176TIP3    H215472   0.521   6.473   2.370
 5177TIP3   OH215473   0.459   6.503   1.947
 5177TIP3    H115474   0.546   6.516   1.905
 5177TIP3    H215475   0.457   6.579   2.011
 5178TIP3   OH215476   1.625   7.190   2.564
 5178TIP3    H115477   1.659   7.119   2.505
 5178TIP3    H215478   1.595   7.136   2.640
 5179TIP3   OH215479   1.303   6.656   2.239
 5179TIP3    H115480   1.222   6.653   2.294
 5179TIP3    H215481   1.373   6.644   2.305
 5180TIP3   OH215482   0.728   6.711   2.242
 5180TIP3    H115483   0.635   6.712   2.209
 5180TIP3    H215484   0.756   6.619   2.228
 5181TIP3   OH215485   1.004   6.714   1.941
 5181TIP3    H115486   1.101   6.721   1.930
 5181TIP3    H215487   0.971   6.715   1.848
 5182TIP3   OH215488   1.788   6.732   2.443
 5182TIP3    H115489   1.757   6.745   2.535
 5182TIP3    H215490   1.720   6.671   2.409
 5183TIP3   OH215491   0.871   6.695   1.707
 5183TIP3    H115492   0.778   6.714   1.727
 5183TIP3    H215493   0.888   6.753   1.631
 5184TIP3   OH215494   0.919   7.531   3.078
 5184TIP3    H115495   0.998   7.554   3.131
 5184TIP3    H215496   0.855   7.514   3.150
 5185TIP3   OH215497   1.377   6.987   2.338
 5185TIP3    H115498   1.449   6.944   2.290
 5185TIP3    H215499   1.379   6.942   2.424
 5186TIP3   OH215500   0.893   6.470   2.221
 5186TIP3    H115501   0.856   6.395   2.272
 5186TIP3    H215502   0.937   6.423   2.149
 5187TIP3   OH215503   1.353   6.888   2.620
 5187TIP3    H115504   1.263   6.921   2.639
 5187TIP3    H215505   1.410   6.947   2.674
 5188TIP3   OH215506   1.122   7.270   1.750
 5188TIP3    H115507   1.057   7.197   1.754
 5188TIP3    H215508   1.096   7.322   1.830
 5189TIP3   OH215509   1.990   7.502   2.349
 5189TIP3    H115510   2.018   7.552   2.270
 5189TIP3    H215511   1.906   7.461   2.320
 5190TIP3   OH215512   1.543   6.583   1.584
 5190TIP3    H115513   1.447   6.566   1.594
 5190TIP3    H215514   1.554   6.676   1.614
 5191TIP3   OH215515   1.499   7.613   2.718
 5191TIP3    H115516   1.536   7.561   2.790
 5191TIP3    H215517   1.413   7.642   2.755
 5192TIP3   OH215518   1.619   6.828   1.693
 5192TIP3    H115519   1.716   6.834   1.707
 5192TIP3    H215520   1.600   6.910   1.643
 5193TIP3   OH215521   0.769   7.252   2.388
 5193TIP3    H115522   0.820   7.243   2.304
 5193TIP3    H215523   0.828   7.208   2.451
 5194TIP3   OH215524   1.299   7.384   1.567
 5194TIP3    H115525   1.240   7.443   1.515
 5194TIP3    H215526   1.231   7.336   1.619
 5195TIP3   OH215527   0.671   7.205   3.010
 5195TIP3    H115528   0.678   7.187   3.106
 5195TIP3    H215529   0.600   7.143   2.986
 5196TIP3   OH215530   1.398   7.319   3.035
 5196TIP3    H115531   1.333   7.265   2.986
 5196TIP3    H215532   1.483   7.282   3.001
 5197TIP3   OH215533   2.055   6.925   1.525
 5197TIP3    H115534   1.995   6.880   1.461
 5197TIP3    H215535   2.053   7.014   1.484
 5198TIP3   OH215536   2.279   7.759   2.607
 5198TIP3    H115537   2.183   7.773   2.597
 5198TIP3    H215538   2.304   7.745   2.512
 5199TIP3   OH215539   1.754   7.376   2.250
 5199TIP3    H115540   1.663   7.349   2.273
 5199TIP3    H215541   1.788   7.291   2.214
 5200TIP3   OH215542   1.023   7.383   1.980
 5200TIP3    H115543   0.990   7.464   2.020
 5200TIP3    H215544   0.991   7.316   2.044
 5201TIP3   OH215545   1.547   7.576   2.448
 5201TIP3    H115546   1.535   7.588   2.545
 5201TIP3    H215547   1.632   7.530   2.444
 5202TIP3   OH215548   1.520   7.405   1.336
 5202TIP3    H115549   1.574   7.401   1.418
 5202TIP3    H215550   1.432   7.395   1.374
 5203TIP3   OH215551   0.873   6.718   3.014
 5203TIP3    H115552   0.777   6.719   3.028
 5203TIP3    H215553   0.903   6.664   3.089
 5204TIP3   OH215554   1.685   7.374   1.549
 5204TIP3    H115555   1.679   7.303   1.617
 5204TIP3    H215556   1.782   7.374   1.531
 5205TIP3   OH215557   1.715   6.783   2.703
 5205TIP3    H115558   1.797   6.821   2.739
 5205TIP3    H215559   1.704   6.702   2.757
 5206TIP3   OH215560   1.596   6.531   1.871
 5206TIP3    H115561   1.585   6.555   1.777
 5206TIP3    H215562   1.638   6.612   1.908
 5207TIP3   OH215563   1.280   6.716   1.972
 5207TIP3    H115564   1.346   6.787   1.955
 5207TIP3    H215565   1.288   6.706   2.070
 5208TIP3   OH215566   1.553   7.029   2.771
 5208TIP3    H115567   1.580   7.079   2.851
 5208TIP3    H215568   1.605   6.947   2.780
 5209TIP3   OH215569   1.425   6.433   2.069
 5209TIP3    H115570   1.420   6.511   2.128
 5209TIP3    H215571   1.488   6.466   2.001
 5210TIP3   OH215572   0.954   6.438   1.853
 5210TIP3    H115573   0.943   6.528   1.887
 5210TIP3    H215574   1.051   6.427   1.863
 5211TIP3   OH215575   2.189   6.932   2.758
 5211TIP3    H115576   2.091   6.931   2.764
 5211TIP3    H215577   2.201   6.885   2.674
 5212TIP3   OH215578   1.841   7.127   2.146
 5212TIP3    H115579   1.765   7.067   2.158
 5212TIP3    H215580   1.913   7.079   2.194
 5213TIP3   OH215581   0.889   6.350   2.617
 5213TIP3    H115582   0.858   6.315   2.531
 5213TIP3    H215583   0.878   6.272   2.675
 5214TIP3   OH215584   0.715   7.503   3.260
 5214TIP3    H115585   0.739   7.408   3.272
 5214TIP3    H215586   0.625   7.495   3.223
 5215TIP3   OH215587   1.333   7.582   3.076
 5215TIP3    H115588   1.302   7.594   2.984
 5215TIP3    H215589   1.371   7.492   3.070
 5216TIP3   OH215590   1.809   7.608   2.652
 5216TIP3    H115591   1.880   7.659   2.609
 5216TIP3    H215592   1.735   7.670   2.645
 5217TIP3   OH215593   0.846   7.257   3.255
 5217TIP3    H115594   0.914   7.191   3.236
 5217TIP3    H215595   0.871   7.285   3.346
 5218TIP3   OH215596   0.944   7.068   1.741
 5218TIP3    H115597   0.896   7.028   1.815
 5218TIP3    H215598   0.943   6.996   1.675
 5219TIP3   OH215599   1.169   7.138   2.916
 5219TIP3    H115600   1.090   7.196   2.917
 5219TIP3    H215601   1.219   7.174   2.839
 5220TIP3   OH215602   1.028   6.858   1.512
 5220TIP3    H115603   1.048   6.812   1.429
 5220TIP3    H215604   1.119   6.888   1.534
 5221TIP3   OH215605   1.692   7.531   3.047
 5221TIP3    H115606   1.772   7.504   2.999
 5221TIP3    H215607   1.689   7.467   3.120
 5222TIP3   OH215608   1.836   7.209   1.183
 5222TIP3    H115609   1.805   7.164   1.101
 5222TIP3    H215610   1.796   7.298   1.173
 5223TIP3   OH215611   1.294   6.928   3.039
 5223TIP3    H115612   1.293   6.849   2.981
 5223TIP3    H215613   1.248   6.995   2.983
 5224TIP3   OH215614   1.296   6.716   2.849
 5224TIP3    H115615   1.323   6.754   2.764
 5224TIP3    H215616   1.202   6.691   2.831
 5225TIP3   OH215617   1.316   7.252   2.723
 5225TIP3    H115618   1.400   7.259   2.676
 5225TIP3    H215619   1.260   7.317   2.676
 5226TIP3   OH215620   1.901   7.213   3.100
 5226TIP3    H115621   1.949   7.130   3.111
 5226TIP3    H215622   1.970   7.272   3.067
 5227TIP3   OH215623   1.941   7.466   2.840
 5227TIP3    H115624   1.885   7.521   2.780
 5227TIP3    H215625   2.030   7.486   2.802
 5228TIP3   OH215626   1.173   7.031   3.275
 5228TIP3    H115627   1.105   6.963   3.293
 5228TIP3    H215628   1.205   7.005   3.187
 5229TIP3   OH215629   1.426   6.475   2.920
 5229TIP3    H115630   1.376   6.556   2.897
 5229TIP3    H215631   1.357   6.406   2.910
 5230TIP3   OH215632   1.552   6.977   3.134
 5230TIP3    H115633   1.535   6.960   3.229
 5230TIP3    H215634   1.463   6.954   3.099
 5231TIP3   OH215635   1.791   6.930   2.990
 5231TIP3    H115636   1.716   6.929   3.053
 5231TIP3    H215637   1.866   6.899   3.046
 5232TIP3   OH215638   2.020   6.872   3.138
 5232TIP3    H115639   2.034   6.776   3.153
 5232TIP3    H215640   2.017   6.907   3.230
 5233TIP3   OH215641   1.011   6.812   3.329
 5233TIP3    H115642   1.012   6.720   3.298
 5233TIP3    H215643   1.048   6.801   3.420
 5234TIP3   OH215644   1.520   6.485   3.179
 5234TIP3    H115645   1.585   6.413   3.172
 5234TIP3    H215646   1.479   6.481   3.089
 5235TIP3   OH215647   1.588   6.700   3.335
 5235TIP3    H115648   1.566   6.628   3.272
 5235TIP3    H215649   1.508   6.757   3.329
 5236TIP3   OH215650   2.173   7.892   2.881
 5236TIP3    H115651   2.099   7.875   2.944
 5236TIP3    H215652   2.219   7.965   2.925
 5237TIP3   OH215653   1.954   7.371   1.531
 5237TIP3    H115654   2.024   7.430   1.498
 5237TIP3    H215655   1.999   7.333   1.610
 5238TIP3   OH215656   2.086   7.246   1.732
 5238TIP3    H115657   2.023   7.204   1.795
 5238TIP3    H215658   2.156   7.281   1.791
 5239TIP3   OH215659   2.126   7.638   2.158
 5239TIP3    H115660   2.190   7.579   2.114
 5239TIP3    H215661   2.133   7.720   2.107
 5240TIP3   OH215662   2.025   7.156   1.376
 5240TIP3    H115663   1.956   7.161   1.306
 5240TIP3    H215664   1.996   7.230   1.433
 5241TIP3   OH215665   1.892   6.831   1.330
 5241TIP3    H115666   1.846   6.865   1.252
 5241TIP3    H215667   1.872   6.735   1.322
 5242TIP3   OH215668   1.898   7.107   1.879
 5242TIP3    H115669   1.908   7.010   1.869
 5242TIP3    H215670   1.884   7.117   1.976
 5243TIP3   OH215671   0.522   7.191   2.623
 5243TIP3    H115672   0.519   7.151   2.533
 5243TIP3    H215673   0.619   7.187   2.640
 5244TIP3   OH215674   2.186   7.529   2.737
 5244TIP3    H115675   2.258   7.463   2.724
 5244TIP3    H215676   2.213   7.600   2.676
 5245TIP3   OH215677   2.371   7.331   2.739
 5245TIP3    H115678   2.297   7.283   2.782
 5245TIP3    H215679   2.445   7.269   2.759
 5246TIP3   OH215680   1.836   6.564   1.311
 5246TIP3    H115681   1.911   6.533   1.366
 5246TIP3    H215682   1.765   6.503   1.333
 5247TIP3   OH215683   1.897   6.826   1.766
 5247TIP3    H115684   1.938   6.737   1.781
 5247TIP3    H215685   1.955   6.858   1.694
 5248TIP3   OH215686   2.054   6.994   2.265
 5248TIP3    H115687   2.140   7.018   2.223
 5248TIP3    H215688   2.070   7.031   2.354
 5249TIP3   OH215689   2.128   7.141   2.494
 5249TIP3    H115690   2.052   7.176   2.544
 5249TIP3    H215691   2.161   7.222   2.450
 5250TIP3   OH215692   0.745   6.865   3.293
 5250TIP3    H115693   0.843   6.858   3.302
 5250TIP3    H215694   0.717   6.780   3.331
 5251TIP3   OH215695   2.576   6.736   3.050
 5251TIP3    H115696   2.638   6.672   3.009
 5251TIP3    H215697   2.546   6.788   2.972
 5252TIP3   OH215698   2.003   6.576   1.808
 5252TIP3    H115699   2.052   6.558   1.891
 5252TIP3    H215700   1.943   6.499   1.805
 5253TIP3   OH215701   0.706   6.559   2.626
 5253TIP3    H115702   0.767   6.482   2.636
 5253TIP3    H215703   0.770   6.632   2.619
 5254TIP3   OH215704   0.504   6.831   2.699
 5254TIP3    H115705   0.554   6.827   2.615
 5254TIP3    H215706   0.539   6.912   2.738
 5255TIP3   OH215707   2.444   6.869   2.853
 5255TIP3    H115708   2.359   6.912   2.871
 5255TIP3    H215709   2.413   6.795   2.797
 5256TIP3   OH215710   2.079   6.505   1.441
 5256TIP3    H115711   2.119   6.435   1.386
 5256TIP3    H215712   2.147   6.575   1.439
 5257TIP3   OH215713   0.483   6.380   2.213
 5257TIP3    H115714   0.399   6.339   2.240
 5257TIP3    H215715   0.469   6.386   2.117
 5258TIP3   OH215716   0.710   6.415   3.015
 5258TIP3    H115717   0.658   6.410   3.097
 5258TIP3    H215718   0.644   6.454   2.954
 5259TIP3   OH215719   2.347   6.632   2.736
 5259TIP3    H115720   2.257   6.619   2.701
 5259TIP3    H215721   2.382   6.540   2.728
 5260TIP3   OH215722   1.548   6.547   2.355
 5260TIP3    H115723   1.509   6.475   2.408
 5260TIP3    H215724   1.625   6.503   2.313
 5261TIP3   OH215725   2.070   6.432   2.261
 5261TIP3    H115726   2.106   6.482   2.184
 5261TIP3    H215727   1.974   6.451   2.253
 5262TIP3   OH215728   2.167   6.528   2.024
 5262TIP3    H115729   2.241   6.475   1.987
 5262TIP3    H215730   2.202   6.619   2.009
 5263TIP3   OH215731   0.800   6.257   2.371
 5263TIP3    H115732   0.707   6.224   2.372
 5263TIP3    H215733   0.848   6.171   2.365
 5264TIP3   OH215734   0.617   6.116   2.045
 5264TIP3    H115735   0.660   6.169   1.974
 5264TIP3    H215736   0.547   6.176   2.075
 5265TIP3   OH215737   1.247   6.289   2.253
 5265TIP3    H115738   1.304   6.336   2.190
 5265TIP3    H215739   1.276   6.326   2.338
 5266TIP3   OH215740   1.785   6.437   2.235
 5266TIP3    H115741   1.792   6.394   2.149
 5266TIP3    H215742   1.776   6.359   2.295
 5267TIP3   OH215743   1.820   6.364   1.800
 5267TIP3    H115744   1.734   6.405   1.819
 5267TIP3    H215745   1.808   6.276   1.843
 5268TIP3   OH215746   0.737   6.263   1.853
 5268TIP3    H115747   0.743   6.220   1.765
 5268TIP3    H215748   0.817   6.319   1.853
 5269TIP3   OH215749   1.225   6.468   1.876
 5269TIP3    H115750   1.279   6.417   1.940
 5269TIP3    H215751   1.247   6.559   1.906
 5270TIP3   OH215752   1.007   6.539   3.263
 5270TIP3    H115753   0.970   6.468   3.319
 5270TIP3    H215754   1.101   6.538   3.293
 5271TIP3   OH215755   1.258   6.536   3.382
 5271TIP3    H115756   1.343   6.508   3.344
 5271TIP3    H215757   1.243   6.466   3.449
 5272TIP3   OH215758   2.085   6.601   3.168
 5272TIP3    H115759   2.102   6.570   3.260
 5272TIP3    H215760   2.175   6.596   3.128
 5273TIP3   OH215761   3.293   7.507   1.433
 5273TIP3    H115762   3.257   7.593   1.402
 5273TIP3    H215763   3.221   7.449   1.402
 5274TIP3   OH215764   3.292   7.523   1.814
 5274TIP3    H115765   3.328   7.499   1.901
 5274TIP3    H215766   3.249   7.440   1.786
 5275TIP3   OH215767   2.581   7.416   2.176
 5275TIP3    H115768   2.614   7.347   2.237
 5275TIP3    H215769   2.657   7.475   2.172
 5276TIP3   OH215770   3.508   7.817   1.502
 5276TIP3    H115771   3.505   7.744   1.567
 5276TIP3    H215772   3.562   7.882   1.549
 5277TIP3   OH215773   2.620   7.757   1.979
 5277TIP3    H115774   2.587   7.675   1.939
 5277TIP3    H215775   2.704   7.772   1.930
 5278TIP3   OH215776   2.266   7.025   1.676
 5278TIP3    H115777   2.222   7.109   1.696
 5278TIP3    H215778   2.193   6.976   1.634
 5279TIP3   OH215779   2.320   7.319   1.861
 5279TIP3    H115780   2.369   7.239   1.891
 5279TIP3    H215781   2.393   7.377   1.833
 5280TIP3   OH215782   3.104   7.739   1.844
 5280TIP3    H115783   3.154   7.660   1.817
 5280TIP3    H215784   3.180   7.794   1.875
 5281TIP3   OH215785   4.103   7.068   1.855
 5281TIP3    H115786   4.132   7.152   1.896
 5281TIP3    H215787   4.124   7.084   1.762
 5282TIP3   OH215788   3.500   7.249   1.885
 5282TIP3    H115789   3.542   7.164   1.906
 5282TIP3    H215790   3.466   7.231   1.795
 5283TIP3   OH215791   2.841   6.910   1.851
 5283TIP3    H115792   2.820   6.981   1.788
 5283TIP3    H215793   2.792   6.835   1.809
 5284TIP3   OH215794   3.534   7.003   1.472
 5284TIP3    H115795   3.606   6.987   1.538
 5284TIP3    H215796   3.588   7.036   1.397
 5285TIP3   OH215797   2.469   7.111   1.962
 5285TIP3    H115798   2.553   7.092   2.009
 5285TIP3    H215799   2.484   7.057   1.881
 5286TIP3   OH215800   2.909   7.308   1.759
 5286TIP3    H115801   3.003   7.284   1.770
 5286TIP3    H215802   2.871   7.224   1.726
 5287TIP3   OH215803   4.176   7.280   2.022
 5287TIP3    H115804   4.090   7.323   2.004
 5287TIP3    H215805   4.186   7.301   2.117
 5288TIP3   OH215806   2.833   6.894   2.288
 5288TIP3    H115807   2.774   6.930   2.220
 5288TIP3    H215808   2.780   6.910   2.369
 5289TIP3   OH215809   3.180   7.710   1.288
 5289TIP3    H115810   3.127   7.701   1.207
 5289TIP3    H215811   3.179   7.805   1.304
 5290TIP3   OH215812   2.935   7.676   2.079
 5290TIP3    H115813   2.867   7.738   2.113
 5290TIP3    H215814   2.966   7.724   2.000
 5291TIP3   OH215815   3.736   7.008   1.653
 5291TIP3    H115816   3.718   6.964   1.737
 5291TIP3    H215817   3.788   7.086   1.682
 5292TIP3   OH215818   2.706   7.008   2.070
 5292TIP3    H115819   2.768   7.081   2.094
 5292TIP3    H215820   2.756   6.967   1.995
 5293TIP3   OH215821   2.765   7.885   2.194
 5293TIP3    H115822   2.725   7.892   2.105
 5293TIP3    H215823   2.684   7.888   2.249
 5294TIP3   OH215824   2.160   7.517   1.428
 5294TIP3    H115825   2.129   7.555   1.343
 5294TIP3    H215826   2.181   7.599   1.474
 5295TIP3   OH215827   3.895   6.969   2.022
 5295TIP3    H115828   3.807   6.994   1.988
 5295TIP3    H215829   3.955   7.000   1.950
 5296TIP3   OH215830   3.183   6.607   2.004
 5296TIP3    H115831   3.169   6.512   2.024
 5296TIP3    H215832   3.107   6.647   2.051
 5297TIP3   OH215833   3.531   7.843   1.217
 5297TIP3    H115834   3.508   7.761   1.167
 5297TIP3    H215835   3.542   7.809   1.308
 5298TIP3   OH215836   3.821   7.977   2.002
 5298TIP3    H115837   3.805   7.897   1.947
 5298TIP3    H215838   3.843   8.044   1.935
 5299TIP3   OH215839   3.121   7.369   1.267
 5299TIP3    H115840   3.039   7.420   1.248
 5299TIP3    H215841   3.163   7.365   1.179
 5300TIP3   OH215842   3.076   7.161   0.972
 5300TIP3    H115843   3.145   7.214   1.018
 5300TIP3    H215844   3.134   7.097   0.925
 5301TIP3   OH215845   4.024   7.622   1.848
 5301TIP3    H115846   3.939   7.670   1.854
 5301TIP3    H215847   4.052   7.646   1.757
 5302TIP3   OH215848   3.469   7.448   1.234
 5302TIP3    H115849   3.414   7.469   1.313
 5302TIP3    H215850   3.553   7.423   1.277
 5303TIP3   OH215851   3.700   7.494   2.147
 5303TIP3    H115852   3.698   7.577   2.198
 5303TIP3    H215853   3.613   7.498   2.103
 5304TIP3   OH215854   2.708   7.453   1.636
 5304TIP3    H115855   2.665   7.392   1.572
 5304TIP3    H215856   2.782   7.399   1.671
 5305TIP3   OH215857   2.839   7.814   1.840
 5305TIP3    H115858   2.798   7.809   1.751
 5305TIP3    H215859   2.936   7.807   1.821
 5306TIP3   OH215860   2.827   7.431   1.998
 5306TIP3    H115861   2.864   7.404   1.912
 5306TIP3    H215862   2.873   7.516   2.016
 5307TIP3   OH215863   3.019   7.891   2.320
 5307TIP3    H115864   2.980   7.979   2.338
 5307TIP3    H215865   2.944   7.853   2.271
 5308TIP3   OH215866   3.298   7.315   1.060
 5308TIP3    H115867   3.361   7.373   1.109
 5308TIP3    H215868   3.329   7.330   0.967
 5309TIP3   OH215869   2.730   7.534   2.430
 5309TIP3    H115870   2.736   7.622   2.471
 5309TIP3    H215871   2.635   7.513   2.447
 5310TIP3   OH215872   3.822   6.553   1.108
 5310TIP3    H115873   3.740   6.575   1.156
 5310TIP3    H215874   3.836   6.635   1.056
 5311TIP3   OH215875   2.570   7.296   1.447
 5311TIP3    H115876   2.499   7.336   1.392
 5311TIP3    H215877   2.531   7.210   1.468
 5312TIP3   OH215878   2.362   7.679   2.360
 5312TIP3    H115879   2.294   7.658   2.293
 5312TIP3    H215880   2.397   7.592   2.385
 5313TIP3   OH215881   3.954   7.456   2.322
 5313TIP3    H115882   3.868   7.465   2.279
 5313TIP3    H215883   3.970   7.360   2.313
 5314TIP3   OH215884   2.544   7.887   2.375
 5314TIP3    H115885   2.606   7.844   2.437
 5314TIP3    H215886   2.479   7.816   2.358
 5315TIP3   OH215887   2.948   6.687   2.135
 5315TIP3    H115888   2.860   6.657   2.105
 5315TIP3    H215889   2.920   6.767   2.185
 5316TIP3   OH215890   3.485   6.801   2.328
 5316TIP3    H115891   3.554   6.774   2.392
 5316TIP3    H215892   3.402   6.782   2.377
 5317TIP3   OH215893   3.720   7.233   2.248
 5317TIP3    H115894   3.669   7.229   2.332
 5317TIP3    H215895   3.695   7.320   2.212
 5318TIP3   OH215896   3.389   7.346   0.813
 5318TIP3    H115897   3.343   7.333   0.728
 5318TIP3    H215898   3.459   7.410   0.787
 5319TIP3   OH215899   3.094   6.734   1.105
 5319TIP3    H115900   3.058   6.730   1.196
 5319TIP3    H215901   3.054   6.652   1.069
 5320TIP3   OH215902   2.881   7.208   2.148
 5320TIP3    H115903   2.831   7.226   2.231
 5320TIP3    H215904   2.862   7.290   2.097
 5321TIP3   OH215905   2.764   7.091   1.665
 5321TIP3    H115906   2.672   7.064   1.685
 5321TIP3    H215907   2.775   7.050   1.576
 5322TIP3   OH215908   3.258   7.171   1.398
 5322TIP3    H115909   3.206   7.240   1.351
 5322TIP3    H215910   3.313   7.136   1.325
 5323TIP3   OH215911   3.433   7.445   2.473
 5323TIP3    H115912   3.410   7.375   2.537
 5323TIP3    H215913   3.526   7.462   2.499
 5324TIP3   OH215914   3.413   7.200   1.629
 5324TIP3    H115915   3.348   7.225   1.560
 5324TIP3    H215916   3.449   7.121   1.585
 5325TIP3   OH215917   2.702   7.231   2.358
 5325TIP3    H115918   2.729   7.295   2.425
 5325TIP3    H215919   2.690   7.149   2.411
 5326TIP3   OH215920   2.751   6.712   1.068
 5326TIP3    H115921   2.740   6.710   1.166
 5326TIP3    H215922   2.672   6.764   1.043
 5327TIP3   OH215923   2.293   6.751   1.942
 5327TIP3    H115924   2.368   6.784   1.996
 5327TIP3    H215925   2.336   6.722   1.860
 5328TIP3   OH215926   2.255   6.731   1.459
 5328TIP3    H115927   2.302   6.768   1.381
 5328TIP3    H215928   2.196   6.806   1.478
 5329TIP3   OH215929   3.424   7.447   2.050
 5329TIP3    H115930   3.457   7.375   1.991
 5329TIP3    H215931   3.392   7.393   2.126
 5330TIP3   OH215932   3.100   6.912   1.726
 5330TIP3    H115933   3.018   6.910   1.780
 5330TIP3    H215934   3.169   6.901   1.793
 5331TIP3   OH215935   2.527   6.969   1.732
 5331TIP3    H115936   2.433   6.976   1.703
 5331TIP3    H215937   2.551   6.877   1.710
 5332TIP3   OH215938   2.789   6.963   1.425
 5332TIP3    H115939   2.883   6.976   1.403
 5332TIP3    H215940   2.743   6.984   1.340
 5333TIP3   OH215941   3.585   6.988   1.928
 5333TIP3    H115942   3.554   7.001   2.021
 5333TIP3    H215943   3.516   6.927   1.896
 5334TIP3   OH215944   2.641   7.000   1.198
 5334TIP3    H115945   2.572   6.953   1.148
 5334TIP3    H215946   2.695   7.037   1.125
 5335TIP3   OH215947   2.718   7.781   2.567
 5335TIP3    H115948   2.796   7.810   2.619
 5335TIP3    H215949   2.653   7.772   2.639
 5336TIP3   OH215950   3.173   7.244   1.826
 5336TIP3    H115951   3.244   7.200   1.777
 5336TIP3    H215952   3.175   7.198   1.912
 5337TIP3   OH215953   2.692   6.726   1.709
 5337TIP3    H115954   2.655   6.649   1.759
 5337TIP3    H215955   2.738   6.681   1.636
 5338TIP3   OH215956   3.150   7.145   2.107
 5338TIP3    H115957   3.059   7.177   2.125
 5338TIP3    H215958   3.206   7.204   2.161
 5339TIP3   OH215959   2.889   7.513   1.218
 5339TIP3    H115960   2.812   7.454   1.202
 5339TIP3    H215961   2.861   7.559   1.301
 5340TIP3   OH215962   3.785   7.758   1.837
 5340TIP3    H115963   3.813   7.808   1.757
 5340TIP3    H215964   3.701   7.717   1.807
 5341TIP3   OH215965   3.345   6.834   1.081
 5341TIP3    H115966   3.249   6.814   1.086
 5341TIP3    H215967   3.349   6.929   1.101
 5342TIP3   OH215968   3.297   7.871   2.204
 5342TIP3    H115969   3.333   7.821   2.279
 5342TIP3    H215970   3.211   7.899   2.240
 5343TIP3   OH215971   3.413   7.088   1.179
 5343TIP3    H115972   3.509   7.093   1.190
 5343TIP3    H215973   3.393   7.167   1.125
 5344TIP3   OH215974   2.556   7.496   1.865
 5344TIP3    H115975   2.611   7.489   1.784
 5344TIP3    H215976   2.617   7.461   1.933
 5345TIP3   OH215977   2.996   7.696   1.047
 5345TIP3    H115978   2.961   7.770   1.103
 5345TIP3    H215979   2.959   7.620   1.097
 5346TIP3   OH215980   2.468   7.461   2.498
 5346TIP3    H115981   2.480   7.445   2.594
 5346TIP3    H215982   2.396   7.398   2.478
 5347TIP3   OH215983   3.195   7.575   2.521
 5347TIP3    H115984   3.130   7.522   2.472
 5347TIP3    H215985   3.280   7.539   2.488
 5348TIP3   OH215986   3.854   7.181   1.011
 5348TIP3    H115987   3.790   7.138   0.949
 5348TIP3    H215988   3.851   7.271   0.971
 5349TIP3   OH215989   4.076   8.022   2.089
 5349TIP3    H115990   3.978   8.030   2.080
 5349TIP3    H215991   4.100   8.006   1.995
 5350TIP3   OH215992   3.551   7.632   1.735
 5350TIP3    H115993   3.460   7.605   1.759
 5350TIP3    H215994   3.585   7.547   1.700
 5351TIP3   OH215995   2.247   7.157   1.213
 5351TIP3    H115996   2.295   7.240   1.235
 5351TIP3    H215997   2.172   7.161   1.277
 5352TIP3   OH215998   2.811   7.639   1.454
 5352TIP3    H115999   2.761   7.711   1.497
 5352TIP3    H216000   2.792   7.568   1.518
 5353TIP3   OH216001   3.343   7.835   1.934
 5353TIP3    H116002   3.328   7.847   2.031
 5353TIP3    H216003   3.425   7.783   1.933
 5354TIP3   OH216004   3.351   7.669   0.788
 5354TIP3    H116005   3.382   7.650   0.879
 5354TIP3    H216006   3.268   7.718   0.805
 5355TIP3   OH216007   2.670   6.975   2.501
 5355TIP3    H116008   2.573   6.977   2.513
 5355TIP3    H216009   2.698   6.920   2.576
 5356TIP3   OH216010   3.474   7.635   1.037
 5356TIP3    H116011   3.467   7.563   1.103
 5356TIP3    H216012   3.571   7.631   1.016
 5357TIP3   OH216013   2.662   7.654   0.865
 5357TIP3    H116014   2.700   7.568   0.839
 5357TIP3    H216015   2.696   7.665   0.954
 5358TIP3   OH216016   2.363   7.396   1.291
 5358TIP3    H116017   2.296   7.432   1.353
 5358TIP3    H216018   2.370   7.469   1.227
 5359TIP3   OH216019   3.514   7.038   2.189
 5359TIP3    H116020   3.593   7.077   2.230
 5359TIP3    H216021   3.500   6.957   2.243
 5360TIP3   OH216022   3.392   6.786   1.359
 5360TIP3    H116023   3.378   6.806   1.264
 5360TIP3    H216024   3.432   6.869   1.392
 5361TIP3   OH216025   3.073   6.974   1.457
 5361TIP3    H116026   3.139   7.044   1.440
 5361TIP3    H216027   3.081   6.963   1.554
 5362TIP3   OH216028   3.349   7.287   2.258
 5362TIP3    H116029   3.375   7.338   2.337
 5362TIP3    H216030   3.400   7.205   2.269
 5363TIP3   OH216031   3.218   6.690   1.555
 5363TIP3    H116032   3.211   6.769   1.612
 5363TIP3    H216033   3.282   6.723   1.487
 5364TIP3   OH216034   2.733   6.697   1.345
 5364TIP3    H116035   2.731   6.787   1.385
 5364TIP3    H216036   2.830   6.679   1.352
 5365TIP3   OH216037   3.985   7.188   2.240
 5365TIP3    H116038   3.888   7.190   2.251
 5365TIP3    H216039   3.990   7.134   2.159
 5366TIP3   OH216040   3.638   7.383   1.632
 5366TIP3    H116041   3.561   7.324   1.643
 5366TIP3    H216042   3.708   7.334   1.681
 5367TIP3   OH216043   2.351   7.609   1.104
 5367TIP3    H116044   2.381   7.702   1.094
 5367TIP3    H216045   2.412   7.562   1.043
 5368TIP3   OH216046   2.293   6.887   1.237
 5368TIP3    H116047   2.294   6.985   1.234
 5368TIP3    H216048   2.214   6.866   1.185
 5369TIP3   OH216049   2.683   6.607   2.104
 5369TIP3    H116050   2.654   6.572   2.017
 5369TIP3    H216051   2.673   6.529   2.162
 5370TIP3   OH216052   2.512   7.754   2.746
 5370TIP3    H116053   2.534   7.659   2.753
 5370TIP3    H216054   2.423   7.751   2.705
 5371TIP3   OH216055   2.490   7.414   0.967
 5371TIP3    H116056   2.544   7.380   1.040
 5371TIP3    H216057   2.558   7.418   0.896
 5372TIP3   OH216058   3.133   7.839   2.563
 5372TIP3    H116059   3.100   7.853   2.472
 5372TIP3    H216060   3.169   7.748   2.554
 5373TIP3   OH216061   2.937   7.597   0.773
 5373TIP3    H116062   2.967   7.612   0.864
 5373TIP3    H216063   2.971   7.507   0.756
 5374TIP3   OH216064   3.605   7.860   2.138
 5374TIP3    H116065   3.671   7.920   2.098
 5374TIP3    H216066   3.526   7.916   2.139
 5375TIP3   OH216067   2.636   7.505   2.745
 5375TIP3    H116068   2.715   7.458   2.718
 5375TIP3    H216069   2.663   7.539   2.834
 5376TIP3   OH216070   2.683   7.329   1.168
 5376TIP3    H116071   2.659   7.287   1.252
 5376TIP3    H216072   2.727   7.255   1.119
 5377TIP3   OH216073   2.966   7.393   2.403
 5377TIP3    H116074   2.887   7.452   2.405
 5377TIP3    H216075   3.015   7.430   2.326
 5378TIP3   OH216076   2.800   7.127   1.016
 5378TIP3    H116077   2.776   7.128   0.921
 5378TIP3    H216078   2.898   7.129   1.009
 5379TIP3   OH216079   3.486   7.782   2.533
 5379TIP3    H116080   3.569   7.757   2.491
 5379TIP3    H216081   3.482   7.721   2.610
 5380TIP3   OH216082   3.614   7.481   0.710
 5380TIP3    H116083   3.594   7.421   0.636
 5380TIP3    H216084   3.597   7.566   0.666
 5381TIP3   OH216085   3.089   7.185   2.527
 5381TIP3    H116086   3.089   7.106   2.468
 5381TIP3    H216087   3.045   7.252   2.471
 5382TIP3   OH216088   3.092   6.972   2.336
 5382TIP3    H116089   3.119   7.011   2.251
 5382TIP3    H216090   2.999   6.948   2.318
 5383TIP3   OH216091   3.110   7.510   2.210
 5383TIP3    H116092   3.193   7.517   2.162
 5383TIP3    H216093   3.053   7.576   2.164
 5384TIP3   OH216094   3.695   7.470   2.586
 5384TIP3    H116095   3.744   7.388   2.606
 5384TIP3    H216096   3.766   7.529   2.556
 5385TIP3   OH216097   3.740   7.721   2.326
 5385TIP3    H116098   3.683   7.775   2.266
 5385TIP3    H216099   3.828   7.743   2.287
 5386TIP3   OH216100   2.967   7.288   2.762
 5386TIP3    H116101   2.900   7.219   2.778
 5386TIP3    H216102   3.000   7.263   2.673
 5387TIP3   OH216103   3.222   6.732   2.407
 5387TIP3    H116104   3.173   6.813   2.384
 5387TIP3    H216105   3.154   6.663   2.396
 5388TIP3   OH216106   3.349   7.233   2.621
 5388TIP3    H116107   3.334   7.218   2.716
 5388TIP3    H216108   3.259   7.210   2.587
 5389TIP3   OH216109   3.586   7.182   2.476
 5389TIP3    H116110   3.512   7.185   2.539
 5389TIP3    H216111   3.661   7.154   2.532
 5390TIP3   OH216112   3.820   7.127   2.622
 5390TIP3    H116113   3.832   7.032   2.640
 5390TIP3    H216114   3.812   7.165   2.713
 5391TIP3   OH216115   2.805   7.069   2.818
 5391TIP3    H116116   2.809   6.976   2.785
 5391TIP3    H216117   2.844   7.058   2.907
 5392TIP3   OH216118   3.314   6.741   2.666
 5392TIP3    H116119   3.381   6.670   2.659
 5392TIP3    H216120   3.275   6.737   2.577
 5393TIP3   OH216121   3.383   6.956   2.823
 5393TIP3    H116122   3.361   6.885   2.759
 5393TIP3    H216123   3.304   7.014   2.816
 5394TIP3   OH216124   2.079   7.530   1.103
 5394TIP3    H116125   2.170   7.566   1.102
 5394TIP3    H216126   2.092   7.439   1.069
 5395TIP3   OH216127   3.974   8.149   2.370
 5395TIP3    H116128   3.895   8.128   2.426
 5395TIP3    H216129   4.003   8.232   2.410
 5396TIP3   OH216130   3.747   7.632   1.025
 5396TIP3    H116131   3.819   7.690   0.992
 5396TIP3    H216132   3.790   7.592   1.103
 5397TIP3   OH216133   3.881   7.503   1.220
 5397TIP3    H116134   3.818   7.459   1.281
 5397TIP3    H216135   3.951   7.537   1.280
 5398TIP3   OH216136   3.923   7.894   1.646
 5398TIP3    H116137   3.987   7.834   1.602
 5398TIP3    H216138   3.930   7.975   1.593
 5399TIP3   OH216139   3.826   7.417   0.870
 5399TIP3    H116140   3.753   7.424   0.805
 5399TIP3    H216141   3.797   7.489   0.931
 5400TIP3   OH216142   3.688   7.090   0.820
 5400TIP3    H116143   3.678   7.121   0.728
 5400TIP3    H216144   3.661   6.996   0.811
 5401TIP3   OH216145   3.696   7.362   1.364
 5401TIP3    H116146   3.702   7.265   1.354
 5401TIP3    H216147   3.680   7.372   1.461
 5402TIP3   OH216148   2.318   7.444   2.111
 5402TIP3    H116149   2.314   7.405   2.021
 5402TIP3    H216150   2.415   7.442   2.127
 5403TIP3   OH216151   3.985   7.787   2.222
 5403TIP3    H116152   4.056   7.721   2.209
 5403TIP3    H216153   4.009   7.857   2.158
 5404TIP3   OH216154   4.170   7.589   2.225
 5404TIP3    H116155   4.094   7.542   2.266
 5404TIP3    H216156   4.242   7.526   2.246
 5405TIP3   OH216157   3.631   6.825   0.801
 5405TIP3    H116158   3.702   6.789   0.857
 5405TIP3    H216159   3.556   6.764   0.816
 5406TIP3   OH216160   3.694   7.083   1.253
 5406TIP3    H116161   3.734   6.994   1.268
 5406TIP3    H216162   3.750   7.114   1.179
 5407TIP3   OH216163   3.850   7.249   1.752
 5407TIP3    H116164   3.936   7.274   1.710
 5407TIP3    H216165   3.865   7.287   1.841
 5408TIP3   OH216166   3.924   7.398   1.980
 5408TIP3    H116167   3.848   7.431   2.032
 5408TIP3    H216168   3.957   7.480   1.938
 5409TIP3   OH216169   2.539   7.121   2.783
 5409TIP3    H116170   2.637   7.116   2.789
 5409TIP3    H216171   2.515   7.034   2.822
 5410TIP3   OH216172   4.374   6.998   2.534
 5410TIP3    H116173   4.434   6.932   2.495
 5410TIP3    H216174   4.343   7.047   2.455
 5411TIP3   OH216175   3.799   6.833   1.294
 5411TIP3    H116176   3.847   6.814   1.378
 5411TIP3    H216177   3.738   6.756   1.291
 5412TIP3   OH216178   2.500   6.817   2.116
 5412TIP3    H116179   2.561   6.741   2.123
 5412TIP3    H216180   2.563   6.890   2.106
 5413TIP3   OH216181   2.298   7.089   2.185
 5413TIP3    H116182   2.350   7.085   2.102
 5413TIP3    H216183   2.330   7.171   2.224
 5414TIP3   OH216184   4.241   7.128   2.336
 5414TIP3    H116185   4.156   7.170   2.359
 5414TIP3    H216186   4.208   7.053   2.282
 5415TIP3   OH216187   3.877   6.762   0.933
 5415TIP3    H116188   3.912   6.692   0.873
 5415TIP3    H216189   3.944   6.832   0.925
 5416TIP3   OH216190   2.288   6.592   1.688
 5416TIP3    H116191   2.195   6.586   1.717
 5416TIP3    H216192   2.280   6.651   1.610
 5417TIP3   OH216193   2.507   6.673   2.502
 5417TIP3    H116194   2.455   6.668   2.584
 5417TIP3    H216195   2.441   6.710   2.441
 5418TIP3   OH216196   4.143   6.888   2.223
 5418TIP3    H116197   4.053   6.876   2.190
 5418TIP3    H216198   4.178   6.797   2.215
 5419TIP3   OH216199   3.347   6.804   1.845
 5419TIP3    H116200   3.306   6.732   1.896
 5419TIP3    H216201   3.421   6.759   1.800
 5420TIP3   OH216202   3.867   6.690   1.748
 5420TIP3    H116203   3.902   6.740   1.671
 5420TIP3    H216204   3.771   6.706   1.740
 5421TIP3   OH216205   3.964   6.784   1.511
 5421TIP3    H116206   4.038   6.732   1.473
 5421TIP3    H216207   3.998   6.875   1.496
 5422TIP3   OH216208   2.595   6.512   1.857
 5422TIP3    H116209   2.502   6.479   1.861
 5422TIP3    H216210   2.643   6.426   1.854
 5423TIP3   OH216211   2.382   6.387   1.510
 5423TIP3    H116212   2.414   6.441   1.436
 5423TIP3    H216213   2.358   6.454   1.576
 5424TIP3   OH216214   3.042   6.547   1.740
 5424TIP3    H116215   3.099   6.593   1.676
 5424TIP3    H216216   3.074   6.583   1.824
 5425TIP3   OH216217   3.583   6.694   1.722
 5425TIP3    H116218   3.585   6.651   1.635
 5425TIP3    H216219   3.573   6.616   1.781
 5426TIP3   OH216220   3.617   6.620   1.287
 5426TIP3    H116221   3.531   6.662   1.304
 5426TIP3    H216222   3.604   6.533   1.331
 5427TIP3   OH216223   2.504   6.543   1.268
 5427TIP3    H116224   2.551   6.478   1.211
 5427TIP3    H216225   2.579   6.595   1.303
 5428TIP3   OH216226   3.010   6.723   1.368
 5428TIP3    H116227   3.069   6.674   1.427
 5428TIP3    H216228   3.033   6.815   1.394
 5429TIP3   OH216229   2.803   6.794   2.750
 5429TIP3    H116230   2.767   6.723   2.807
 5429TIP3    H216231   2.897   6.794   2.778
 5430TIP3   OH216232   3.053   6.792   2.868
 5430TIP3    H116233   3.139   6.768   2.829
 5430TIP3    H216234   3.042   6.722   2.935
 5431TIP3   OH216235   3.881   6.856   2.657
 5431TIP3    H116236   3.898   6.826   2.749
 5431TIP3    H216237   3.971   6.851   2.618
 5432TIP3   OH216238   5.078   7.774   0.919
 5432TIP3    H116239   5.051   7.863   0.890
 5432TIP3    H216240   5.012   7.719   0.874
 5433TIP3   OH216241   5.086   7.779   1.300
 5433TIP3    H116242   5.123   7.757   1.388
 5433TIP3    H216243   5.044   7.695   1.274
 5434TIP3   OH216244   4.378   7.671   1.663
 5434TIP3    H116245   4.409   7.603   1.725
 5434TIP3    H216246   4.456   7.727   1.656
 5435TIP3   OH216247   5.303   8.082   0.985
 5435TIP3    H116248   5.307   8.002   1.040
 5435TIP3    H216249   5.358   8.143   1.036
 5436TIP3   OH216250   4.414   8.022   1.467
 5436TIP3    H116251   4.383   7.935   1.434
 5436TIP3    H216252   4.497   8.034   1.415
 5437TIP3   OH216253   4.062   7.283   1.163
 5437TIP3    H116254   4.015   7.366   1.182
 5437TIP3    H216255   3.990   7.232   1.120
 5438TIP3   OH216256   4.115   7.574   1.349
 5438TIP3    H116257   4.164   7.495   1.380
 5438TIP3    H216258   4.186   7.627   1.310
 5439TIP3   OH216259   4.898   7.994   1.337
 5439TIP3    H116260   4.948   7.917   1.305
 5439TIP3    H216261   4.975   8.050   1.364
 5440TIP3   OH216262   5.898   7.325   1.344
 5440TIP3    H116263   5.927   7.409   1.385
 5440TIP3    H216264   5.915   7.343   1.250
 5441TIP3   OH216265   5.295   7.503   1.374
 5441TIP3    H116266   5.338   7.417   1.393
 5441TIP3    H216267   5.264   7.487   1.283
 5442TIP3   OH216268   4.638   7.166   1.337
 5442TIP3    H116269   4.616   7.238   1.275
 5442TIP3    H216270   4.589   7.092   1.295
 5443TIP3   OH216271   5.327   7.260   0.955
 5443TIP3    H116272   5.399   7.244   1.021
 5443TIP3    H216273   5.380   7.287   0.878
 5444TIP3   OH216274   4.266   7.368   1.448
 5444TIP3    H116275   4.349   7.348   1.496
 5444TIP3    H216276   4.280   7.313   1.368
 5445TIP3   OH216277   4.704   7.565   1.246
 5445TIP3    H116278   4.798   7.541   1.256
 5445TIP3    H216279   4.665   7.481   1.213
 5446TIP3   OH216280   5.972   7.537   1.512
 5446TIP3    H116281   5.885   7.580   1.494
 5446TIP3    H216282   5.991   7.571   1.601
 5447TIP3   OH216283   4.630   7.150   1.776
 5447TIP3    H116284   4.570   7.187   1.707
 5447TIP3    H216285   4.576   7.167   1.856
 5448TIP3   OH216286   4.958   7.975   0.740
 5448TIP3    H116287   4.876   7.921   0.726
 5448TIP3    H216288   4.915   8.051   0.786
 5449TIP3   OH216289   4.733   7.931   1.566
 5449TIP3    H116290   4.669   7.998   1.596
 5449TIP3    H216291   4.770   7.975   1.487
 5450TIP3   OH216292   5.528   7.267   1.141
 5450TIP3    H116293   5.511   7.222   1.224
 5450TIP3    H216294   5.580   7.344   1.170
 5451TIP3   OH216295   4.503   7.264   1.557
 5451TIP3    H116296   4.564   7.337   1.580
 5451TIP3    H216297   4.553   7.224   1.482
 5452TIP3   OH216298   4.556   8.145   1.676
 5452TIP3    H116299   4.513   8.132   1.588
 5452TIP3    H216300   4.477   8.141   1.733
 5453TIP3   OH216301   3.955   7.774   0.913
 5453TIP3    H116302   3.913   7.796   0.828
 5453TIP3    H216303   3.972   7.864   0.945
 5454TIP3   OH216304   5.690   7.225   1.509
 5454TIP3    H116305   5.602   7.249   1.475
 5454TIP3    H216306   5.749   7.257   1.438
 5455TIP3   OH216307   4.982   6.864   1.494
 5455TIP3    H116308   4.964   6.769   1.511
 5455TIP3    H216309   4.904   6.905   1.540
 5456TIP3   OH216310   5.626   8.233   1.490
 5456TIP3    H116311   5.606   8.156   1.433
 5456TIP3    H216312   5.551   8.294   1.470
 5457TIP3   OH216313   4.921   7.632   0.739
 5457TIP3    H116314   4.836   7.681   0.735
 5457TIP3    H216315   4.945   7.632   0.645
 5458TIP3   OH216316   5.814   7.874   1.329
 5458TIP3    H116317   5.730   7.923   1.338
 5458TIP3    H216318   5.841   7.902   1.239
 5459TIP3   OH216319   5.266   7.723   0.727
 5459TIP3    H116320   5.210   7.743   0.805
 5459TIP3    H216321   5.349   7.693   0.770
 5460TIP3   OH216322   5.495   7.750   1.633
 5460TIP3    H116323   5.494   7.835   1.681
 5460TIP3    H216324   5.408   7.755   1.588
 5461TIP3   OH216325   4.498   7.708   1.127
 5461TIP3    H116326   4.459   7.648   1.060
 5461TIP3    H216327   4.575   7.657   1.159
 5462TIP3   OH216328   4.636   8.076   1.332
 5462TIP3    H116329   4.597   8.071   1.242
 5462TIP3    H216330   4.733   8.068   1.314
 5463TIP3   OH216331   4.623   7.688   1.486
 5463TIP3    H116332   4.660   7.660   1.399
 5463TIP3    H216333   4.670   7.772   1.503
 5464TIP3   OH216334   4.802   8.141   1.817
 5464TIP3    H116335   4.766   8.230   1.833
 5464TIP3    H216336   4.734   8.106   1.757
 5465TIP3   OH216337   4.525   7.791   1.917
 5465TIP3    H116338   4.531   7.879   1.957
 5465TIP3    H216339   4.431   7.769   1.934
 5466TIP3   OH216340   4.366   7.549   0.935
 5466TIP3    H116341   4.294   7.590   0.882
 5466TIP3    H216342   4.330   7.461   0.953
 5467TIP3   OH216343   4.162   7.939   1.844
 5467TIP3    H116344   4.090   7.918   1.782
 5467TIP3    H216345   4.194   7.850   1.871
 5468TIP3   OH216346   5.751   7.712   1.810
 5468TIP3    H116347   5.666   7.727   1.766
 5468TIP3    H216348   5.764   7.616   1.796
 5469TIP3   OH216349   4.340   8.150   1.859
 5469TIP3    H116350   4.400   8.107   1.923
 5469TIP3    H216351   4.274   8.079   1.843
 5470TIP3   OH216352   4.745   6.944   1.622
 5470TIP3    H116353   4.657   6.914   1.592
 5470TIP3    H216354   4.717   7.024   1.671
 5471TIP3   OH216355   5.281   7.058   1.815
 5471TIP3    H116356   5.349   7.029   1.879
 5471TIP3    H216357   5.197   7.039   1.863
 5472TIP3   OH216358   5.518   7.490   1.735
 5472TIP3    H116359   5.464   7.488   1.818
 5472TIP3    H216360   5.493   7.576   1.697
 5473TIP3   OH216361   4.906   7.004   0.595
 5473TIP3    H116362   4.862   6.984   0.680
 5473TIP3    H216363   4.877   6.928   0.541
 5474TIP3   OH216364   4.677   7.465   1.635
 5474TIP3    H116365   4.627   7.482   1.717
 5474TIP3    H216366   4.658   7.546   1.584
 5475TIP3   OH216367   4.560   7.347   1.152
 5475TIP3    H116368   4.468   7.320   1.171
 5475TIP3    H216369   4.572   7.306   1.064
 5476TIP3   OH216370   5.048   7.436   0.881
 5476TIP3    H116371   4.992   7.504   0.838
 5476TIP3    H216372   5.122   7.433   0.820
 5477TIP3   OH216373   5.230   7.701   1.960
 5477TIP3    H116374   5.206   7.631   2.025
 5477TIP3    H216375   5.322   7.719   1.985
 5478TIP3   OH216376   5.210   7.459   1.117
 5478TIP3    H116377   5.145   7.488   1.050
 5478TIP3    H216378   5.245   7.380   1.069
 5479TIP3   OH216379   4.498   7.487   1.844
 5479TIP3    H116380   4.524   7.551   1.912
 5479TIP3    H216381   4.484   7.405   1.896
 5480TIP3   OH216382   4.531   6.938   0.580
 5480TIP3    H116383   4.523   6.952   0.676
 5480TIP3    H216384   4.499   7.022   0.543
 5481TIP3   OH216385   4.088   7.009   1.430
 5481TIP3    H116386   4.165   7.040   1.481
 5481TIP3    H216387   4.128   6.978   1.346
 5482TIP3   OH216388   4.053   6.989   0.945
 5482TIP3    H116389   4.102   7.025   0.868
 5482TIP3    H216390   3.992   7.063   0.963
 5483TIP3   OH216391   5.220   7.702   1.537
 5483TIP3    H116392   5.252   7.630   1.478
 5483TIP3    H216393   5.187   7.649   1.612
 5484TIP3   OH216394   4.896   7.164   1.212
 5484TIP3    H116395   4.813   7.165   1.265
 5484TIP3    H216396   4.964   7.160   1.280
 5485TIP3   OH216397   4.322   7.226   1.218
 5485TIP3    H116398   4.228   7.234   1.190
 5485TIP3    H216399   4.344   7.133   1.198
 5486TIP3   OH216400   4.588   7.222   0.912
 5486TIP3    H116401   4.682   7.235   0.890
 5486TIP3    H216402   4.541   7.252   0.831
 5487TIP3   OH216403   5.383   7.242   1.417
 5487TIP3    H116404   5.350   7.256   1.509
 5487TIP3    H216405   5.313   7.183   1.383
 5488TIP3   OH216406   4.422   7.273   0.698
 5488TIP3    H116407   4.342   7.228   0.668
 5488TIP3    H216408   4.486   7.249   0.627
 5489TIP3   OH216409   4.510   8.041   2.053
 5489TIP3    H116410   4.589   8.062   2.106
 5489TIP3    H216411   4.445   8.024   2.124
 5490TIP3   OH216412   4.970   7.499   1.311
 5490TIP3    H116413   5.044   7.458   1.264
 5490TIP3    H216414   4.973   7.454   1.397
 5491TIP3   OH216415   4.490   6.982   1.195
 5491TIP3    H116416   4.452   6.906   1.245
 5491TIP3    H216417   4.523   6.938   1.115
 5492TIP3   OH216418   4.946   7.399   1.596
 5492TIP3    H116419   4.855   7.433   1.612
 5492TIP3    H216420   5.002   7.461   1.648
 5493TIP3   OH216421   4.701   7.786   0.707
 5493TIP3    H116422   4.630   7.722   0.687
 5493TIP3    H216423   4.667   7.826   0.789
 5494TIP3   OH216424   5.578   8.012   1.327
 5494TIP3    H116425   5.607   8.062   1.248
 5494TIP3    H216426   5.494   7.972   1.297
 5495TIP3   OH216427   5.107   8.118   1.689
 5495TIP3    H116428   5.119   8.073   1.773
 5495TIP3    H216429   5.055   8.196   1.716
 5496TIP3   OH216430   4.359   7.764   1.359
 5496TIP3    H116431   4.408   7.753   1.275
 5496TIP3    H216432   4.418   7.719   1.422
 5497TIP3   OH216433   4.262   7.717   1.984
 5497TIP3    H116434   4.271   7.698   2.080
 5497TIP3    H216435   4.190   7.656   1.960
 5498TIP3   OH216436   4.990   7.827   2.010
 5498TIP3    H116437   4.925   7.777   1.958
 5498TIP3    H216438   5.074   7.793   1.974
 5499TIP3   OH216439   5.879   8.278   1.572
 5499TIP3    H116440   5.782   8.281   1.555
 5499TIP3    H216441   5.911   8.262   1.480
 5500TIP3   OH216442   5.348   7.888   1.226
 5500TIP3    H116443   5.256   7.865   1.247
 5500TIP3    H216444   5.381   7.803   1.190
 5501TIP3   OH216445   4.052   7.404   0.714
 5501TIP3    H116446   4.095   7.491   0.731
 5501TIP3    H216447   3.971   7.413   0.769
 5502TIP3   OH216448   4.614   7.881   0.944
 5502TIP3    H116449   4.585   7.968   0.973
 5502TIP3    H216450   4.580   7.825   1.016
 5503TIP3   OH216451   5.139   8.087   1.420
 5503TIP3    H116452   5.125   8.099   1.517
 5503TIP3    H216453   5.226   8.046   1.419
 5504TIP3   OH216454   4.465   7.232   1.987
 5504TIP3    H116455   4.368   7.236   1.999
 5504TIP3    H216456   4.491   7.176   2.062
 5505TIP3   OH216457   4.162   7.651   0.784
 5505TIP3    H116458   4.093   7.689   0.843
 5505TIP3    H216459   4.176   7.724   0.721
 5506TIP3   OH216460   5.310   7.295   1.677
 5506TIP3    H116461   5.390   7.333   1.716
 5506TIP3    H216462   5.296   7.214   1.730
 5507TIP3   OH216463   5.175   7.047   0.848
 5507TIP3    H116464   5.143   7.077   0.762
 5507TIP3    H216465   5.228   7.124   0.880
 5508TIP3   OH216466   4.870   7.229   0.942
 5508TIP3    H116467   4.935   7.300   0.924
 5508TIP3    H216468   4.878   7.219   1.040
 5509TIP3   OH216469   5.144   7.542   1.744
 5509TIP3    H116470   5.171   7.594   1.823
 5509TIP3    H216471   5.196   7.461   1.754
 5510TIP3   OH216472   5.014   6.945   1.044
 5510TIP3    H116473   5.004   7.025   1.100
 5510TIP3    H216474   5.076   6.979   0.975
 5511TIP3   OH216475   4.530   6.957   0.854
 5511TIP3    H116476   4.531   7.049   0.886
 5511TIP3    H216477   4.626   6.939   0.852
 5512TIP3   OH216478   5.783   7.443   1.732
 5512TIP3    H116479   5.685   7.445   1.740
 5512TIP3    H216480   5.791   7.397   1.647
 5513TIP3   OH216481   5.436   7.641   1.126
 5513TIP3    H116482   5.359   7.581   1.131
 5513TIP3    H216483   5.506   7.590   1.172
 5514TIP3   OH216484   4.161   7.864   0.599
 5514TIP3    H116485   4.188   7.954   0.625
 5514TIP3    H216486   4.152   7.876   0.503
 5515TIP3   OH216487   4.100   7.140   0.718
 5515TIP3    H116488   4.094   7.237   0.725
 5515TIP3    H216489   4.013   7.118   0.682
 5516TIP3   OH216490   4.481   6.864   1.590
 5516TIP3    H116491   4.450   6.829   1.504
 5516TIP3    H216492   4.470   6.786   1.648
 5517TIP3   OH216493   4.304   8.009   2.234
 5517TIP3    H116494   4.326   7.914   2.241
 5517TIP3    H216495   4.216   8.006   2.191
 5518TIP3   OH216496   4.922   8.089   2.053
 5518TIP3    H116497   4.886   8.103   1.962
 5518TIP3    H216498   4.959   7.999   2.044
 5519TIP3   OH216499   5.401   8.112   1.628
 5519TIP3    H116500   5.460   8.176   1.587
 5519TIP3    H216501   5.320   8.165   1.641
 5520TIP3   OH216502   4.433   7.764   2.230
 5520TIP3    H116503   4.508   7.709   2.204
 5520TIP3    H216504   4.460   7.794   2.319
 5521TIP3   OH216505   4.512   7.583   0.680
 5521TIP3    H116506   4.465   7.553   0.759
 5521TIP3    H216507   4.529   7.500   0.634
 5522TIP3   OH216508   4.762   7.650   1.890
 5522TIP3    H116509   4.683   7.708   1.891
 5522TIP3    H216510   4.812   7.686   1.812
 5523TIP3   OH216511   5.279   8.047   2.016
 5523TIP3    H116512   5.362   8.027   1.970
 5523TIP3    H216513   5.279   7.982   2.089
 5524TIP3   OH216514   4.887   7.442   2.013
 5524TIP3    H116515   4.886   7.363   1.955
 5524TIP3    H216516   4.842   7.509   1.957
 5525TIP3   OH216517   4.888   7.228   1.823
 5525TIP3    H116518   4.915   7.268   1.739
 5525TIP3    H216519   4.795   7.204   1.805
 5526TIP3   OH216520   4.908   7.765   1.696
 5526TIP3    H116521   4.993   7.778   1.652
 5526TIP3    H216522   4.851   7.831   1.652
 5527TIP3   OH216523   5.495   7.728   2.075
 5527TIP3    H116524   5.546   7.646   2.073
 5527TIP3    H216525   5.559   7.793   2.042
 5528TIP3   OH216526   5.537   7.975   1.813
 5528TIP3    H116527   5.478   8.029   1.755
 5528TIP3    H216528   5.624   8.000   1.774
 5529TIP3   OH216529   4.767   7.544   2.252
 5529TIP3    H116530   4.699   7.475   2.266
 5529TIP3    H216531   4.797   7.522   2.161
 5530TIP3   OH216532   5.019   6.988   1.894
 5530TIP3    H116533   4.969   7.069   1.870
 5530TIP3    H216534   4.950   6.919   1.883
 5531TIP3   OH216535   5.145   7.488   2.108
 5531TIP3    H116536   5.125   7.473   2.202
 5531TIP3    H216537   5.057   7.467   2.070
 5532TIP3   OH216538   5.385   7.442   1.965
 5532TIP3    H116539   5.308   7.443   2.026
 5532TIP3    H216540   5.457   7.411   2.023
 5533TIP3   OH216541   5.622   7.387   2.114
 5533TIP3    H116542   5.630   7.290   2.128
 5533TIP3    H216543   5.613   7.420   2.206
 5534TIP3   OH216544   4.604   7.325   2.303
 5534TIP3    H116545   4.604   7.233   2.271
 5534TIP3    H216546   4.641   7.313   2.393
 5535TIP3   OH216547   5.113   6.999   2.151
 5535TIP3    H116548   5.177   6.926   2.145
 5535TIP3    H216549   5.072   6.994   2.063
 5536TIP3   OH216550   5.180   7.213   2.309
 5536TIP3    H116551   5.158   7.141   2.245
 5536TIP3    H216552   5.101   7.270   2.302
 5537TIP3   OH216553   3.885   7.799   0.597
 5537TIP3    H116554   3.982   7.809   0.605
 5537TIP3    H216555   3.876   7.703   0.579
 5538TIP3   OH216556   5.769   8.401   1.853
 5538TIP3    H116557   5.697   8.380   1.916
 5538TIP3    H216558   5.804   8.483   1.888
 5539TIP3   OH216559   5.718   8.144   1.137
 5539TIP3    H116560   5.783   8.091   1.087
 5539TIP3    H216561   5.720   8.230   1.095
 5540TIP3   OH216562   5.475   7.611   0.855
 5540TIP3    H116563   5.496   7.517   0.849
 5540TIP3    H216564   5.474   7.628   0.951
 5541TIP3   OH216565   4.114   7.701   1.597
 5541TIP3    H116566   4.110   7.662   1.508
 5541TIP3    H216567   4.212   7.700   1.613
 5542TIP3   OH216568   5.779   8.044   1.709
 5542TIP3    H116569   5.855   7.983   1.698
 5542TIP3    H216570   5.802   8.117   1.649
 5543TIP3   OH216571   5.968   7.846   1.718
 5543TIP3    H116572   5.891   7.801   1.759
 5543TIP3    H216573   6.038   7.779   1.735
 5544TIP3   OH216574   5.481   7.328   0.734
 5544TIP3    H116575   5.521   7.239   0.752
 5544TIP3    H216576   5.553   7.370   0.685
 5545TIP3   OH216577   5.647   7.502   1.242
 5545TIP3    H116578   5.732   7.529   1.200
 5545TIP3    H216579   5.661   7.542   1.330
 5546TIP3   OH216580   5.719   7.654   1.469
 5546TIP3    H116581   5.642   7.688   1.519
 5546TIP3    H216582   5.749   7.735   1.422
 5547TIP3   OH216583   4.338   7.382   2.276
 5547TIP3    H116584   4.436   7.373   2.278
 5547TIP3    H216585   4.312   7.294   2.309
 5548TIP3   OH216586   6.170   7.250   2.027
 5548TIP3    H116587   6.231   7.186   1.984
 5548TIP3    H216588   6.137   7.301   1.950
 5549TIP3   OH216589   5.581   7.088   0.793
 5549TIP3    H116590   5.638   7.067   0.869
 5549TIP3    H216591   5.528   7.005   0.787
 5550TIP3   OH216592   4.297   7.073   1.601
 5550TIP3    H116593   4.358   6.997   1.609
 5550TIP3    H216594   4.361   7.147   1.592
 5551TIP3   OH216595   4.095   7.345   1.672
 5551TIP3    H116596   4.146   7.341   1.588
 5551TIP3    H216597   4.128   7.427   1.711
 5552TIP3   OH216598   6.034   7.378   1.830
 5552TIP3    H116599   5.947   7.424   1.837
 5552TIP3    H216600   6.008   7.304   1.772
 5553TIP3   OH216601   4.084   6.853   1.176
 5553TIP3    H116602   3.991   6.843   1.203
 5553TIP3    H216603   4.076   6.909   1.096
 5554TIP3   OH216604   4.304   6.929   1.988
 5554TIP3    H116605   4.252   6.924   2.070
 5554TIP3    H216606   4.238   6.967   1.927
 5555TIP3   OH216607   5.939   7.143   1.710
 5555TIP3    H116608   5.849   7.132   1.674
 5555TIP3    H216609   5.974   7.051   1.700
 5556TIP3   OH216610   5.146   7.063   1.335
 5556TIP3    H116611   5.103   6.990   1.384
 5556TIP3    H216612   5.219   7.017   1.288
 5557TIP3   OH216613   5.660   6.947   1.238
 5557TIP3    H116614   5.696   6.998   1.162
 5557TIP3    H216615   5.565   6.965   1.230
 5558TIP3   OH216616   5.759   7.044   1.004
 5558TIP3    H116617   5.833   6.993   0.965
 5558TIP3    H216618   5.788   7.136   0.982
 5559TIP3   OH216619   4.392   6.769   1.344
 5559TIP3    H116620   4.299   6.737   1.347
 5559TIP3    H216621   4.439   6.683   1.339
 5560TIP3   OH216622   4.193   6.644   0.998
 5560TIP3    H116623   4.213   6.700   0.921
 5560TIP3    H216624   4.159   6.710   1.062
 5561TIP3   OH216625   4.842   6.799   1.227
 5561TIP3    H116626   4.896   6.848   1.163
 5561TIP3    H216627   4.865   6.843   1.310
 5562TIP3   OH216628   5.379   6.951   1.208
 5562TIP3    H116629   5.381   6.916   1.118
 5562TIP3    H216630   5.367   6.870   1.262
 5563TIP3   OH216631   5.414   6.876   0.821
 5563TIP3    H116632   5.324   6.909   0.803
 5563TIP3    H216633   5.397   6.784   0.848
 5564TIP3   OH216634   4.297   6.804   0.764
 5564TIP3    H116635   4.341   6.742   0.701
 5564TIP3    H216636   4.374   6.853   0.800
 5565TIP3   OH216637   4.806   6.975   0.857
 5565TIP3    H116638   4.869   6.931   0.917
 5565TIP3    H216639   4.828   7.069   0.877
 5566TIP3   OH216640   4.599   7.052   2.238
 5566TIP3    H116641   4.563   6.980   2.294
 5566TIP3    H216642   4.693   7.050   2.267
 5567TIP3   OH216643   4.850   7.049   2.357
 5567TIP3    H116644   4.934   7.020   2.318
 5567TIP3    H216645   4.835   6.980   2.425
 5568TIP3   OH216646   5.677   7.115   2.141
 5568TIP3    H116647   5.694   7.082   2.233
 5568TIP3    H216648   5.766   7.107   2.101
 5569TIP3   OH216649   6.172   7.922   1.138
 5569TIP3    H116650   6.224   7.878   1.208
 5569TIP3    H216651   6.243   7.955   1.078
 5570TIP3   OH216652   6.052   7.624   0.947
 5570TIP3    H116653   6.142   7.596   0.972
 5570TIP3    H216654   6.036   7.573   0.867
 5571TIP3   OH216655   6.412   7.402   1.269
 5571TIP3    H116656   6.355   7.439   1.200
 5571TIP3    H216657   6.358   7.420   1.349
 5572TIP3   OH216658   6.300   7.509   1.030
 5572TIP3    H116659   6.349   7.589   1.060
 5572TIP3    H216660   6.363   7.472   0.967
 5573TIP3   OH216661   6.773   7.127   0.989
 5573TIP3    H116662   6.761   7.031   0.999
 5573TIP3    H216663   6.689   7.161   1.026
 5574TIP3   OH216664   6.280   8.064   1.404
 5574TIP3    H116665   6.266   8.135   1.468
 5574TIP3    H216666   6.190   8.023   1.408
 5575TIP3   OH216667   5.953   8.189   1.328
 5575TIP3    H116668   5.871   8.180   1.278
 5575TIP3    H216669   5.975   8.099   1.356
 5576TIP3   OH216670   6.532   7.207   1.113
 5576TIP3    H116671   6.444   7.172   1.084
 5576TIP3    H216672   6.501   7.279   1.171
 5577TIP3   OH216673   7.051   7.277   1.332
 5577TIP3    H116674   7.083   7.315   1.415
 5577TIP3    H216675   6.955   7.268   1.351
 5578TIP3   OH216676   6.452   7.712   1.121
 5578TIP3    H116677   6.408   7.740   1.204
 5578TIP3    H216678   6.499   7.792   1.095
 5579TIP3   OH216679   6.307   7.752   1.349
 5579TIP3    H116680   6.293   7.816   1.420
 5579TIP3    H216681   6.293   7.668   1.395
 5580TIP3   OH216682   5.889   7.265   0.916
 5580TIP3    H116683   5.958   7.295   0.979
 5580TIP3    H216684   5.935   7.256   0.833
 5581TIP3   OH216685   6.037   7.962   1.475
 5581TIP3    H116686   6.042   7.941   1.571
 5581TIP3    H216687   5.960   7.909   1.448
 5582TIP3   OH216688   6.259   7.488   1.478
 5582TIP3    H116689   6.163   7.491   1.490
 5582TIP3    H216690   6.287   7.435   1.556
 5583TIP3   OH216691   6.273   7.123   1.088
 5583TIP3    H116692   6.240   7.091   1.001
 5583TIP3    H216693   6.264   7.043   1.144
 5584TIP3   OH216694   6.121   8.273   1.700
 5584TIP3    H116695   6.148   8.180   1.701
 5584TIP3    H216696   6.030   8.267   1.663
 5585TIP3   OH216697   6.242   8.020   1.707
 5585TIP3    H116698   6.317   7.960   1.698
 5585TIP3    H216699   6.252   8.048   1.801
 5586TIP3   OH216700   6.632   7.701   1.511
 5586TIP3    H116701   6.674   7.619   1.481
 5586TIP3    H216702   6.626   7.752   1.430
 5587TIP3   OH216703   6.663   7.507   1.277
 5587TIP3    H116704   6.634   7.543   1.192
 5587TIP3    H216705   6.577   7.469   1.306
 5588TIP3   OH216706   6.546   7.814   1.745
 5588TIP3    H116707   6.492   7.738   1.772
 5588TIP3    H216708   6.580   7.781   1.659
 5589TIP3   OH216709   6.782   7.249   1.386
 5589TIP3    H116710   6.727   7.322   1.354
 5589TIP3    H216711   6.723   7.172   1.374
 5590TIP3   OH216712   6.397   7.582   1.794
 5590TIP3    H116713   6.410   7.494   1.755
 5590TIP3    H216714   6.437   7.569   1.883
 5591TIP3   OH216715   6.905   7.244   1.633
 5591TIP3    H116716   6.978   7.180   1.622
 5591TIP3    H216717   6.857   7.234   1.549
 5592TIP3   OH216718   6.968   7.448   1.803
 5592TIP3    H116719   6.952   7.382   1.733
 5592TIP3    H216720   6.894   7.510   1.792
 5593TIP3   OH216721   5.912   7.950   1.077
 5593TIP3    H116722   5.919   7.894   0.998
 5593TIP3    H216723   6.007   7.951   1.105
 5594TIP3   OH216724   6.131   7.630   1.755
 5594TIP3    H116725   6.228   7.629   1.765
 5594TIP3    H216726   6.108   7.544   1.796
 5595TIP3   OH216727   6.090   7.330   1.090
 5595TIP3    H116728   6.149   7.253   1.101
 5595TIP3    H216729   6.156   7.401   1.078
 5596TIP3   OH216730   5.891   7.602   1.169
 5596TIP3    H116731   5.943   7.606   1.086
 5596TIP3    H216732   5.917   7.685   1.211
 5597TIP3   OH216733   6.097   7.186   1.476
 5597TIP3    H116734   6.045   7.180   1.557
 5597TIP3    H216735   6.031   7.225   1.415
 5598TIP3   OH216736   6.180   7.028   0.853
 5598TIP3    H116737   6.088   6.995   0.852
 5598TIP3    H216738   6.228   6.947   0.827
 5599TIP3   OH216739   6.393   7.304   1.717
 5599TIP3    H116740   6.357   7.237   1.778
 5599TIP3    H216741   6.488   7.304   1.747
 5600TIP3   OH216742   6.641   7.299   1.836
 5600TIP3    H116743   6.732   7.295   1.803
 5600TIP3    H216744   6.641   7.228   1.903
 5601TIP3   OH216745   1.849   0.506   5.748
 5601TIP3    H116746   1.812   0.451   5.818
 5601TIP3    H216747   1.869   0.589   5.795
 5602TIP3   OH216748   1.486   0.951   5.761
 5602TIP3    H116749   1.555   0.888   5.731
 5602TIP3    H216750   1.477   0.927   5.854
 5603TIP3   OH216751   2.444  -0.052   6.285
 5603TIP3    H116752   2.362  -0.001   6.275
 5603TIP3    H216753   2.495   0.000   6.348
 5604TIP3   OH216754   1.529   0.443   5.514
 5604TIP3    H116755   1.452   0.385   5.503
 5604TIP3    H216756   1.484   0.519   5.556
 5605TIP3   OH216757   1.901   0.746   5.910
 5605TIP3    H116758   1.807   0.742   5.940
 5605TIP3    H216759   1.899   0.832   5.862
 5606TIP3   OH216760   1.665   0.794   5.634
 5606TIP3    H116761   1.693   0.711   5.590
 5606TIP3    H216762   1.686   0.857   5.562
 5607TIP3   OH216763   1.766   0.579   5.489
 5607TIP3    H116764   1.688   0.520   5.476
 5607TIP3    H216765   1.806   0.538   5.568
 5608TIP3   OH216766   2.131   0.653   6.258
 5608TIP3    H116767   2.120   0.578   6.195
 5608TIP3    H216768   2.112   0.730   6.200
 5609TIP3   OH216769   2.323   0.297   6.106
 5609TIP3    H116770   2.239   0.349   6.107
 5609TIP3    H216771   2.354   0.316   6.015
 5610TIP3   OH216772   1.766   0.156   5.494
 5610TIP3    H116773   1.702   0.145   5.565
 5610TIP3    H216774   1.844   0.110   5.529
 5611TIP3   OH216775   1.652   0.758   6.011
 5611TIP3    H116776   1.641   0.842   6.060
 5611TIP3    H216777   1.640   0.690   6.081
 5612TIP3   OH216778   1.399   0.728   5.526
 5612TIP3    H116779   1.427   0.762   5.612
 5612TIP3    H216780   1.306   0.708   5.540
 5613TIP3   OH216781   1.927   0.596   4.906
 5613TIP3    H116782   1.923   0.652   4.828
 5613TIP3    H216783   2.018   0.559   4.900
 5614TIP3   OH216784   2.370   1.007   6.304
 5614TIP3    H116785   2.370   0.910   6.320
 5614TIP3    H216786   2.286   1.031   6.348
 5615TIP3   OH216787   1.500   0.813   6.402
 5615TIP3    H116788   1.489   0.898   6.451
 5615TIP3    H216789   1.424   0.762   6.436
 5616TIP3   OH216790   1.219   0.924   5.370
 5616TIP3    H116791   1.172   0.929   5.285
 5616TIP3    H216792   1.198   1.010   5.412
 5617TIP3   OH216793   1.440   0.815   5.026
 5617TIP3    H116794   1.501   0.744   4.996
 5617TIP3    H216795   1.468   0.829   5.119
 5618TIP3   OH216796   1.475   0.866   5.294
 5618TIP3    H116797   1.385   0.883   5.331
 5618TIP3    H216798   1.506   0.806   5.365
 5619TIP3   OH216799   2.261   0.122   6.577
 5619TIP3    H116800   2.176   0.169   6.576
 5619TIP3    H216801   2.234   0.029   6.569
 5620TIP3   OH216802   1.667   0.056   5.043
 5620TIP3    H116803   1.650   0.005   4.963
 5620TIP3    H216804   1.760   0.082   5.032
 5621TIP3   OH216805   2.065   1.348   6.404
 5621TIP3    H116806   2.060   1.377   6.311
 5621TIP3    H216807   2.137   1.404   6.438
 5622TIP3   OH216808   2.089   0.445   6.081
 5622TIP3    H116809   2.123   0.498   6.005
 5622TIP3    H216810   2.009   0.404   6.042
 5623TIP3   OH216811   1.383   0.407   5.212
 5623TIP3    H116812   1.326   0.482   5.239
 5623TIP3    H216813   1.382   0.353   5.293
 5624TIP3   OH216814   1.768   0.778   6.378
 5624TIP3    H116815   1.671   0.793   6.372
 5624TIP3    H216816   1.789   0.837   6.453
 5625TIP3   OH216817   2.182  -0.138   5.250
 5625TIP3    H116818   2.117  -0.195   5.205
 5625TIP3    H216819   2.153  -0.051   5.212
 5626TIP3   OH216820   2.384   0.719   6.341
 5626TIP3    H116821   2.286   0.709   6.339
 5626TIP3    H216822   2.406   0.689   6.250
 5627TIP3   OH216823   1.896   0.706   5.172
 5627TIP3    H116824   1.860   0.658   5.248
 5627TIP3    H216825   1.889   0.639   5.102
 5628TIP3   OH216826   1.871   0.293   5.997
 5628TIP3    H116827   1.781   0.280   6.033
 5628TIP3    H216828   1.878   0.220   5.934
 5629TIP3   OH216829   1.279   0.883   6.242
 5629TIP3    H116830   1.301   0.957   6.182
 5629TIP3    H216831   1.362   0.874   6.291
 5630TIP3   OH216832   1.690   0.541   6.195
 5630TIP3    H116833   1.660   0.567   6.283
 5630TIP3    H216834   1.787   0.544   6.206
 5631TIP3   OH216835   1.617   0.410   5.071
 5631TIP3    H116836   1.676   0.374   5.141
 5631TIP3    H216837   1.532   0.408   5.121
 5632TIP3   OH216838   1.889   1.036   6.239
 5632TIP3    H116839   1.805   0.988   6.227
 5632TIP3    H216840   1.880   1.104   6.168
 5633TIP3   OH216841   1.783   0.325   5.268
 5633TIP3    H116842   1.761   0.272   5.347
 5633TIP3    H216843   1.880   0.324   5.272
 5634TIP3   OH216844   1.198   0.598   5.279
 5634TIP3    H116845   1.143   0.596   5.359
 5634TIP3    H216846   1.206   0.694   5.263
 5635TIP3   OH216847   1.916   1.014   5.835
 5635TIP3    H116848   1.870   1.056   5.759
 5635TIP3    H216849   2.009   1.035   5.812
 5636TIP3   OH216850   1.145   0.558   4.996
 5636TIP3    H116851   1.155   0.528   5.089
 5636TIP3    H216852   1.222   0.516   4.954
 5637TIP3   OH216853   1.809   0.909   6.623
 5637TIP3    H116854   1.850   0.838   6.675
 5637TIP3    H216855   1.876   0.980   6.631
 5638TIP3   OH216856   1.584   0.618   4.899
 5638TIP3    H116857   1.613   0.547   4.960
 5638TIP3    H216858   1.640   0.605   4.820
 5639TIP3   OH216859   1.918   0.552   6.403
 5639TIP3    H116860   2.002   0.584   6.362
 5639TIP3    H216861   1.867   0.637   6.400
 5640TIP3   OH216862   1.920   0.123   4.932
 5640TIP3    H116863   1.903   0.083   4.845
 5640TIP3    H216864   1.881   0.212   4.916
 5641TIP3   OH216865   2.079   0.381   6.563
 5641TIP3    H116866   2.021   0.435   6.506
 5641TIP3    H216867   2.167   0.408   6.527
 5642TIP3   OH216868   0.913   0.874   5.155
 5642TIP3    H116869   1.009   0.856   5.146
 5642TIP3    H216870   0.899   0.927   5.072
 5643TIP3   OH216871   2.172   1.097   5.794
 5643TIP3    H116872   2.190   1.129   5.885
 5643TIP3    H216873   2.232   1.152   5.742
 5644TIP3   OH216874   2.193   1.120   6.074
 5644TIP3    H116875   2.149   1.033   6.073
 5644TIP3    H216876   2.267   1.101   6.134
 5645TIP3   OH216877   2.240   0.799   6.648
 5645TIP3    H116878   2.169   0.805   6.716
 5645TIP3    H216879   2.280   0.888   6.655
 5646TIP3   OH216880   2.063   0.315   5.266
 5646TIP3    H116881   2.131   0.380   5.240
 5646TIP3    H216882   2.104   0.276   5.346
 5647TIP3   OH216883   2.180   0.180   5.473
 5647TIP3    H116884   2.111   0.142   5.531
 5647TIP3    H216885   2.241   0.222   5.537
 5648TIP3   OH216886   2.245   0.579   5.903
 5648TIP3    H116887   2.298   0.511   5.858
 5648TIP3    H216888   2.241   0.650   5.836
 5649TIP3   OH216889   2.067   0.871   6.100
 5649TIP3    H116890   1.996   0.917   6.150
 5649TIP3    H216891   2.016   0.829   6.028
 5650TIP3   OH216892   2.117   0.093   5.115
 5650TIP3    H116893   2.045   0.096   5.047
 5650TIP3    H216894   2.089   0.168   5.171
 5651TIP3   OH216895   2.000  -0.247   5.065
 5651TIP3    H116896   1.950  -0.182   5.014
 5651TIP3    H216897   1.946  -0.326   5.053
 5652TIP3   OH216898   2.000   0.034   5.628
 5652TIP3    H116899   2.013  -0.059   5.605
 5652TIP3    H216900   2.009   0.033   5.724
 5653TIP3   OH216901   2.314   0.471   6.462
 5653TIP3    H116902   2.382   0.400   6.454
 5653TIP3    H216903   2.347   0.540   6.402
 5654TIP3   OH216904   2.479   0.259   6.479
 5654TIP3    H116905   2.403   0.210   6.518
 5654TIP3    H216906   2.551   0.198   6.504
 5655TIP3   OH216907   2.140  -0.053   6.009
 5655TIP3    H116908   2.226  -0.036   5.966
 5655TIP3    H216909   2.158  -0.017   6.098
 5656TIP3   OH216910   2.204   0.086   6.242
 5656TIP3    H116911   2.121   0.124   6.274
 5656TIP3    H216912   2.248   0.164   6.200
 5657TIP3   OH216913   1.742   0.969   5.440
 5657TIP3    H116914   1.815   0.931   5.390
 5657TIP3    H216915   1.785   1.037   5.496
 5658TIP3   OH216916   1.472   1.060   6.524
 5658TIP3    H116917   1.508   1.052   6.615
 5658TIP3    H216918   1.539   1.116   6.480
 5659TIP3   OH216919   1.659   1.205   6.385
 5659TIP3    H116920   1.732   1.160   6.342
 5659TIP3    H216921   1.707   1.267   6.444
 5660TIP3   OH216922   1.373   1.071   6.057
 5660TIP3    H116923   1.299   1.086   5.994
 5660TIP3    H216924   1.384   1.162   6.093
 5661TIP3   OH216925   1.637   1.013   6.116
 5661TIP3    H116926   1.542   1.030   6.102
 5661TIP3    H216927   1.676   1.093   6.077
 5662TIP3   OH216928   1.846   1.201   6.028
 5662TIP3    H116929   1.829   1.286   5.981
 5662TIP3    H216930   1.868   1.141   5.954
 5663TIP3   OH216931   1.176   0.820   5.105
 5663TIP3    H116932   1.269   0.834   5.077
 5663TIP3    H216933   1.156   0.737   5.057
 5664TIP3   OH216934   2.121   1.079   6.398
 5664TIP3    H116935   2.041   1.051   6.349
 5664TIP3    H216936   2.102   1.174   6.409
 5665TIP3   OH216937   3.384   0.448   5.171
 5665TIP3    H116938   3.355   0.540   5.151
 5665TIP3    H216939   3.312   0.399   5.127
 5666TIP3   OH216940   3.386   0.458   5.558
 5666TIP3    H116941   3.420   0.434   5.646
 5666TIP3    H216942   3.350   0.373   5.527
 5667TIP3   OH216943   2.685   0.343   5.913
 5667TIP3    H116944   2.712   0.272   5.974
 5667TIP3    H216945   2.757   0.406   5.927
 5668TIP3   OH216946   3.634   0.755   5.237
 5668TIP3    H116947   3.620   0.689   5.307
 5668TIP3    H216948   3.664   0.833   5.288
 5669TIP3   OH216949   2.660   0.760   5.634
 5669TIP3    H116950   2.650   0.663   5.641
 5669TIP3    H216951   2.757   0.768   5.627
 5670TIP3   OH216952   2.355  -0.030   5.437
 5670TIP3    H116953   2.303   0.052   5.450
 5670TIP3    H216954   2.290  -0.081   5.385
 5671TIP3   OH216955   2.409   0.258   5.605
 5671TIP3    H116956   2.455   0.176   5.635
 5671TIP3    H216957   2.474   0.296   5.544
 5672TIP3   OH216958   3.285   1.219   5.252
 5672TIP3    H116959   3.323   1.149   5.195
 5672TIP3    H216960   3.276   1.173   5.336
 5673TIP3   OH216961   3.185   0.677   5.601
 5673TIP3    H116962   3.230   0.601   5.561
 5673TIP3    H216963   3.265   0.729   5.625
 5674TIP3   OH216964   3.601   0.176   5.647
 5674TIP3    H116965   3.620   0.085   5.673
 5674TIP3    H216966   3.566   0.166   5.556
 5675TIP3   OH216967   2.925  -0.201   5.536
 5675TIP3    H116968   2.863  -0.121   5.555
 5675TIP3    H216969   2.859  -0.275   5.547
 5676TIP3   OH216970   3.594  -0.048   5.269
 5676TIP3    H116971   3.652  -0.092   5.335
 5676TIP3    H216972   3.655  -0.046   5.193
 5677TIP3   OH216973   2.551   0.043   5.691
 5677TIP3    H116974   2.645   0.043   5.720
 5677TIP3    H216975   2.556  -0.017   5.616
 5678TIP3   OH216976   3.007   0.231   5.497
 5678TIP3    H116977   3.106   0.227   5.503
 5678TIP3    H216978   2.987   0.140   5.524
 5679TIP3   OH216979   4.226   0.190   5.791
 5679TIP3    H116980   4.151   0.233   5.744
 5679TIP3    H216981   4.263   0.264   5.839
 5680TIP3   OH216982   3.262   0.666   5.043
 5680TIP3    H116983   3.241   0.664   4.949
 5680TIP3    H216984   3.224   0.752   5.069
 5681TIP3   OH216985   3.039   0.600   5.822
 5681TIP3    H116986   2.979   0.670   5.857
 5681TIP3    H216987   3.081   0.647   5.746
 5682TIP3   OH216988   2.812   0.002   5.746
 5682TIP3    H116989   2.877   0.060   5.790
 5682TIP3    H216990   2.825  -0.079   5.803
 5683TIP3   OH216991   2.869   0.798   5.923
 5683TIP3    H116992   2.845   0.886   5.886
 5683TIP3    H216993   2.788   0.779   5.974
 5684TIP3   OH216994   2.260   0.485   5.153
 5684TIP3    H116995   2.218   0.499   5.066
 5684TIP3    H216996   2.274   0.578   5.183
 5685TIP3   OH216997   3.700   1.002   5.399
 5685TIP3    H116998   3.609   0.993   5.437
 5685TIP3    H216999   3.691   1.088   5.352
 5686TIP3   OH217000   3.394   1.044   5.067
 5686TIP3    H117001   3.444   0.961   5.047
 5686TIP3    H217002   3.459   1.109   5.030
 5687TIP3   OH217003   3.535   0.825   4.987
 5687TIP3    H117004   3.531   0.745   4.932
 5687TIP3    H217005   3.575   0.790   5.070
 5688TIP3   OH217006   3.926   0.909   5.744
 5688TIP3    H117007   3.913   0.833   5.683
 5688TIP3    H217008   3.907   0.984   5.684
 5689TIP3   OH217009   3.219   0.310   5.000
 5689TIP3    H117010   3.141   0.365   4.978
 5689TIP3    H217011   3.263   0.303   4.913
 5690TIP3   OH217012   3.173   0.087   4.719
 5690TIP3    H117013   3.244   0.141   4.759
 5690TIP3    H217014   3.227   0.024   4.667
 5691TIP3   OH217015   4.123   0.559   5.595
 5691TIP3    H117016   4.037   0.606   5.593
 5691TIP3    H217017   4.153   0.575   5.502
 5692TIP3   OH217018   3.562   0.389   4.969
 5692TIP3    H117019   3.510   0.412   5.049
 5692TIP3    H217020   3.649   0.369   5.011
 5693TIP3   OH217021   3.792   0.430   5.885
 5693TIP3    H117022   3.786   0.511   5.939
 5693TIP3    H217023   3.705   0.431   5.841
 5694TIP3   OH217024   2.808   0.392   5.410
 5694TIP3    H117025   2.785   0.358   5.323
 5694TIP3    H217026   2.883   0.334   5.436
 5695TIP3   OH217027   2.928   0.794   5.537
 5695TIP3    H117028   2.912   0.768   5.445
 5695TIP3    H217029   3.017   0.757   5.554
 5696TIP3   OH217030   2.943   0.354   5.749
 5696TIP3    H117031   2.973   0.337   5.658
 5696TIP3    H217032   2.979   0.443   5.767
 5697TIP3   OH217033   3.459   0.996   5.522
 5697TIP3    H117034   3.446   1.075   5.576
 5697TIP3    H217035   3.443   0.923   5.585
 5698TIP3   OH217036   3.071   0.914   6.070
 5698TIP3    H117037   3.006   0.975   6.112
 5698TIP3    H217038   3.010   0.860   6.016
 5699TIP3   OH217039   3.401   0.246   4.797
 5699TIP3    H117040   3.460   0.308   4.846
 5699TIP3    H217041   3.428   0.264   4.704
 5700TIP3   OH217042   2.815   0.473   6.155
 5700TIP3    H117043   2.818   0.559   6.202
 5700TIP3    H217044   2.724   0.445   6.180
 5701TIP3   OH217045   3.149   0.924   5.075
 5701TIP3    H117046   3.234   0.972   5.080
 5701TIP3    H217047   3.093   0.986   5.028
 5702TIP3   OH217048   2.864   1.078   6.160
 5702TIP3    H117049   2.829   1.083   6.068
 5702TIP3    H217050   2.784   1.053   6.211
 5703TIP3   OH217051   3.721   0.851   4.401
 5703TIP3    H117052   3.728   0.946   4.378
 5703TIP3    H217053   3.814   0.822   4.388
 5704TIP3   OH217054   2.445   0.612   6.101
 5704TIP3    H117055   2.378   0.591   6.033
 5704TIP3    H217056   2.482   0.523   6.123
 5705TIP3   OH217057   2.298   0.806   5.731
 5705TIP3    H117058   2.395   0.808   5.729
 5705TIP3    H217059   2.279   0.886   5.783
 5706TIP3   OH217060   4.163   1.261   5.793
 5706TIP3    H117061   4.162   1.165   5.805
 5706TIP3    H217062   4.079   1.286   5.838
 5707TIP3   OH217063   3.270   1.039   5.927
 5707TIP3    H117064   3.264   1.133   5.956
 5707TIP3    H217065   3.197   0.999   5.979
 5708TIP3   OH217066   3.033   1.165   4.880
 5708TIP3    H117067   2.988   1.157   4.794
 5708TIP3    H217068   3.006   1.255   4.908
 5709TIP3   OH217069   2.451   1.000   5.272
 5709TIP3    H117070   2.523   0.997   5.340
 5709TIP3    H217071   2.375   0.983   5.332
 5710TIP3   OH217072   3.232   1.073   4.512
 5710TIP3    H117073   3.290   1.002   4.475
 5710TIP3    H217074   3.270   1.085   4.601
 5711TIP3   OH217075   3.284   1.122   4.783
 5711TIP3    H117076   3.195   1.131   4.825
 5711TIP3    H217077   3.336   1.087   4.857
 5712TIP3   OH217078   4.052   0.362   6.065
 5712TIP3    H117079   3.982   0.420   6.031
 5712TIP3    H217080   4.009   0.275   6.047
 5713TIP3   OH217081   2.643   0.800   6.078
 5713TIP3    H117082   2.692   0.782   6.161
 5713TIP3    H217083   2.570   0.735   6.086
 5714TIP3   OH217084   3.852   0.185   6.021
 5714TIP3    H117085   3.782   0.185   6.087
 5714TIP3    H217086   3.818   0.246   5.954
 5715TIP3   OH217087   3.484   0.281   4.544
 5715TIP3    H117088   3.444   0.264   4.456
 5715TIP3    H217089   3.566   0.328   4.517
 5716TIP3   OH217090   2.995   0.141   5.907
 5716TIP3    H117091   2.935   0.156   5.983
 5716TIP3    H217092   2.984   0.225   5.857
 5717TIP3   OH217093   3.342   0.103   5.136
 5717TIP3    H117094   3.299   0.178   5.088
 5717TIP3    H217095   3.411   0.076   5.072
 5718TIP3   OH217096   3.536   0.414   6.208
 5718TIP3    H117097   3.509   0.334   6.258
 5718TIP3    H217098   3.631   0.418   6.233
 5719TIP3   OH217099   3.492   0.172   5.393
 5719TIP3    H117100   3.438   0.219   5.327
 5719TIP3    H217101   3.514   0.091   5.341
 5720TIP3   OH217102   2.797   0.163   6.103
 5720TIP3    H117103   2.817   0.224   6.176
 5720TIP3    H217104   2.778   0.080   6.150
 5721TIP3   OH217105   2.453  -0.205   5.221
 5721TIP3    H117106   2.441  -0.249   5.135
 5721TIP3    H217107   2.360  -0.180   5.239
 5722TIP3   OH217108   3.515   0.382   5.795
 5722TIP3    H117109   3.552   0.311   5.738
 5722TIP3    H217110   3.493   0.327   5.874
 5723TIP3   OH217111   2.618  -0.090   5.413
 5723TIP3    H117112   2.523  -0.063   5.416
 5723TIP3    H217113   2.610  -0.183   5.438
 5724TIP3   OH217114   2.892  -0.065   5.162
 5724TIP3    H117115   2.987  -0.063   5.188
 5724TIP3    H217116   2.902  -0.080   5.067
 5725TIP3   OH217117   2.706  -0.058   4.947
 5725TIP3    H117118   2.649  -0.096   4.877
 5725TIP3    H217119   2.778  -0.027   4.888
 5726TIP3   OH217120   3.859   1.606   5.892
 5726TIP3    H117121   3.855   1.630   5.797
 5726TIP3    H217122   3.938   1.655   5.921
 5727TIP3   OH217123   2.802   0.713   6.295
 5727TIP3    H117124   2.887   0.730   6.337
 5727TIP3    H217125   2.742   0.710   6.373
 5728TIP3   OH217126   3.264   0.181   5.563
 5728TIP3    H117127   3.346   0.146   5.525
 5728TIP3    H217128   3.267   0.147   5.656
 5729TIP3   OH217129   3.271   0.110   5.823
 5729TIP3    H117130   3.182   0.098   5.864
 5729TIP3    H217131   3.322   0.149   5.896
 5730TIP3   OH217132   2.987   0.460   4.948
 5730TIP3    H117133   2.915   0.395   4.934
 5730TIP3    H217134   2.966   0.492   5.038
 5731TIP3   OH217135   3.885   0.694   5.576
 5731TIP3    H117136   3.910   0.745   5.495
 5731TIP3    H217137   3.801   0.652   5.548
 5732TIP3   OH217138   3.423  -0.160   4.772
 5732TIP3    H117139   3.365  -0.210   4.833
 5732TIP3    H217140   3.461  -0.094   4.834
 5733TIP3   OH217141   3.385   0.776   5.948
 5733TIP3    H117142   3.410   0.757   6.039
 5733TIP3    H217143   3.348   0.866   5.954
 5734TIP3   OH217144   3.522   0.035   4.935
 5734TIP3    H117145   3.619   0.048   4.944
 5734TIP3    H217146   3.497   0.113   4.881
 5735TIP3   OH217147   2.677   0.483   5.636
 5735TIP3    H117148   2.723   0.453   5.555
 5735TIP3    H217149   2.715   0.424   5.703
 5736TIP3   OH217150   3.138   0.610   4.774
 5736TIP3    H117151   3.087   0.695   4.776
 5736TIP3    H217152   3.084   0.556   4.835
 5737TIP3   OH217153   2.562   0.395   6.238
 5737TIP3    H117154   2.580   0.377   6.333
 5737TIP3    H217155   2.490   0.333   6.220
 5738TIP3   OH217156   3.286   0.525   6.264
 5738TIP3    H117157   3.223   0.466   6.218
 5738TIP3    H217158   3.372   0.493   6.230
 5739TIP3   OH217159   3.546   1.034   5.848
 5739TIP3    H117160   3.449   1.034   5.859
 5739TIP3    H217161   3.572   1.089   5.925
 5740TIP3   OH217162   3.952   0.108   4.740
 5740TIP3    H117163   3.894   0.059   4.678
 5740TIP3    H217164   3.941   0.198   4.703
 5741TIP3   OH217165   4.176   0.971   5.830
 5741TIP3    H117166   4.079   0.963   5.821
 5741TIP3    H217167   4.203   0.940   5.741
 5742TIP3   OH217168   3.661   0.927   4.662
 5742TIP3    H117169   3.631   0.851   4.714
 5742TIP3    H217170   3.676   0.888   4.573
 5743TIP3   OH217171   3.652   0.560   5.492
 5743TIP3    H117172   3.558   0.535   5.505
 5743TIP3    H217173   3.687   0.480   5.448
 5744TIP3   OH217174   2.793   0.789   5.253
 5744TIP3    H117175   2.794   0.870   5.197
 5744TIP3    H217176   2.699   0.776   5.265
 5745TIP3   OH217177   2.345   0.085   4.963
 5745TIP3    H117178   2.391   0.170   4.985
 5745TIP3    H217179   2.266   0.094   5.021
 5746TIP3   OH217180   2.906   0.544   5.192
 5746TIP3    H117181   2.881   0.639   5.202
 5746TIP3    H217182   2.896   0.514   5.284
 5747TIP3   OH217183   3.053   1.127   5.718
 5747TIP3    H117184   3.093   1.201   5.666
 5747TIP3    H217185   3.131   1.090   5.761
 5748TIP3   OH217186   2.702   1.022   5.108
 5748TIP3    H117187   2.613   1.039   5.143
 5748TIP3    H217188   2.740   1.112   5.109
 5749TIP3   OH217189   3.435   0.764   5.680
 5749TIP3    H117190   3.425   0.761   5.778
 5749TIP3    H217191   3.514   0.710   5.667
 5750TIP3   OH217192   3.418   0.652   4.567
 5750TIP3    H117193   3.469   0.631   4.648
 5750TIP3    H217194   3.328   0.630   4.596
 5751TIP3   OH217195   3.686   1.294   5.728
 5751TIP3    H117196   3.604   1.240   5.720
 5751TIP3    H217197   3.671   1.358   5.655
 5752TIP3   OH217198   3.752   1.123   4.369
 5752TIP3    H117199   3.773   1.170   4.286
 5752TIP3    H217200   3.683   1.182   4.405
 5753TIP3   OH217201   3.578   0.597   4.788
 5753TIP3    H117202   3.567   0.524   4.852
 5753TIP3    H217203   3.674   0.589   4.769
 5754TIP3   OH217204   2.491   0.988   5.873
 5754TIP3    H117205   2.544   0.922   5.920
 5754TIP3    H217206   2.508   1.068   5.925
 5755TIP3   OH217207   2.779   0.634   4.563
 5755TIP3    H117208   2.793   0.542   4.537
 5755TIP3    H217209   2.756   0.625   4.658
 5756TIP3   OH217210   2.721   0.639   4.838
 5756TIP3    H117211   2.805   0.617   4.882
 5756TIP3    H217212   2.721   0.737   4.843
 5757TIP3   OH217213   2.459   0.323   5.038
 5757TIP3    H117214   2.401   0.372   5.099
 5757TIP3    H217215   2.482   0.394   4.975
 5758TIP3   OH217216   2.988   0.835   4.782
 5758TIP3    H117217   2.901   0.862   4.817
 5758TIP3    H217218   3.007   0.912   4.726
 5759TIP3   OH217219   3.170  -0.105   5.173
 5759TIP3    H117220   3.228  -0.025   5.166
 5759TIP3    H217221   3.213  -0.154   5.245
 5760TIP3   OH217222   3.466   0.219   6.009
 5760TIP3    H117223   3.460   0.284   6.082
 5760TIP3    H217224   3.495   0.140   6.057
 5761TIP3   OH217225   2.733   0.909   4.855
 5761TIP3    H117226   2.709   0.978   4.788
 5761TIP3    H217227   2.721   0.958   4.938
 5762TIP3   OH217228   3.739   0.317   5.376
 5762TIP3    H117229   3.661   0.262   5.395
 5762TIP3    H217230   3.811   0.269   5.423
 5763TIP3   OH217231   2.453   0.537   4.843
 5763TIP3    H117232   2.529   0.598   4.851
 5763TIP3    H217233   2.491   0.476   4.776
 5764TIP3   OH217234   2.401  -0.184   4.952
 5764TIP3    H117235   2.381  -0.088   4.955
 5764TIP3    H217236   2.313  -0.223   4.947
 5765TIP3   OH217237   3.708   1.272   5.321
 5765TIP3    H117238   3.665   1.320   5.247
 5765TIP3    H217239   3.802   1.290   5.299
 5766TIP3   OH217240   2.291   0.755   5.216
 5766TIP3    H117241   2.264   0.793   5.304
 5766TIP3    H217242   2.367   0.817   5.195
 5767TIP3   OH217243   2.482   1.304   6.300
 5767TIP3    H117244   2.568   1.304   6.348
 5767TIP3    H217245   2.460   1.209   6.301
 5768TIP3   OH217246   2.958   1.239   6.369
 5768TIP3    H117247   3.054   1.244   6.354
 5768TIP3    H217248   2.930   1.188   6.290
 5769TIP3   OH217249   2.941   0.837   4.469
 5769TIP3    H117250   2.889   0.763   4.509
 5769TIP3    H217251   3.017   0.790   4.432
 5770TIP3   OH217252   3.595   1.171   6.084
 5770TIP3    H117253   3.590   1.101   6.152
 5770TIP3    H217254   3.674   1.222   6.111
 5771TIP3   OH217255   3.374   0.875   4.382
 5771TIP3    H117256   3.428   0.818   4.439
 5771TIP3    H217257   3.426   0.879   4.299
 5772TIP3   OH217258   2.612   0.701   6.499
 5772TIP3    H117259   2.627   0.606   6.507
 5772TIP3    H217260   2.525   0.705   6.453
 5773TIP3   OH217261   2.585   0.352   4.696
 5773TIP3    H117262   2.646   0.328   4.768
 5773TIP3    H217263   2.649   0.358   4.621
 5774TIP3   OH217264   3.223   0.804   6.276
 5774TIP3    H117265   3.173   0.814   6.193
 5774TIP3    H217266   3.246   0.708   6.275
 5775TIP3   OH217267   3.102   0.554   4.506
 5775TIP3    H117268   3.106   0.568   4.603
 5775TIP3    H217269   3.106   0.456   4.501
 5776TIP3   OH217270   3.709   0.807   5.886
 5776TIP3    H117271   3.785   0.847   5.838
 5776TIP3    H217272   3.640   0.873   5.869
 5777TIP3   OH217273   2.740   0.448   6.480
 5777TIP3    H117274   2.810   0.382   6.467
 5777TIP3    H217275   2.757   0.473   6.573
 5778TIP3   OH217276   2.796   0.263   4.896
 5778TIP3    H117277   2.746   0.199   4.949
 5778TIP3    H217278   2.849   0.202   4.841
 5779TIP3   OH217279   3.066   0.357   6.146
 5779TIP3    H117280   2.980   0.405   6.137
 5779TIP3    H217281   3.113   0.383   6.063
 5780TIP3   OH217282   2.899   0.049   4.763
 5780TIP3    H117283   2.873   0.053   4.668
 5780TIP3    H217284   2.997   0.049   4.754
 5781TIP3   OH217285   3.589   0.732   6.281
 5781TIP3    H117286   3.651   0.687   6.221
 5781TIP3    H217287   3.572   0.663   6.348
 5782TIP3   OH217288   3.713   0.378   4.425
 5782TIP3    H117289   3.695   0.339   4.337
 5782TIP3    H217290   3.683   0.470   4.406
 5783TIP3   OH217291   3.151   0.130   6.264
 5783TIP3    H117292   3.100   0.070   6.205
 5783TIP3    H217293   3.124   0.217   6.226
 5784TIP3   OH217294   3.226   0.441   5.945
 5784TIP3    H117295   3.309   0.449   5.896
 5784TIP3    H217296   3.168   0.505   5.899
 5785TIP3   OH217297   3.787   0.403   6.317
 5785TIP3    H117298   3.824   0.342   6.385
 5785TIP3    H217299   3.862   0.460   6.296
 5786TIP3   OH217300   3.842   0.657   6.066
 5786TIP3    H117301   3.781   0.711   6.010
 5786TIP3    H217302   3.928   0.681   6.026
 5787TIP3   OH217303   3.039   0.263   6.494
 5787TIP3    H117304   2.986   0.201   6.546
 5787TIP3    H217305   3.086   0.206   6.430
 5788TIP3   OH217306   3.429   0.187   6.301
 5788TIP3    H117307   3.453   0.155   6.390
 5788TIP3    H217308   3.332   0.172   6.302
 5789TIP3   OH217309   2.701   1.099   4.663
 5789TIP3    H117310   2.793   1.107   4.630
 5789TIP3    H217311   2.662   1.184   4.637
 5790TIP3   OH217312   2.182   0.500   4.874
 5790TIP3    H117313   2.278   0.520   4.864
 5790TIP3    H217314   2.178   0.410   4.833
 5791TIP3   OH217315   2.261   0.942   5.458
 5791TIP3    H117316   2.227   0.880   5.525
 5791TIP3    H217317   2.293   1.014   5.516
 5792TIP3   OH217318   3.966   1.354   5.284
 5792TIP3    H117319   3.993   1.391   5.369
 5792TIP3    H217320   4.028   1.396   5.222
 5793TIP3   OH217321   3.990   1.380   5.568
 5793TIP3    H117322   3.944   1.294   5.559
 5793TIP3    H217323   4.066   1.353   5.622
 5794TIP3   OH217324   4.039   1.055   6.141
 5794TIP3    H117325   3.966   1.067   6.205
 5794TIP3    H217326   4.081   1.144   6.142
 5795TIP3   OH217327   3.853   0.568   4.753
 5795TIP3    H117328   3.917   0.635   4.721
 5795TIP3    H217329   3.901   0.533   4.832
 5796TIP3   OH217330   3.983   0.443   4.959
 5796TIP3    H117331   3.914   0.404   5.017
 5796TIP3    H217332   4.048   0.477   5.024
 5797TIP3   OH217333   4.040   0.832   5.393
 5797TIP3    H117334   4.091   0.763   5.346
 5797TIP3    H217335   4.038   0.904   5.326
 5798TIP3   OH217336   3.865   1.130   5.586
 5798TIP3    H117337   3.791   1.172   5.634
 5798TIP3    H217338   3.817   1.085   5.513
 5799TIP3   OH217339   3.913   0.344   4.604
 5799TIP3    H117340   3.844   0.353   4.534
 5799TIP3    H217341   3.889   0.421   4.660
 5800TIP3   OH217342   3.781   0.005   4.543
 5800TIP3    H117343   3.765   0.086   4.494
 5800TIP3    H217344   3.731  -0.059   4.490
 5801TIP3   OH217345   3.791   0.312   5.101
 5801TIP3    H117346   3.796   0.217   5.076
 5801TIP3    H217347   3.780   0.308   5.199
 5802TIP3   OH217348   2.419   0.371   5.857
 5802TIP3    H117349   2.412   0.338   5.765
 5802TIP3    H217350   2.517   0.369   5.870
 5803TIP3   OH217351   4.089   0.717   5.962
 5803TIP3    H117352   4.160   0.650   5.947
 5803TIP3    H217353   4.108   0.783   5.893
 5804TIP3   OH217354   4.267   0.506   5.981
 5804TIP3    H117355   4.193   0.449   6.009
 5804TIP3    H217356   4.343   0.451   6.010
 5805TIP3   OH217357   3.794   0.062   4.974
 5805TIP3    H117358   3.824  -0.017   5.024
 5805TIP3    H217359   3.857   0.064   4.898
 5806TIP3   OH217360   3.948   0.191   5.500
 5806TIP3    H117361   4.033   0.213   5.456
 5806TIP3    H217362   3.965   0.227   5.589
 5807TIP3   OH217363   4.011   0.343   5.724
 5807TIP3    H117364   3.934   0.378   5.773
 5807TIP3    H217365   4.046   0.423   5.680
 5808TIP3   OH217366   2.640   0.046   6.522
 5808TIP3    H117367   2.735   0.035   6.530
 5808TIP3    H217368   2.608  -0.042   6.549
 5809TIP3   OH217369   2.389   0.023   5.919
 5809TIP3    H117370   2.444   0.029   5.838
 5809TIP3    H217371   2.432   0.088   5.977
 5810TIP3   OH217372   3.549   1.225   4.940
 5810TIP3    H117373   3.596   1.213   4.854
 5810TIP3    H217374   3.600   1.297   4.979
 5811TIP3   OH217375   2.648   1.025   6.334
 5811TIP3    H117376   2.557   1.007   6.307
 5811TIP3    H217377   2.642   1.010   6.430
 5812TIP3   OH217378   2.830   1.069   5.871
 5812TIP3    H117379   2.780   1.144   5.832
 5812TIP3    H217380   2.914   1.083   5.823
 5813TIP3   OH217381   3.263   1.307   6.003
 5813TIP3    H117382   3.306   1.308   6.091
 5813TIP3    H217383   3.327   1.359   5.951
 5814TIP3   OH217384   3.444   1.462   5.870
 5814TIP3    H117385   3.513   1.414   5.822
 5814TIP3    H217386   3.498   1.519   5.929
 5815TIP3   OH217387   2.499   1.318   5.898
 5815TIP3    H117388   2.408   1.347   5.874
 5815TIP3    H217389   2.514   1.372   5.976
 5816TIP3   OH217390   2.736   1.300   5.755
 5816TIP3    H117391   2.648   1.311   5.797
 5816TIP3    H217392   2.718   1.333   5.664
 5817TIP3   OH217393   3.161   1.324   5.553
 5817TIP3    H117394   3.095   1.342   5.483
 5817TIP3    H217395   3.173   1.414   5.590
 5818TIP3   OH217396   3.431   1.265   5.606
 5818TIP3    H117397   3.337   1.282   5.585
 5818TIP3    H217398   3.475   1.335   5.554
 5819TIP3   OH217399   3.638   1.457   5.513
 5819TIP3    H117400   3.622   1.541   5.465
 5819TIP3    H217401   3.663   1.397   5.440
 5820TIP3   OH217402   2.413   1.111   5.630
 5820TIP3    H117403   2.435   1.081   5.721
 5820TIP3    H217404   2.487   1.070   5.581
 5821TIP3   OH217405   2.611   0.986   5.491
 5821TIP3    H117406   2.625   0.904   5.544
 5821TIP3    H217407   2.702   1.024   5.492
 5822TIP3   OH217408   2.874   1.077   5.505
 5822TIP3    H117409   2.906   0.986   5.495
 5822TIP3    H217410   2.923   1.103   5.585
 5823TIP3   OH217411   2.974   1.070   4.610
 5823TIP3    H117412   3.062   1.094   4.574
 5823TIP3    H217413   2.953   0.994   4.550
 5824TIP3   OH217414   3.691   1.195   4.706
 5824TIP3    H117415   3.684   1.097   4.692
 5824TIP3    H217416   3.648   1.227   4.624
 5825TIP3   OH217417   2.274   0.903   4.673
 5825TIP3    H117418   2.310   0.960   4.743
 5825TIP3    H217419   2.356   0.855   4.645
 5826TIP3   OH217420   3.913   1.335   5.892
 5826TIP3    H117421   3.836   1.306   5.839
 5826TIP3    H217422   3.895   1.431   5.897
 5827TIP3   OH217423   5.188   0.721   4.645
 5827TIP3    H117424   5.150   0.808   4.620
 5827TIP3    H217425   5.113   0.662   4.623
 5828TIP3   OH217426   5.180   0.722   5.040
 5828TIP3    H117427   5.212   0.685   5.125
 5828TIP3    H217428   5.157   0.639   4.994
 5829TIP3   OH217429   4.479   0.606   5.403
 5829TIP3    H117430   4.506   0.537   5.466
 5829TIP3    H217431   4.562   0.655   5.394
 5830TIP3   OH217432   5.431   1.015   4.722
 5830TIP3    H117433   5.410   0.944   4.784
 5830TIP3    H217434   5.461   1.087   4.781
 5831TIP3   OH217435   4.458   1.017   5.128
 5831TIP3    H117436   4.449   0.919   5.127
 5831TIP3    H217437   4.554   1.025   5.116
 5832TIP3   OH217438   4.160   0.230   4.932
 5832TIP3    H117439   4.097   0.305   4.938
 5832TIP3    H217440   4.112   0.171   4.872
 5833TIP3   OH217441   4.217   0.505   5.095
 5833TIP3    H117442   4.266   0.424   5.124
 5833TIP3    H217443   4.273   0.538   5.024
 5834TIP3   OH217444   5.084   1.475   4.740
 5834TIP3    H117445   5.122   1.405   4.684
 5834TIP3    H217446   5.070   1.428   4.823
 5835TIP3   OH217447   4.981   0.931   5.089
 5835TIP3    H117448   5.027   0.853   5.052
 5835TIP3    H217449   5.061   0.983   5.111
 5836TIP3   OH217450   5.385   0.202   4.748
 5836TIP3    H117451   5.430   0.212   4.833
 5836TIP3    H217452   5.455   0.234   4.690
 5837TIP3   OH217453   4.369   0.294   5.190
 5837TIP3    H117454   4.446   0.269   5.245
 5837TIP3    H217455   4.389   0.244   5.109
 5838TIP3   OH217456   6.058   0.451   5.279
 5838TIP3    H117457   5.978   0.499   5.248
 5838TIP3    H217458   6.099   0.518   5.335
 5839TIP3   OH217459   5.071   0.935   4.518
 5839TIP3    H117460   5.029   0.919   4.432
 5839TIP3    H217461   5.022   1.015   4.548
 5840TIP3   OH217462   4.833   0.856   5.309
 5840TIP3    H117463   4.775   0.927   5.344
 5840TIP3    H217464   4.877   0.900   5.233
 5841TIP3   OH217465   4.594   0.205   5.316
 5841TIP3    H117466   4.666   0.267   5.336
 5841TIP3    H217467   4.639   0.152   5.247
 5842TIP3   OH217468   4.667   1.055   5.410
 5842TIP3    H117469   4.640   1.141   5.372
 5842TIP3    H217470   4.587   1.036   5.464
 5843TIP3   OH217471   4.053   0.739   4.646
 5843TIP3    H117472   4.015   0.759   4.557
 5843TIP3    H217473   4.082   0.828   4.675
 5844TIP3   OH217474   5.495   1.260   4.886
 5844TIP3    H117475   5.405   1.250   4.925
 5844TIP3    H217476   5.486   1.345   4.840
 5845TIP3   OH217477   5.192   1.302   4.553
 5845TIP3    H117478   5.243   1.218   4.537
 5845TIP3    H217479   5.256   1.366   4.515
 5846TIP3   OH217480   5.340   1.085   4.472
 5846TIP3    H117481   5.293   1.006   4.442
 5846TIP3    H217482   5.380   1.053   4.556
 5847TIP3   OH217483   5.723   1.165   5.229
 5847TIP3    H117484   5.709   1.088   5.170
 5847TIP3    H217485   5.704   1.240   5.168
 5848TIP3   OH217486   5.013   0.569   4.484
 5848TIP3    H117487   4.933   0.622   4.464
 5848TIP3    H217488   5.055   0.563   4.397
 5849TIP3   OH217489   4.968   0.345   4.204
 5849TIP3    H117490   5.040   0.397   4.245
 5849TIP3    H217491   5.018   0.275   4.161
 5850TIP3   OH217492   5.922   0.812   5.071
 5850TIP3    H117493   5.835   0.857   5.078
 5850TIP3    H217494   5.947   0.838   4.980
 5851TIP3   OH217495   5.368   0.644   4.457
 5851TIP3    H117496   5.308   0.670   4.532
 5851TIP3    H217497   5.448   0.620   4.508
 5852TIP3   OH217498   5.582   0.677   5.380
 5852TIP3    H117499   5.578   0.761   5.429
 5852TIP3    H217500   5.497   0.680   5.332
 5853TIP3   OH217501   4.593   0.631   4.878
 5853TIP3    H117502   4.538   0.583   4.812
 5853TIP3    H217503   4.678   0.586   4.868
 5854TIP3   OH217504   4.724   1.052   5.022
 5854TIP3    H117505   4.705   1.024   4.932
 5854TIP3    H217506   4.812   1.013   5.039
 5855TIP3   OH217507   4.740   0.609   5.236
 5855TIP3    H117508   4.801   0.587   5.165
 5855TIP3    H217509   4.771   0.699   5.262
 5856TIP3   OH217510   5.255   1.253   5.008
 5856TIP3    H117511   5.243   1.330   5.066
 5856TIP3    H217512   5.240   1.177   5.069
 5857TIP3   OH217513   4.870   1.170   5.556
 5857TIP3    H117514   4.807   1.231   5.601
 5857TIP3    H217515   4.807   1.116   5.504
 5858TIP3   OH217516   5.199   0.504   4.284
 5858TIP3    H117517   5.258   0.566   4.333
 5858TIP3    H217518   5.228   0.522   4.191
 5859TIP3   OH217519   4.615   0.736   5.655
 5859TIP3    H117520   4.618   0.823   5.701
 5859TIP3    H217521   4.522   0.711   5.669
 5860TIP3   OH217522   4.946   1.179   4.564
 5860TIP3    H117523   5.029   1.231   4.567
 5860TIP3    H217524   4.887   1.237   4.514
 5861TIP3   OH217525   4.662   1.335   5.642
 5861TIP3    H117526   4.628   1.338   5.551
 5861TIP3    H217527   4.580   1.313   5.693
 5862TIP3   OH217528   4.454   0.479   4.692
 5862TIP3    H117529   4.395   0.532   4.633
 5862TIP3    H217530   4.411   0.393   4.686
 5863TIP3   OH217531   5.518   1.108   3.883
 5863TIP3    H117532   5.525   1.204   3.868
 5863TIP3    H217533   5.611   1.080   3.871
 5864TIP3   OH217534   4.240   0.872   5.588
 5864TIP3    H117535   4.172   0.853   5.519
 5864TIP3    H217536   4.277   0.783   5.605
 5865TIP3   OH217537   4.096   1.059   5.224
 5865TIP3    H117538   4.191   1.057   5.210
 5865TIP3    H217539   4.085   1.140   5.275
 5866TIP3   OH217540   5.958   1.517   5.279
 5866TIP3    H117541   5.959   1.420   5.293
 5866TIP3    H217542   5.875   1.540   5.325
 5867TIP3   OH217543   5.065   1.299   5.413
 5867TIP3    H117544   5.060   1.391   5.445
 5867TIP3    H217545   4.993   1.257   5.466
 5868TIP3   OH217546   4.833   1.425   4.364
 5868TIP3    H117547   4.782   1.404   4.283
 5868TIP3    H217548   4.795   1.511   4.391
 5869TIP3   OH217549   4.266   1.274   4.749
 5869TIP3    H117550   4.309   1.263   4.836
 5869TIP3    H217551   4.214   1.192   4.742
 5870TIP3   OH217552   5.030   1.331   4.000
 5870TIP3    H117553   5.087   1.260   3.965
 5870TIP3    H217554   5.063   1.341   4.092
 5871TIP3   OH217555   5.082   1.378   4.270
 5871TIP3    H117556   4.993   1.388   4.309
 5871TIP3    H217557   5.130   1.338   4.344
 5872TIP3   OH217558   5.847   0.630   5.561
 5872TIP3    H117559   5.788   0.660   5.491
 5872TIP3    H217560   5.828   0.534   5.557
 5873TIP3   OH217561   4.446   1.053   5.573
 5873TIP3    H117562   4.494   1.035   5.656
 5873TIP3    H217563   4.371   0.990   5.579
 5874TIP3   OH217564   5.647   0.434   5.506
 5874TIP3    H117565   5.586   0.449   5.578
 5874TIP3    H217566   5.619   0.501   5.441
 5875TIP3   OH217567   5.285   0.533   4.029
 5875TIP3    H117568   5.240   0.520   3.943
 5875TIP3    H217569   5.361   0.588   4.002
 5876TIP3   OH217570   4.784   0.390   5.400
 5876TIP3    H117571   4.719   0.418   5.467
 5876TIP3    H217572   4.773   0.463   5.334
 5877TIP3   OH217573   5.138   0.363   4.619
 5877TIP3    H117574   5.096   0.437   4.571
 5877TIP3    H217575   5.207   0.333   4.556
 5878TIP3   OH217576   5.334   0.675   5.697
 5878TIP3    H117577   5.308   0.593   5.745
 5878TIP3    H217578   5.429   0.679   5.720
 5879TIP3   OH217579   5.240   0.437   4.879
 5879TIP3    H117580   5.216   0.408   4.788
 5879TIP3    H217581   5.334   0.410   4.884
 5880TIP3   OH217582   4.588   0.429   5.591
 5880TIP3    H117583   4.623   0.482   5.664
 5880TIP3    H217584   4.571   0.343   5.634
 5881TIP3   OH217585   4.225   0.040   4.730
 5881TIP3    H117586   4.245   0.041   4.634
 5881TIP3    H217587   4.128   0.052   4.725
 5882TIP3   OH217588   5.323   0.619   5.263
 5882TIP3    H117589   5.352   0.544   5.210
 5882TIP3    H217590   5.293   0.572   5.345
 5883TIP3   OH217591   4.423   0.168   4.938
 5883TIP3    H117592   4.328   0.189   4.920
 5883TIP3    H217593   4.416   0.072   4.952
 5884TIP3   OH217594   4.701   0.199   4.659
 5884TIP3    H117595   4.794   0.175   4.637
 5884TIP3    H217596   4.654   0.178   4.575
 5885TIP3   OH217597   4.543   0.159   4.432
 5885TIP3    H117598   4.473   0.134   4.369
 5885TIP3    H217599   4.603   0.205   4.369
 5886TIP3   OH217600   5.655   1.864   5.379
 5886TIP3    H117601   5.652   1.887   5.284
 5886TIP3    H217602   5.736   1.910   5.408
 5887TIP3   OH217603   4.605   0.976   5.799
 5887TIP3    H117604   4.687   1.003   5.845
 5887TIP3    H217605   4.542   0.977   5.873
 5888TIP3   OH217606   5.068   0.457   5.088
 5888TIP3    H117607   5.129   0.432   5.015
 5888TIP3    H217608   5.068   0.377   5.143
 5889TIP3   OH217609   5.059   0.328   5.346
 5889TIP3    H117610   4.964   0.345   5.359
 5889TIP3    H217611   5.102   0.400   5.394
 5890TIP3   OH217612   4.779   0.717   4.437
 5890TIP3    H117613   4.709   0.649   4.424
 5890TIP3    H217614   4.759   0.748   4.528
 5891TIP3   OH217615   5.681   0.951   5.062
 5891TIP3    H117616   5.704   1.001   4.981
 5891TIP3    H217617   5.597   0.907   5.035
 5892TIP3   OH217618   5.217   0.097   4.256
 5892TIP3    H117619   5.157   0.045   4.313
 5892TIP3    H217620   5.253   0.161   4.321
 5893TIP3   OH217621   5.181   1.034   5.433
 5893TIP3    H117622   5.214   1.013   5.521
 5893TIP3    H217623   5.144   1.123   5.443
 5894TIP3   OH217624   5.316   0.291   4.418
 5894TIP3    H117625   5.412   0.304   4.434
 5894TIP3    H217626   5.292   0.372   4.368
 5895TIP3   OH217627   4.481   0.740   5.111
 5895TIP3    H117628   4.518   0.706   5.027
 5895TIP3    H217629   4.519   0.679   5.175
 5896TIP3   OH217630   4.931   0.866   4.266
 5896TIP3    H117631   4.882   0.952   4.267
 5896TIP3    H217632   4.874   0.811   4.323
 5897TIP3   OH217633   4.357   0.658   5.729
 5897TIP3    H117634   4.375   0.633   5.822
 5897TIP3    H217635   4.286   0.596   5.704
 5898TIP3   OH217636   5.084   0.779   5.750
 5898TIP3    H117637   5.024   0.723   5.696
 5898TIP3    H217638   5.172   0.749   5.717
 5899TIP3   OH217639   5.341   1.299   5.331
 5899TIP3    H117640   5.245   1.293   5.344
 5899TIP3    H217641   5.367   1.349   5.411
 5900TIP3   OH217642   5.747   0.366   4.229
 5900TIP3    H117643   5.685   0.318   4.169
 5900TIP3    H217644   5.734   0.457   4.193
 5901TIP3   OH217645   5.973   1.230   5.316
 5901TIP3    H117646   5.875   1.220   5.309
 5901TIP3    H217647   5.999   1.197   5.227
 5902TIP3   OH217648   5.460   1.184   4.151
 5902TIP3    H117649   5.424   1.117   4.211
 5902TIP3    H217650   5.466   1.136   4.066
 5903TIP3   OH217651   5.447   0.805   4.987
 5903TIP3    H117652   5.350   0.788   4.989
 5903TIP3    H217653   5.480   0.715   4.975
 5904TIP3   OH217654   4.580   1.045   4.741
 5904TIP3    H117655   4.577   1.126   4.685
 5904TIP3    H217656   4.487   1.023   4.746
 5905TIP3   OH217657   4.144   0.344   4.447
 5905TIP3    H117658   4.187   0.430   4.465
 5905TIP3    H217659   4.065   0.351   4.506
 5906TIP3   OH217660   4.705   0.805   4.683
 5906TIP3    H117661   4.679   0.898   4.696
 5906TIP3    H217662   4.664   0.762   4.760
 5907TIP3   OH217663   4.849   1.383   5.206
 5907TIP3    H117664   4.891   1.455   5.154
 5907TIP3    H217665   4.927   1.345   5.250
 5908TIP3   OH217666   4.498   1.279   4.593
 5908TIP3    H117667   4.411   1.289   4.636
 5908TIP3    H217668   4.530   1.372   4.593
 5909TIP3   OH217669   5.232   1.022   5.165
 5909TIP3    H117670   5.221   1.019   5.262
 5909TIP3    H217671   5.305   0.960   5.151
 5910TIP3   OH217672   5.213   0.915   4.048
 5910TIP3    H117673   5.263   0.889   4.128
 5910TIP3    H217674   5.124   0.883   4.070
 5911TIP3   OH217675   5.483   1.550   5.217
 5911TIP3    H117676   5.403   1.493   5.212
 5911TIP3    H217677   5.465   1.613   5.143
 5912TIP3   OH217678   5.547   1.384   3.866
 5912TIP3    H117679   5.581   1.457   3.812
 5912TIP3    H217680   5.468   1.427   3.904
 5913TIP3   OH217681   5.373   0.842   4.261
 5913TIP3    H117682   5.363   0.779   4.334
 5913TIP3    H217683   5.471   0.840   4.251
 5914TIP3   OH217684   4.286   1.246   5.363
 5914TIP3    H117685   4.339   1.172   5.396
 5914TIP3    H217686   4.318   1.318   5.420
 5915TIP3   OH217687   4.576   0.892   4.049
 5915TIP3    H117688   4.584   0.798   4.021
 5915TIP3    H217689   4.553   0.881   4.144
 5916TIP3   OH217690   4.520   0.897   4.320
 5916TIP3    H117691   4.596   0.873   4.374
 5916TIP3    H217692   4.521   0.995   4.327
 5917TIP3   OH217693   4.257   0.591   4.530
 5917TIP3    H117694   4.188   0.636   4.583
 5917TIP3    H217695   4.268   0.657   4.459
 5918TIP3   OH217696   4.789   1.096   4.271
 5918TIP3    H117697   4.701   1.118   4.306
 5918TIP3    H217698   4.800   1.167   4.206
 5919TIP3   OH217699   4.979   0.144   4.651
 5919TIP3    H117700   5.034   0.226   4.650
 5919TIP3    H217701   5.008   0.103   4.735
 5920TIP3   OH217702   5.257   0.484   5.488
 5920TIP3    H117703   5.258   0.532   5.573
 5920TIP3    H217704   5.292   0.397   5.515
 5921TIP3   OH217705   4.536   1.169   4.341
 5921TIP3    H117706   4.505   1.237   4.278
 5921TIP3    H217707   4.516   1.212   4.427
 5922TIP3   OH217708   4.249   0.791   4.332
 5922TIP3    H117709   4.316   0.862   4.333
 5922TIP3    H217710   4.289   0.734   4.263
 5923TIP3   OH217711   4.192   0.073   4.458
 5923TIP3    H117712   4.188   0.171   4.448
 5923TIP3    H217713   4.107   0.046   4.421
 5924TIP3   OH217714   5.504   1.531   4.807
 5924TIP3    H117715   5.461   1.578   4.732
 5924TIP3    H217716   5.598   1.548   4.786
 5925TIP3   OH217717   4.114   1.015   4.709
 5925TIP3    H117718   4.050   1.044   4.776
 5925TIP3    H217719   4.078   1.059   4.628
 5926TIP3   OH217720   4.279   1.563   5.787
 5926TIP3    H117721   4.366   1.562   5.833
 5926TIP3    H217722   4.258   1.468   5.785
 5927TIP3   OH217723   4.754   1.513   5.833
 5927TIP3    H117724   4.849   1.494   5.837
 5927TIP3    H217725   4.726   1.452   5.761
 5928TIP3   OH217726   4.739   1.092   3.959
 5928TIP3    H117727   4.682   1.022   3.997
 5928TIP3    H217728   4.813   1.039   3.926
 5929TIP3   OH217729   5.390   1.430   5.570
 5929TIP3    H117730   5.386   1.358   5.638
 5929TIP3    H217731   5.470   1.479   5.597
 5930TIP3   OH217732   5.174   1.132   3.875
 5930TIP3    H117733   5.210   1.064   3.935
 5930TIP3    H217734   5.231   1.126   3.796
 5931TIP3   OH217735   4.404   0.962   5.989
 5931TIP3    H117736   4.416   0.866   5.995
 5931TIP3    H217737   4.318   0.967   5.941
 5932TIP3   OH217738   4.384   0.608   4.184
 5932TIP3    H117739   4.443   0.580   4.256
 5932TIP3    H217740   4.449   0.614   4.111
 5933TIP3   OH217741   5.011   1.051   5.764
 5933TIP3    H117742   4.972   1.070   5.676
 5933TIP3    H217743   5.042   0.958   5.753
 5934TIP3   OH217744   4.911   0.816   3.994
 5934TIP3    H117745   4.904   0.825   4.091
 5934TIP3    H217746   4.909   0.718   3.986
 5935TIP3   OH217747   5.505   1.064   5.372
 5935TIP3    H117748   5.582   1.103   5.326
 5935TIP3    H217749   5.436   1.130   5.351
 5936TIP3   OH217750   4.534   0.686   5.976
 5936TIP3    H117751   4.621   0.658   5.943
 5936TIP3    H217752   4.559   0.729   6.060
 5937TIP3   OH217753   4.592   0.516   4.405
 5937TIP3    H117754   4.565   0.467   4.484
 5937TIP3    H217755   4.630   0.445   4.350
 5938TIP3   OH217756   4.858   0.611   5.634
 5938TIP3    H117757   4.775   0.665   5.627
 5938TIP3    H217758   4.907   0.639   5.554
 5939TIP3   OH217759   4.691   0.312   4.250
 5939TIP3    H117760   4.663   0.315   4.156
 5939TIP3    H217761   4.789   0.313   4.240
 5940TIP3   OH217762   5.384   0.985   5.763
 5940TIP3    H117763   5.453   0.946   5.706
 5940TIP3    H217764   5.370   0.914   5.828
 5941TIP3   OH217765   5.515   0.637   3.908
 5941TIP3    H117766   5.491   0.596   3.822
 5941TIP3    H217767   5.482   0.728   3.890
 5942TIP3   OH217768   4.945   0.388   5.752
 5942TIP3    H117769   4.900   0.327   5.690
 5942TIP3    H217770   4.920   0.474   5.711
 5943TIP3   OH217771   5.018   0.699   5.439
 5943TIP3    H117772   5.098   0.691   5.386
 5943TIP3    H217773   4.964   0.763   5.388
 5944TIP3   OH217774   5.585   0.666   5.803
 5944TIP3    H117775   5.621   0.607   5.874
 5944TIP3    H217776   5.666   0.697   5.759
 5945TIP3   OH217777   5.633   0.919   5.560
 5945TIP3    H117778   5.576   0.972   5.499
 5945TIP3    H217779   5.721   0.937   5.520
 5946TIP3   OH217780   4.821   0.511   5.984
 5946TIP3    H117781   4.797   0.426   6.022
 5946TIP3    H217782   4.883   0.483   5.913
 5947TIP3   OH217783   5.227   0.448   5.789
 5947TIP3    H117784   5.259   0.409   5.873
 5947TIP3    H217785   5.132   0.426   5.794
 5948TIP3   OH217786   4.505   1.375   4.159
 5948TIP3    H117787   4.597   1.369   4.129
 5948TIP3    H217788   4.465   1.419   4.082
 5949TIP3   OH217789   3.980   0.748   4.375
 5949TIP3    H117790   4.072   0.773   4.351
 5949TIP3    H217791   3.970   0.665   4.324
 5950TIP3   OH217792   3.895   1.367   4.785
 5950TIP3    H117793   3.832   1.306   4.740
 5950TIP3    H217794   3.940   1.304   4.846
 5951TIP3   OH217795   4.031   1.209   4.968
 5951TIP3    H117796   4.016   1.141   5.035
 5951TIP3    H217797   4.083   1.273   5.019
 5952TIP3   OH217798   5.761   1.614   4.770
 5952TIP3    H117799   5.787   1.646   4.859
 5952TIP3    H217800   5.827   1.656   4.713
 5953TIP3   OH217801   5.787   1.636   5.053
 5953TIP3    H117802   5.741   1.549   5.048
 5953TIP3    H217803   5.861   1.610   5.110
 5954TIP3   OH217804   5.835   1.314   5.625
 5954TIP3    H117805   5.763   1.324   5.691
 5954TIP3    H217806   5.878   1.402   5.629
 5955TIP3   OH217807   5.653   0.823   4.240
 5955TIP3    H117808   5.718   0.892   4.214
 5955TIP3    H217809   5.695   0.786   4.321
 5956TIP3   OH217810   5.773   0.689   4.449
 5956TIP3    H117811   5.707   0.653   4.514
 5956TIP3    H217812   5.836   0.736   4.508
 5957TIP3   OH217813   5.836   1.091   4.878
 5957TIP3    H117814   5.889   1.021   4.834
 5957TIP3    H217815   5.830   1.160   4.809
 5958TIP3   OH217816   5.661   1.387   5.071
 5958TIP3    H117817   5.588   1.427   5.122
 5958TIP3    H217818   5.612   1.341   4.999
 5959TIP3   OH217819   5.711   0.602   4.090
 5959TIP3    H117820   5.640   0.610   4.021
 5959TIP3    H217821   5.685   0.678   4.147
 5960TIP3   OH217822   5.578   0.258   4.032
 5960TIP3    H117823   5.562   0.341   3.983
 5960TIP3    H217824   5.517   0.199   3.985
 5961TIP3   OH217825   5.591   0.553   4.611
 5961TIP3    H117826   5.588   0.464   4.571
 5961TIP3    H217827   5.589   0.529   4.707
 5962TIP3   OH217828   4.214   0.623   5.343
 5962TIP3    H117829   4.209   0.587   5.252
 5962TIP3    H217830   4.312   0.626   5.356
 5963TIP3   OH217831   5.880   0.976   5.451
 5963TIP3    H117832   5.949   0.907   5.439
 5963TIP3    H217833   5.902   1.039   5.380
 5964TIP3   OH217834   6.061   0.775   5.467
 5964TIP3    H117835   5.987   0.719   5.499
 5964TIP3    H217836   6.136   0.714   5.486
 5965TIP3   OH217837   5.588   0.315   4.465
 5965TIP3    H117838   5.615   0.236   4.518
 5965TIP3    H217839   5.649   0.310   4.389
 5966TIP3   OH217840   5.839   0.607   5.251
 5966TIP3    H117841   5.742   0.611   5.257
 5966TIP3    H217842   5.857   0.665   5.175
 5967TIP3   OH217843   4.434   0.270   6.025
 5967TIP3    H117844   4.522   0.303   6.001
 5967TIP3    H217845   4.432   0.188   5.967
 5968TIP3   OH217846   4.191   0.280   5.407
 5968TIP3    H117847   4.243   0.276   5.324
 5968TIP3    H217848   4.229   0.357   5.450
 5969TIP3   OH217849   5.344   1.485   4.425
 5969TIP3    H117850   5.394   1.474   4.342
 5969TIP3    H217851   5.397   1.552   4.471
 5970TIP3   OH217852   4.441   1.292   5.807
 5970TIP3    H117853   4.348   1.267   5.791
 5970TIP3    H217854   4.451   1.271   5.901
 5971TIP3   OH217855   4.624   1.327   5.358
 5971TIP3    H117856   4.576   1.402   5.317
 5971TIP3    H217857   4.709   1.339   5.312
 5972TIP3   OH217858   5.061   1.566   5.496
 5972TIP3    H117859   5.105   1.564   5.583
 5972TIP3    H217860   5.126   1.617   5.443
 5973TIP3   OH217861   5.240   1.720   5.356
 5973TIP3    H117862   5.307   1.668   5.310
 5973TIP3    H217863   5.295   1.775   5.415
 5974TIP3   OH217864   4.296   1.579   5.380
 5974TIP3    H117865   4.206   1.610   5.356
 5974TIP3    H217866   4.305   1.619   5.467
 5975TIP3   OH217867   4.534   1.559   5.241
 5975TIP3    H117868   4.446   1.570   5.283
 5975TIP3    H217869   4.515   1.587   5.149
 5976TIP3   OH217870   4.957   1.582   5.039
 5976TIP3    H117871   4.888   1.597   4.972
 5976TIP3    H217872   4.968   1.671   5.077
 5977TIP3   OH217873   5.227   1.524   5.094
 5977TIP3    H117874   5.133   1.539   5.070
 5977TIP3    H217875   5.272   1.592   5.042
 5978TIP3   OH217876   5.432   1.713   5.001
 5978TIP3    H117877   5.419   1.797   4.952
 5978TIP3    H217878   5.460   1.652   4.928
 5979TIP3   OH217879   4.206   1.370   5.125
 5979TIP3    H117880   4.234   1.341   5.214
 5979TIP3    H217881   4.278   1.329   5.072
 5980TIP3   OH217882   4.403   1.244   4.987
 5980TIP3    H117883   4.419   1.160   5.035
 5980TIP3    H217884   4.494   1.279   4.980
 5981TIP3   OH217885   4.672   1.336   4.990
 5981TIP3    H117886   4.700   1.244   4.976
 5981TIP3    H217887   4.721   1.356   5.072
 5982TIP3   OH217888   3.991   1.151   4.512
 5982TIP3    H117889   3.906   1.119   4.476
 5982TIP3    H217890   3.988   1.243   4.476
 5983TIP3   OH217891   4.771   1.326   4.097
 5983TIP3    H117892   4.858   1.350   4.059
 5983TIP3    H217893   4.746   1.253   4.036
 5984TIP3   OH217894   5.491   1.452   4.193
 5984TIP3    H117895   5.484   1.354   4.182
 5984TIP3    H217896   5.442   1.482   4.113
 5985TIP3   OH217897   4.097   1.182   4.160
 5985TIP3    H117898   4.093   1.190   4.255
 5985TIP3    H217899   4.183   1.137   4.144
 5986TIP3   OH217900   5.709   1.593   5.379
 5986TIP3    H117901   5.632   1.563   5.327
 5986TIP3    H217902   5.691   1.689   5.385
 5987TIP3   OH217903   6.979   0.963   4.143
 5987TIP3    H117904   6.949   1.054   4.123
 5987TIP3    H217905   6.907   0.913   4.101
 5988TIP3   OH217906   6.981   0.971   4.530
 5988TIP3    H117907   7.014   0.947   4.619
 5988TIP3    H217908   6.940   0.888   4.501
 5989TIP3   OH217909   6.273   0.860   4.887
 5989TIP3    H117910   6.301   0.785   4.944
 5989TIP3    H217911   6.352   0.915   4.892
 5990TIP3   OH217912   7.227   1.272   4.210
 5990TIP3    H117913   7.209   1.203   4.275
 5990TIP3    H217914   7.257   1.346   4.266
 5991TIP3   OH217915   6.252   1.270   4.609
 5991TIP3    H117916   6.242   1.173   4.612
 5991TIP3    H217917   6.349   1.279   4.606
 5992TIP3   OH217918   5.951   0.482   4.398
 5992TIP3    H117919   5.906   0.565   4.425
 5992TIP3    H217920   5.873   0.433   4.365
 5993TIP3   OH217921   6.007   0.781   4.565
 5993TIP3    H117922   6.050   0.699   4.600
 5993TIP3    H217923   6.083   0.828   4.528
 5994TIP3   OH217924   6.885   1.740   4.227
 5994TIP3    H117925   6.921   1.666   4.173
 5994TIP3    H217926   6.864   1.693   4.309
 5995TIP3   OH217927   6.777   1.194   4.573
 5995TIP3    H117928   6.818   1.117   4.531
 5995TIP3    H217929   6.858   1.242   4.599
 5996TIP3   OH217930   7.193   0.693   4.619
 5996TIP3    H117931   7.216   0.603   4.647
 5996TIP3    H217932   7.158   0.679   4.529
 5997TIP3   OH217933   6.471   0.306   4.556
 5997TIP3    H117934   6.473   0.393   4.511
 5997TIP3    H217935   6.457   0.244   4.484
 5998TIP3   OH217936   7.184   0.465   4.242
 5998TIP3    H117937   7.247   0.421   4.303
 5998TIP3    H217938   7.239   0.471   4.162
 5999TIP3   OH217939   6.138   0.568   4.661
 5999TIP3    H117940   6.227   0.567   4.705
 5999TIP3    H217941   6.150   0.496   4.598
 6000TIP3   OH217942   6.598   0.754   4.473
 6000TIP3    H117943   6.693   0.732   4.489
 6000TIP3    H217944   6.562   0.665   4.451
 6001TIP3   OH217945   7.818   0.701   4.772
 6001TIP3    H117946   7.746   0.761   4.743
 6001TIP3    H217947   7.888   0.762   4.801
 6002TIP3   OH217948   6.864   1.183   4.013
 6002TIP3    H117949   6.831   1.171   3.923
 6002TIP3    H217950   6.820   1.266   4.039
 6003TIP3   OH217951   6.632   1.113   4.794
 6003TIP3    H117952   6.572   1.181   4.831
 6003TIP3    H217953   6.674   1.161   4.720
 6004TIP3   OH217954   6.392   0.522   4.735
 6004TIP3    H117955   6.460   0.562   4.792
 6004TIP3    H217956   6.428   0.433   4.724
 6005TIP3   OH217957   6.462   1.310   4.895
 6005TIP3    H117958   6.436   1.398   4.862
 6005TIP3    H217959   6.383   1.290   4.950
 6006TIP3   OH217960   5.852   0.999   4.132
 6006TIP3    H117961   5.808   1.026   4.049
 6006TIP3    H217962   5.881   1.086   4.167
 6007TIP3   OH217963   7.291   1.516   4.372
 6007TIP3    H117964   7.202   1.505   4.412
 6007TIP3    H217965   7.281   1.602   4.327
 6008TIP3   OH217966   6.988   1.562   4.039
 6008TIP3    H117967   7.037   1.478   4.024
 6008TIP3    H217968   7.054   1.626   4.002
 6009TIP3   OH217969   7.133   1.345   3.960
 6009TIP3    H117970   7.108   1.263   3.915
 6009TIP3    H217971   7.172   1.310   4.043
 6010TIP3   OH217972   7.519   1.424   4.716
 6010TIP3    H117973   7.505   1.345   4.658
 6010TIP3    H217974   7.502   1.498   4.655
 6011TIP3   OH217975   6.810   0.825   3.976
 6011TIP3    H117976   6.731   0.877   3.950
 6011TIP3    H217977   6.855   0.813   3.890
 6012TIP3   OH217978   6.766   0.592   3.722
 6012TIP3    H117979   6.835   0.656   3.747
 6012TIP3    H217980   6.814   0.547   3.650
 6013TIP3   OH217981   7.704   1.057   4.552
 6013TIP3    H117982   7.624   1.113   4.559
 6013TIP3    H217983   7.741   1.088   4.467
 6014TIP3   OH217984   7.158   0.909   3.941
 6014TIP3    H117985   7.103   0.928   4.020
 6014TIP3    H217986   7.243   0.884   3.984
 6015TIP3   OH217987   7.389   0.939   4.869
 6015TIP3    H117988   7.386   1.021   4.923
 6015TIP3    H217989   7.302   0.944   4.825
 6016TIP3   OH217990   6.391   0.892   4.363
 6016TIP3    H117991   6.362   0.832   4.292
 6016TIP3    H217992   6.470   0.845   4.398
 6017TIP3   OH217993   6.521   1.313   4.508
 6017TIP3    H117994   6.502   1.278   4.419
 6017TIP3    H217995   6.610   1.274   4.526
 6018TIP3   OH217996   6.529   0.867   4.723
 6018TIP3    H117997   6.561   0.840   4.634
 6018TIP3    H217998   6.572   0.953   4.737
 6019TIP3   OH217999   7.052   1.507   4.495
 6019TIP3    H118000   7.040   1.585   4.552
 6019TIP3    H218001   7.036   1.433   4.557
 6020TIP3   OH218002   6.666   1.426   5.041
 6020TIP3    H118003   6.605   1.486   5.088
 6020TIP3    H218004   6.602   1.372   4.990
 6021TIP3   OH218005   6.989   0.767   3.772
 6021TIP3    H118006   7.052   0.827   3.817
 6021TIP3    H218007   7.014   0.782   3.677
 6022TIP3   OH218008   6.410   0.991   5.138
 6022TIP3    H118009   6.416   1.076   5.186
 6022TIP3    H218010   6.318   0.965   5.159
 6023TIP3   OH218011   6.745   1.434   4.048
 6023TIP3    H118012   6.827   1.486   4.053
 6023TIP3    H218013   6.685   1.494   4.002
 6024TIP3   OH218014   6.458   1.590   5.129
 6024TIP3    H118015   6.423   1.593   5.038
 6024TIP3    H218016   6.378   1.569   5.182
 6025TIP3   OH218017   6.248   0.725   4.159
 6025TIP3    H118018   6.199   0.781   4.096
 6025TIP3    H218019   6.179   0.707   4.224
 6026TIP3   OH218020   7.308   1.368   3.372
 6026TIP3    H118021   7.319   1.464   3.355
 6026TIP3    H218022   7.400   1.335   3.360
 6027TIP3   OH218023   6.038   1.124   5.076
 6027TIP3    H118024   5.968   1.105   5.009
 6027TIP3    H218025   6.074   1.036   5.096
 6028TIP3   OH218026   5.892   1.319   4.703
 6028TIP3    H118027   5.989   1.314   4.699
 6028TIP3    H218028   5.880   1.396   4.761
 6029TIP3   OH218029   7.761   1.776   4.767
 6029TIP3    H118030   7.761   1.679   4.783
 6029TIP3    H218031   7.677   1.800   4.812
 6030TIP3   OH218032   6.860   1.556   4.898
 6030TIP3    H118033   6.856   1.648   4.931
 6030TIP3    H218034   6.789   1.514   4.952
 6031TIP3   OH218035   6.628   1.682   3.850
 6031TIP3    H118036   6.579   1.662   3.769
 6031TIP3    H218037   6.590   1.767   3.878
 6032TIP3   OH218038   6.062   1.531   4.237
 6032TIP3    H118039   6.108   1.522   4.323
 6032TIP3    H218040   6.010   1.449   4.235
 6033TIP3   OH218041   6.825   1.587   3.488
 6033TIP3    H118042   6.882   1.515   3.452
 6033TIP3    H218043   6.861   1.595   3.579
 6034TIP3   OH218044   6.879   1.635   3.759
 6034TIP3    H118045   6.789   1.645   3.798
 6034TIP3    H218046   6.925   1.589   3.831
 6035TIP3   OH218047   7.639   0.881   5.045
 6035TIP3    H118048   7.561   0.911   4.995
 6035TIP3    H218049   7.633   0.785   5.033
 6036TIP3   OH218050   6.241   1.308   5.058
 6036TIP3    H118051   6.290   1.292   5.141
 6036TIP3    H218052   6.168   1.244   5.066
 6037TIP3   OH218053   7.408   0.680   4.989
 6037TIP3    H118054   7.387   0.718   5.075
 6037TIP3    H218055   7.394   0.755   4.928
 6038TIP3   OH218056   7.076   0.824   3.521
 6038TIP3    H118057   7.038   0.787   3.439
 6038TIP3    H218058   7.163   0.855   3.489
 6039TIP3   OH218059   6.592   0.653   4.883
 6039TIP3    H118060   6.532   0.669   4.958
 6039TIP3    H218061   6.575   0.732   4.828
 6040TIP3   OH218062   6.464   0.523   4.386
 6040TIP3    H118063   6.367   0.509   4.387
 6040TIP3    H218064   6.483   0.500   4.293
 6041TIP3   OH218065   6.936   0.618   4.107
 6041TIP3    H118066   6.892   0.693   4.061
 6041TIP3    H218067   7.002   0.591   4.039
 6042TIP3   OH218068   7.130   0.923   5.177
 6042TIP3    H118069   7.104   0.843   5.228
 6042TIP3    H218070   7.224   0.931   5.203
 6043TIP3   OH218071   7.083   0.685   4.367
 6043TIP3    H118072   7.029   0.732   4.300
 6043TIP3    H218073   7.105   0.604   4.314
 6044TIP3   OH218074   6.393   0.680   5.073
 6044TIP3    H118075   6.406   0.740   5.148
 6044TIP3    H218076   6.362   0.598   5.116
 6045TIP3   OH218077   6.004   0.265   4.202
 6045TIP3    H118078   5.981   0.203   4.128
 6045TIP3    H218079   5.916   0.306   4.217
 6046TIP3   OH218080   7.107   0.897   4.769
 6046TIP3    H118081   7.146   0.826   4.713
 6046TIP3    H218082   7.084   0.843   4.848
 6047TIP3   OH218083   6.208   0.403   4.379
 6047TIP3    H118084   6.112   0.428   4.382
 6047TIP3    H218085   6.213   0.339   4.452
 6048TIP3   OH218086   6.489   0.422   4.135
 6048TIP3    H118087   6.587   0.413   4.132
 6048TIP3    H218088   6.468   0.422   4.040
 6049TIP3   OH218089   6.306   0.432   3.910
 6049TIP3    H118090   6.256   0.387   3.837
 6049TIP3    H218091   6.373   0.477   3.854
 6050TIP3   OH218092   7.453   2.120   4.868
 6050TIP3    H118093   7.453   2.146   4.775
 6050TIP3    H218094   7.533   2.166   4.901
 6051TIP3   OH218095   6.403   1.233   5.283
 6051TIP3    H118096   6.484   1.259   5.332
 6051TIP3    H218097   6.339   1.229   5.357
 6052TIP3   OH218098   6.853   0.685   4.539
 6052TIP3    H118099   6.939   0.660   4.502
 6052TIP3    H218100   6.859   0.652   4.632
 6053TIP3   OH218101   6.863   0.612   4.800
 6053TIP3    H118102   6.773   0.613   4.839
 6053TIP3    H218103   6.917   0.655   4.870
 6054TIP3   OH218104   6.576   0.973   3.920
 6054TIP3    H118105   6.504   0.908   3.908
 6054TIP3    H218106   6.557   1.005   4.012
 6055TIP3   OH218107   7.476   1.209   4.550
 6055TIP3    H118108   7.500   1.259   4.469
 6055TIP3    H218109   7.392   1.166   4.523
 6056TIP3   OH218110   7.037   0.320   3.756
 6056TIP3    H118111   6.949   0.305   3.793
 6056TIP3    H218112   7.062   0.403   3.801
 6057TIP3   OH218113   6.979   1.291   4.920
 6057TIP3    H118114   7.011   1.270   5.009
 6057TIP3    H218115   6.939   1.379   4.932
 6058TIP3   OH218116   7.110   0.549   3.902
 6058TIP3    H118117   7.207   0.564   3.907
 6058TIP3    H218118   7.081   0.619   3.840
 6059TIP3   OH218119   6.271   0.989   4.596
 6059TIP3    H118120   6.315   0.960   4.514
 6059TIP3    H218121   6.317   0.936   4.664
 6060TIP3   OH218122   6.728   1.123   3.750
 6060TIP3    H118123   6.677   1.207   3.753
 6060TIP3    H218124   6.673   1.066   3.808
 6061TIP3   OH218125   6.153   0.908   5.214
 6061TIP3    H118126   6.164   0.888   5.309
 6061TIP3    H218127   6.082   0.847   5.189
 6062TIP3   OH218128   6.881   1.036   5.236
 6062TIP3    H118129   6.818   0.978   5.190
 6062TIP3    H218130   6.967   1.004   5.201
 6063TIP3   OH218131   7.136   1.556   4.815
 6063TIP3    H118132   7.040   1.550   4.831
 6063TIP3    H218133   7.165   1.604   4.895
 6064TIP3   OH218134   7.546   0.618   3.712
 6064TIP3    H118135   7.487   0.568   3.650
 6064TIP3    H218136   7.533   0.709   3.677
 6065TIP3   OH218137   7.770   1.488   4.802
 6065TIP3    H118138   7.673   1.476   4.793
 6065TIP3    H218139   7.800   1.458   4.713
 6066TIP3   OH218140   7.250   1.439   3.638
 6066TIP3    H118141   7.221   1.367   3.696
 6066TIP3    H218142   7.261   1.395   3.552
 6067TIP3   OH218143   7.244   1.074   4.464
 6067TIP3    H118144   7.151   1.048   4.479
 6067TIP3    H218145   7.279   0.993   4.420
 6068TIP3   OH218146   6.376   1.300   4.226
 6068TIP3    H118147   6.372   1.380   4.170
 6068TIP3    H218148   6.282   1.282   4.239
 6069TIP3   OH218149   5.935   0.613   3.931
 6069TIP3    H118150   5.978   0.699   3.951
 6069TIP3    H218151   5.856   0.617   3.989
 6070TIP3   OH218152   6.500   1.060   4.165
 6070TIP3    H118153   6.471   1.151   4.184
 6070TIP3    H218154   6.470   1.012   4.244
 6071TIP3   OH218155   6.646   1.639   4.693
 6071TIP3    H118156   6.689   1.712   4.644
 6071TIP3    H218157   6.721   1.602   4.741
 6072TIP3   OH218158   6.291   1.537   4.076
 6072TIP3    H118159   6.206   1.545   4.123
 6072TIP3    H218160   6.324   1.630   4.079
 6073TIP3   OH218161   7.028   1.276   4.653
 6073TIP3    H118162   7.016   1.275   4.751
 6073TIP3    H218163   7.107   1.221   4.643
 6074TIP3   OH218164   7.009   1.175   3.537
 6074TIP3    H118165   7.062   1.149   3.615
 6074TIP3    H218166   6.923   1.137   3.560
 6075TIP3   OH218167   7.278   1.806   4.703
 6075TIP3    H118168   7.199   1.748   4.700
 6075TIP3    H218169   7.258   1.871   4.632
 6076TIP3   OH218170   7.345   1.643   3.353
 6076TIP3    H118171   7.373   1.717   3.297
 6076TIP3    H218172   7.264   1.683   3.391
 6077TIP3   OH218173   7.171   1.112   3.753
 6077TIP3    H118174   7.157   1.041   3.820
 6077TIP3    H218175   7.267   1.102   3.737
 6078TIP3   OH218176   6.083   1.501   4.850
 6078TIP3    H118177   6.136   1.429   4.889
 6078TIP3    H218178   6.107   1.575   4.906
 6079TIP3   OH218179   6.369   1.150   3.537
 6079TIP3    H118180   6.382   1.057   3.510
 6079TIP3    H218181   6.348   1.139   3.632
 6080TIP3   OH218182   6.314   1.154   3.810
 6080TIP3    H118183   6.392   1.128   3.860
 6080TIP3    H218184   6.317   1.252   3.817
 6081TIP3   OH218185   6.050   0.851   4.014
 6081TIP3    H118186   5.983   0.897   4.069
 6081TIP3    H218187   6.063   0.917   3.943
 6082TIP3   OH218188   6.583   1.351   3.757
 6082TIP3    H118189   6.495   1.375   3.793
 6082TIP3    H218190   6.596   1.423   3.694
 6083TIP3   OH218191   6.766   0.410   4.148
 6083TIP3    H118192   6.817   0.492   4.127
 6083TIP3    H218193   6.816   0.377   4.224
 6084TIP3   OH218194   7.054   0.732   4.978
 6084TIP3    H118195   7.049   0.796   5.053
 6084TIP3    H218196   7.104   0.661   5.020
 6085TIP3   OH218197   6.329   1.426   3.826
 6085TIP3    H118198   6.299   1.496   3.765
 6085TIP3    H218199   6.312   1.468   3.913
 6086TIP3   OH218200   7.331   0.829   4.348
 6086TIP3    H118201   7.252   0.777   4.369
 6086TIP3    H218202   7.402   0.782   4.397
 6087TIP3   OH218203   6.047   1.048   3.816
 6087TIP3    H118204   6.118   1.114   3.825
 6087TIP3    H218205   6.089   0.989   3.749
 6088TIP3   OH218206   6.005   0.353   3.939
 6088TIP3    H118207   5.971   0.443   3.922
 6088TIP3    H218208   5.940   0.298   3.892
 6089TIP3   OH218209   7.301   1.788   4.295
 6089TIP3    H118210   7.257   1.840   4.225
 6089TIP3    H218211   7.395   1.808   4.275
 6090TIP3   OH218212   5.908   1.267   4.199
 6090TIP3    H118213   5.848   1.297   4.268
 6090TIP3    H218214   5.871   1.313   4.119
 6091TIP3   OH218215   6.076   1.820   5.275
 6091TIP3    H118216   6.162   1.820   5.322
 6091TIP3    H218217   6.057   1.724   5.273
 6092TIP3   OH218218   6.548   1.771   5.319
 6092TIP3    H118219   6.643   1.754   5.327
 6092TIP3    H218220   6.524   1.708   5.248
 6093TIP3   OH218221   6.534   1.349   3.446
 6093TIP3    H118222   6.478   1.277   3.484
 6093TIP3    H218223   6.609   1.298   3.411
 6094TIP3   OH218224   7.192   1.682   5.052
 6094TIP3    H118225   7.185   1.613   5.122
 6094TIP3    H218226   7.269   1.734   5.083
 6095TIP3   OH218227   6.968   1.388   3.361
 6095TIP3    H118228   7.005   1.321   3.422
 6095TIP3    H218229   7.028   1.382   3.284
 6096TIP3   OH218230   6.201   1.219   5.475
 6096TIP3    H118231   6.218   1.123   5.480
 6096TIP3    H218232   6.115   1.222   5.428
 6097TIP3   OH218233   6.182   0.862   3.674
 6097TIP3    H118234   6.243   0.836   3.746
 6097TIP3    H218235   6.246   0.871   3.600
 6098TIP3   OH218236   6.808   1.308   5.250
 6098TIP3    H118237   6.767   1.327   5.163
 6098TIP3    H218238   6.839   1.216   5.241
 6099TIP3   OH218239   6.700   1.069   3.480
 6099TIP3    H118240   6.701   1.080   3.578
 6099TIP3    H218241   6.703   0.971   3.473
 6100TIP3   OH218242   7.301   1.320   4.856
 6100TIP3    H118243   7.378   1.362   4.813
 6100TIP3    H218244   7.232   1.386   4.839
 6101TIP3   OH218245   6.329   0.958   5.460
 6101TIP3    H118246   6.409   0.909   5.435
 6101TIP3    H218247   6.353   0.990   5.549
 6102TIP3   OH218248   6.380   0.778   3.888
 6102TIP3    H118249   6.362   0.735   3.974
 6102TIP3    H218250   6.423   0.706   3.838
 6103TIP3   OH218251   6.660   0.872   5.121
 6103TIP3    H118252   6.574   0.920   5.113
 6103TIP3    H218253   6.705   0.897   5.037
 6104TIP3   OH218254   6.486   0.565   3.749
 6104TIP3    H118255   6.463   0.571   3.654
 6104TIP3    H218256   6.585   0.564   3.743
 6105TIP3   OH218257   7.176   1.242   5.251
 6105TIP3    H118258   7.250   1.204   5.201
 6105TIP3    H218259   7.164   1.176   5.322
 6106TIP3   OH218260   7.310   0.895   3.395
 6106TIP3    H118261   7.289   0.852   3.309
 6106TIP3    H218262   7.276   0.985   3.376
 6107TIP3   OH218263   6.744   0.646   5.239
 6107TIP3    H118264   6.693   0.585   5.181
 6107TIP3    H218265   6.717   0.732   5.199
 6108TIP3   OH218266   6.818   0.954   4.918
 6108TIP3    H118267   6.902   0.965   4.871
 6108TIP3    H218268   6.759   1.017   4.871
 6109TIP3   OH218269   7.383   0.914   5.283
 6109TIP3    H118270   7.415   0.858   5.358
 6109TIP3    H218271   7.462   0.965   5.261
 6110TIP3   OH218272   7.434   1.169   5.037
 6110TIP3    H118273   7.375   1.225   4.981
 6110TIP3    H218274   7.521   1.193   4.998
 6111TIP3   OH218275   6.620   0.771   5.469
 6111TIP3    H118276   6.583   0.695   5.515
 6111TIP3    H218277   6.679   0.730   5.403
 6112TIP3   OH218278   7.022   0.699   5.275
 6112TIP3    H118279   7.048   0.665   5.363
 6112TIP3    H218280   6.925   0.687   5.278
 6113TIP3   OH218281   6.300   1.631   3.640
 6113TIP3    H118282   6.395   1.620   3.618
 6113TIP3    H218283   6.271   1.681   3.562
 6114TIP3   OH218284   5.776   1.011   3.851
 6114TIP3    H118285   5.871   1.031   3.837
 6114TIP3    H218286   5.769   0.922   3.809
 6115TIP3   OH218287   5.695   1.622   4.270
 6115TIP3    H118288   5.628   1.562   4.230
 6115TIP3    H218289   5.738   1.561   4.334
 6116TIP3   OH218290   5.828   1.465   4.455
 6116TIP3    H118291   5.815   1.397   4.523
 6116TIP3    H218292   5.880   1.530   4.506
 6117TIP3   OH218293   7.552   1.881   4.255
 6117TIP3    H118294   7.587   1.907   4.342
 6117TIP3    H218295   7.627   1.901   4.195
 6118TIP3   OH218296   7.588   1.889   4.538
 6118TIP3    H118297   7.541   1.803   4.537
 6118TIP3    H218298   7.666   1.865   4.590
 6119TIP3   OH218299   7.629   1.569   5.111
 6119TIP3    H118300   7.557   1.579   5.178
 6119TIP3    H218301   7.670   1.658   5.114
 6120TIP3   OH218302   7.446   1.085   3.723
 6120TIP3    H118303   7.514   1.149   3.693
 6120TIP3    H218304   7.488   1.051   3.805
 6121TIP3   OH218305   7.566   0.970   3.937
 6121TIP3    H118306   7.497   0.921   3.990
 6121TIP3    H218307   7.626   1.001   4.006
 6122TIP3   OH218308   7.631   1.344   4.363
 6122TIP3    H118309   7.681   1.278   4.312
 6122TIP3    H218310   7.628   1.420   4.302
 6123TIP3   OH218311   7.457   1.644   4.557
 6123TIP3    H118312   7.385   1.682   4.612
 6123TIP3    H218313   7.407   1.597   4.487
 6124TIP3   OH218314   7.502   0.856   3.580
 6124TIP3    H118315   7.434   0.865   3.510
 6124TIP3    H218316   7.479   0.934   3.634
 6125TIP3   OH218317   7.375   0.514   3.520
 6125TIP3    H118318   7.360   0.594   3.467
 6125TIP3    H218319   7.302   0.458   3.488
 6126TIP3   OH218320   7.384   0.823   4.074
 6126TIP3    H118321   7.387   0.729   4.047
 6126TIP3    H218322   7.372   0.818   4.171
 6127TIP3   OH218323   6.010   0.889   4.821
 6127TIP3    H118324   6.006   0.857   4.729
 6127TIP3    H218325   6.107   0.884   4.838
 6128TIP3   OH218326   7.681   1.235   4.934
 6128TIP3    H118327   7.750   1.166   4.926
 6128TIP3    H218328   7.710   1.301   4.868
 6129TIP3   OH218329   7.851   1.026   4.953
 6129TIP3    H118330   7.779   0.971   4.991
 6129TIP3    H218331   7.927   0.966   4.967
 6130TIP3   OH218332   7.386   0.576   3.946
 6130TIP3    H118333   7.415   0.497   3.998
 6130TIP3    H218334   7.449   0.576   3.871
 6131TIP3   OH218335   7.540   0.704   4.473
 6131TIP3    H118336   7.625   0.726   4.428
 6131TIP3    H218337   7.559   0.738   4.563
 6132TIP3   OH218338   7.603   0.852   4.702
 6132TIP3    H118339   7.526   0.889   4.750
 6132TIP3    H218340   7.636   0.930   4.652
 6133TIP3   OH218341   6.228   0.563   5.510
 6133TIP3    H118342   6.315   0.532   5.478
 6133TIP3    H218343   6.190   0.479   5.543
 6134TIP3   OH218344   6.029   0.523   4.919
 6134TIP3    H118345   6.047   0.543   4.825
 6134TIP3    H218346   6.007   0.610   4.955
 6135TIP3   OH218347   7.143   1.749   3.915
 6135TIP3    H118348   7.182   1.726   3.828
 6135TIP3    H218349   7.213   1.805   3.951
 6136TIP3   OH218350   6.237   1.549   5.292
 6136TIP3    H118351   6.144   1.523   5.278
 6136TIP3    H218352   6.250   1.526   5.385
 6137TIP3   OH218353   6.419   1.581   4.843
 6137TIP3    H118354   6.371   1.657   4.804
 6137TIP3    H218355   6.505   1.594   4.798
 6138TIP3   OH218356   6.857   1.823   4.978
 6138TIP3    H118357   6.899   1.820   5.066
 6138TIP3    H218358   6.923   1.875   4.928
 6139TIP3   OH218359   7.040   1.978   4.840
 6139TIP3    H118360   7.110   1.920   4.808
 6139TIP3    H218361   7.090   2.035   4.902
 6140TIP3   OH218362   6.093   1.835   4.868
 6140TIP3    H118363   6.002   1.865   4.846
 6140TIP3    H218364   6.107   1.883   4.951
 6141TIP3   OH218365   6.329   1.815   4.727
 6141TIP3    H118366   6.242   1.826   4.770
 6141TIP3    H218367   6.310   1.845   4.636
 6142TIP3   OH218368   6.754   1.839   4.524
 6142TIP3    H118369   6.681   1.854   4.462
 6142TIP3    H218370   6.764   1.927   4.566
 6143TIP3   OH218371   7.022   1.779   4.577
 6143TIP3    H118372   6.927   1.790   4.559
 6143TIP3    H218373   7.060   1.856   4.532
 6144TIP3   OH218374   7.240   1.975   4.482
 6144TIP3    H118375   7.205   2.029   4.411
 6144TIP3    H218376   7.272   1.898   4.429
 6145TIP3   OH218377   6.004   1.627   4.610
 6145TIP3    H118378   6.030   1.597   4.700
 6145TIP3    H218379   6.076   1.584   4.559
 6146TIP3   OH218380   6.200   1.500   4.471
 6146TIP3    H118381   6.214   1.416   4.521
 6146TIP3    H218382   6.292   1.535   4.468
 6147TIP3   OH218383   6.469   1.591   4.477
 6147TIP3    H118384   6.497   1.498   4.467
 6147TIP3    H218385   6.517   1.613   4.559
 6148TIP3   OH218386   5.791   1.405   3.998
 6148TIP3    H118387   5.704   1.373   3.967
 6148TIP3    H218388   5.784   1.498   3.968
 6149TIP3   OH218389   6.566   1.582   3.584
 6149TIP3    H118390   6.653   1.606   3.547
 6149TIP3    H218391   6.543   1.508   3.524
 6150TIP3   OH218392   7.282   1.706   3.681
 6150TIP3    H118393   7.277   1.608   3.669
 6150TIP3    H218394   7.237   1.736   3.599
 6151TIP3   OH218395   5.868   1.421   3.637
 6151TIP3    H118396   5.871   1.440   3.732
 6151TIP3    H218397   5.955   1.377   3.622
 6152TIP3   OH218398   7.510   1.850   4.862
 6152TIP3    H118399   7.431   1.819   4.814
 6152TIP3    H218400   7.490   1.945   4.872
 6153TIP3   OH218401   8.018   1.512   4.131
 6153TIP3    H118402   7.991   1.434   4.082
 6153TIP3    H218403   8.114   1.515   4.110
 6154TIP3   OH218404   7.752   0.764   3.924
 6154TIP3    H118405   7.676   0.821   3.903
 6154TIP3    H218406   7.739   0.690   3.863
 6155TIP3   OH218407   7.832   1.012   4.059
 6155TIP3    H118408   7.833   0.917   4.034
 6155TIP3    H218409   7.873   1.052   3.980
 6156TIP3   OH218410   7.646   1.252   3.618
 6156TIP3    H118411   7.602   1.281   3.537
 6156TIP3    H218412   7.672   1.338   3.657
 6157TIP3   OH218413   8.205   1.892   4.591
 6157TIP3    H118414   8.172   1.871   4.502
 6157TIP3    H218415   8.126   1.877   4.648
 6158TIP3   OH218416   7.839   1.390   4.556
 6158TIP3    H118417   7.766   1.361   4.498
 6158TIP3    H218418   7.871   1.306   4.596
 6159TIP3   OH218419   7.697   1.575   4.196
 6159TIP3    H118420   7.794   1.572   4.190
 6159TIP3    H218421   7.686   1.651   4.255
 6160TIP3   OH218422   7.826   1.783   3.718
 6160TIP3    H118423   7.911   1.795   3.765
 6160TIP3    H218424   7.795   1.701   3.761
 6161TIP3   OH218425   8.043   1.571   4.530
 6161TIP3    H118426   8.093   1.538   4.608
 6161TIP3    H218427   7.966   1.511   4.534
 6162TIP3   OH218428   7.815   0.552   3.690
 6162TIP3    H118429   7.830   0.557   3.594
 6162TIP3    H218430   7.718   0.562   3.694
 6163TIP3   OH218431   8.178   1.462   4.741
 6163TIP3    H118432   8.247   1.529   4.758
 6163TIP3    H218433   8.137   1.454   4.829
 6164TIP3   OH218434   7.928   1.184   4.708
 6164TIP3    H118435   7.982   1.179   4.789
 6164TIP3    H218436   7.879   1.100   4.711
 6165TIP3   OH218437   7.728   0.844   3.421
 6165TIP3    H118438   7.774   0.929   3.440
 6165TIP3    H218439   7.652   0.853   3.483
 6166TIP3   OH218440   7.873   1.760   4.342
 6166TIP3    H118441   7.933   1.694   4.384
 6166TIP3    H218442   7.905   1.843   4.380
 6167TIP3   OH218443   7.823   1.090   3.484
 6167TIP3    H118444   7.763   1.137   3.546
 6167TIP3    H218445   7.836   1.158   3.414
 6168TIP3   OH218446   7.833   1.290   3.285
 6168TIP3    H118447   7.900   1.355   3.318
 6168TIP3    H218448   7.867   1.270   3.196
 6169TIP3   OH218449   7.789   0.579   3.409
 6169TIP3    H118450   7.777   0.677   3.414
 6169TIP3    H218451   7.698   0.548   3.400
 6170TIP3   OH218452   7.688   1.510   3.688
 6170TIP3    H118453   7.631   1.553   3.753
 6170TIP3    H218454   7.672   1.565   3.608
 6171TIP3   OH218455   7.869   2.070   4.761
 6171TIP3    H118456   7.956   2.066   4.805
 6171TIP3    H218457   7.843   1.976   4.763
 6172TIP3   OH218458   7.993   1.474   4.968
 6172TIP3    H118459   8.011   1.378   4.969
 6172TIP3    H218460   7.910   1.477   4.916
 6173TIP3   OH218461   8.105   1.214   4.943
 6173TIP3    H118462   8.179   1.157   4.919
 6173TIP3    H218463   8.133   1.243   5.033
 6174TIP3   OH218464   7.563   1.265   3.337
 6174TIP3    H118465   7.658   1.279   3.321
 6174TIP3    H218466   7.552   1.175   3.301
 6175TIP3   OH218467   7.483   1.878   3.763
 6175TIP3    H118468   7.421   1.815   3.721
 6175TIP3    H218469   7.535   1.818   3.821
 6176TIP3   OH218470   7.622   1.718   3.942
 6176TIP3    H118471   7.617   1.652   4.013
 6176TIP3    H218472   7.678   1.785   3.986
 6177TIP3   OH218473   7.817   1.136   4.307
 6177TIP3    H118474   7.814   1.090   4.220
 6177TIP3    H218475   7.911   1.159   4.312
 6178TIP3   OH218476   8.023   0.817   4.986
 6178TIP3    H118477   8.118   0.806   4.999
 6178TIP3    H218478   7.990   0.733   5.021
 6179TIP3   OH218479   7.787   0.784   4.377
 6179TIP3    H118480   7.859   0.769   4.315
 6179TIP3    H218481   7.811   0.869   4.418
 6180TIP3   OH218482   8.038   1.798   4.791
 6180TIP3    H118483   7.948   1.770   4.767
 6180TIP3    H218484   8.041   1.773   4.884
 6181TIP3   OH218485   7.878   2.075   4.362
 6181TIP3    H118486   7.792   2.116   4.338
 6181TIP3    H218487   7.908   2.137   4.430
 6182TIP3   OH218488   8.138   2.061   4.226
 6182TIP3    H118489   8.047   2.067   4.260
 6182TIP3    H218490   8.126   2.097   4.136
 6183TIP3   OH218491   7.791   1.885   4.100
 6183TIP3    H118492   7.825   1.864   4.189
 6183TIP3    H218493   7.863   1.844   4.046
 6184TIP3   OH218494   7.978   1.749   3.959
 6184TIP3    H118495   7.989   1.660   3.996
 6184TIP3    H218496   8.070   1.767   3.927
 6185TIP3   OH218497   7.596   1.656   3.474
 6185TIP3    H118498   7.506   1.630   3.447
 6185TIP3    H218499   7.590   1.752   3.463
 6186TIP3   OH218500   7.663   1.689   3.144
 6186TIP3    H118501   7.627   1.724   3.227
 6186TIP3    H218502   7.728   1.624   3.176
 6187TIP3   OH218503   1.233   2.016   5.312
 6187TIP3    H118504   1.200   2.106   5.294
 6187TIP3    H218505   1.156   1.962   5.287
 6188TIP3   OH218506   1.226   2.011   5.710
 6188TIP3    H118507   1.269   1.994   5.796
 6188TIP3    H218508   1.186   1.924   5.691
 6189TIP3   OH218509   0.526   1.908   6.070
 6189TIP3    H118510   0.560   1.847   6.139
 6189TIP3    H218511   0.608   1.951   6.041
 6190TIP3   OH218512   1.474   2.321   5.384
 6190TIP3    H118513   1.456   2.249   5.446
 6190TIP3    H218514   1.504   2.392   5.444
 6191TIP3   OH218515   0.501   2.318   5.788
 6191TIP3    H118516   0.494   2.219   5.788
 6191TIP3    H218517   0.598   2.327   5.787
 6192TIP3   OH218518   0.257   1.837   5.764
 6192TIP3    H118519   0.321   1.767   5.792
 6192TIP3    H218520   0.286   1.855   5.674
 6193TIP3   OH218521   1.126   2.777   5.403
 6193TIP3    H118522   1.169   2.703   5.355
 6193TIP3    H218523   1.113   2.738   5.491
 6194TIP3   OH218524   1.025   2.239   5.749
 6194TIP3    H118525   1.065   2.159   5.711
 6194TIP3    H218526   1.108   2.285   5.774
 6195TIP3   OH218527   2.046   1.558   5.749
 6195TIP3    H118528   2.073   1.641   5.793
 6195TIP3    H218529   2.064   1.579   5.656
 6196TIP3   OH218530   1.446   1.737   5.775
 6196TIP3    H118531   1.481   1.648   5.798
 6196TIP3    H218532   1.406   1.718   5.688
 6197TIP3   OH218533   0.725   1.395   5.765
 6197TIP3    H118534   0.731   1.457   5.692
 6197TIP3    H218535   0.813   1.402   5.805
 6198TIP3   OH218536   1.479   1.487   5.365
 6198TIP3    H118537   1.549   1.471   5.433
 6198TIP3    H218538   1.533   1.526   5.293
 6199TIP3   OH218539   0.418   1.633   5.849
 6199TIP3    H118540   0.476   1.585   5.911
 6199TIP3    H218541   0.373   1.560   5.803
 6200TIP3   OH218542   0.847   1.800   5.651
 6200TIP3    H118543   0.942   1.781   5.660
 6200TIP3    H218544   0.812   1.713   5.619
 6201TIP3   OH218545   2.116   1.768   5.916
 6201TIP3    H118546   2.030   1.812   5.897
 6201TIP3    H218547   2.126   1.793   6.010
 6202TIP3   OH218548   0.787   1.364   6.181
 6202TIP3    H118549   0.743   1.407   6.106
 6202TIP3    H218550   0.721   1.375   6.251
 6203TIP3   OH218551   1.127   2.240   5.179
 6203TIP3    H118552   1.072   2.209   5.106
 6203TIP3    H218553   1.076   2.318   5.209
 6204TIP3   OH218554   0.887   2.157   5.974
 6204TIP3    H118555   0.824   2.224   6.010
 6204TIP3    H218556   0.927   2.205   5.899
 6205TIP3   OH218557   1.680   1.490   5.550
 6205TIP3    H118558   1.643   1.459   5.634
 6205TIP3    H218559   1.727   1.572   5.579
 6206TIP3   OH218560   0.624   1.496   5.997
 6206TIP3    H118561   0.690   1.569   5.999
 6206TIP3    H218562   0.652   1.449   5.915
 6207TIP3   OH218563   0.708   2.355   6.074
 6207TIP3    H118564   0.682   2.442   6.039
 6207TIP3    H218565   0.629   2.335   6.129
 6208TIP3   OH218566   0.108   2.040   5.307
 6208TIP3    H118567   0.060   2.065   5.227
 6208TIP3    H218568   0.135   2.126   5.344
 6209TIP3   OH218569   1.540   2.561   5.547
 6209TIP3    H118570   1.451   2.550   5.589
 6209TIP3    H218571   1.530   2.649   5.505
 6210TIP3   OH218572   1.837   1.455   5.914
 6210TIP3    H118573   1.747   1.480   5.884
 6210TIP3    H218574   1.893   1.488   5.842
 6211TIP3   OH218575   1.155   1.116   5.887
 6211TIP3    H118576   1.113   1.027   5.886
 6211TIP3    H218577   1.081   1.171   5.919
 6212TIP3   OH218578   1.240   2.603   5.218
 6212TIP3    H118579   1.292   2.520   5.205
 6212TIP3    H218580   1.302   2.668   5.178
 6213TIP3   OH218581   1.388   2.388   5.131
 6213TIP3    H118582   1.327   2.314   5.115
 6213TIP3    H218583   1.430   2.358   5.215
 6214TIP3   OH218584   1.768   2.469   5.892
 6214TIP3    H118585   1.753   2.390   5.836
 6214TIP3    H218586   1.749   2.542   5.830
 6215TIP3   OH218587   1.060   1.863   5.154
 6215TIP3    H118588   0.977   1.911   5.135
 6215TIP3    H218589   1.101   1.858   5.066
 6216TIP3   OH218590   1.022   1.659   4.850
 6216TIP3    H118591   1.088   1.706   4.904
 6216TIP3    H218592   1.080   1.592   4.807
 6217TIP3   OH218593   1.963   2.110   5.740
 6217TIP3    H118594   1.877   2.159   5.745
 6217TIP3    H218595   1.991   2.134   5.649
 6218TIP3   OH218596   1.410   1.951   5.116
 6218TIP3    H118597   1.354   1.973   5.194
 6218TIP3    H218598   1.493   1.925   5.162
 6219TIP3   OH218599   1.646   1.988   6.034
 6219TIP3    H118600   1.636   2.067   6.090
 6219TIP3    H218601   1.559   1.989   5.988
 6220TIP3   OH218602   0.640   1.944   5.535
 6220TIP3    H118603   0.598   1.881   5.473
 6220TIP3    H218604   0.714   1.890   5.571
 6221TIP3   OH218605   0.773   2.360   5.684
 6221TIP3    H118606   0.750   2.317   5.600
 6221TIP3    H218607   0.861   2.321   5.704
 6222TIP3   OH218608   0.767   1.921   5.893
 6222TIP3    H118609   0.803   1.891   5.806
 6222TIP3    H218610   0.818   2.003   5.910
 6223TIP3   OH218611   1.301   2.552   5.671
 6223TIP3    H118612   1.289   2.630   5.728
 6223TIP3    H218613   1.286   2.477   5.732
 6224TIP3   OH218614   0.914   2.471   6.216
 6224TIP3    H118615   0.853   2.531   6.264
 6224TIP3    H218616   0.849   2.417   6.166
 6225TIP3   OH218617   1.248   1.805   4.949
 6225TIP3    H118618   1.306   1.866   5.000
 6225TIP3    H218619   1.274   1.827   4.856
 6226TIP3   OH218620   0.691   2.040   6.312
 6226TIP3    H118621   0.684   2.125   6.359
 6226TIP3    H218622   0.600   2.005   6.323
 6227TIP3   OH218623   0.995   2.478   5.217
 6227TIP3    H118624   1.075   2.532   5.232
 6227TIP3    H218625   0.929   2.543   5.192
 6228TIP3   OH218626   0.704   2.636   6.307
 6228TIP3    H118627   0.670   2.640   6.215
 6228TIP3    H218628   0.623   2.620   6.358
 6229TIP3   OH218629   1.788   1.053   5.018
 6229TIP3    H118630   1.705   1.062   5.069
 6229TIP3    H218631   1.782   1.131   4.959
 6230TIP3   OH218632   0.504   1.778   5.349
 6230TIP3    H118633   0.436   1.823   5.295
 6230TIP3    H218634   0.467   1.690   5.359
 6231TIP3   OH218635   1.568   2.411   4.549
 6231TIP3    H118636   1.579   2.507   4.532
 6231TIP3    H218637   1.659   2.378   4.533
 6232TIP3   OH218638   0.310   2.154   6.243
 6232TIP3    H118639   0.253   2.124   6.171
 6232TIP3    H218640   0.346   2.069   6.275
 6233TIP3   OH218641   0.148   2.390   5.866
 6233TIP3    H118642   0.222   2.329   5.853
 6233TIP3    H218643   0.184   2.446   5.938
 6234TIP3   OH218644   2.004   2.818   5.942
 6234TIP3    H118645   2.004   2.721   5.958
 6234TIP3    H218646   1.921   2.843   5.988
 6235TIP3   OH218647   1.105   2.603   6.071
 6235TIP3    H118648   1.103   2.694   6.106
 6235TIP3    H218649   1.036   2.560   6.127
 6236TIP3   OH218650   0.877   2.736   5.021
 6236TIP3    H118651   0.806   2.716   4.959
 6236TIP3    H218652   0.843   2.817   5.064
 6237TIP3   OH218653   0.310   2.575   5.414
 6237TIP3    H118654   0.357   2.568   5.500
 6237TIP3    H218655   0.266   2.488   5.410
 6238TIP3   OH218656   1.122   2.669   4.925
 6238TIP3    H118657   1.034   2.687   4.968
 6238TIP3    H218658   1.168   2.629   5.001
 6239TIP3   OH218659   1.894   1.944   6.215
 6239TIP3    H118660   1.807   1.955   6.174
 6239TIP3    H218661   1.907   1.847   6.207
 6240TIP3   OH218662   0.488   2.361   6.246
 6240TIP3    H118663   0.546   2.333   6.321
 6240TIP3    H218664   0.419   2.290   6.248
 6241TIP3   OH218665   0.889   1.137   5.998
 6241TIP3    H118666   0.793   1.122   5.986
 6241TIP3    H218667   0.895   1.234   5.999
 6242TIP3   OH218668   1.464   1.292   6.203
 6242TIP3    H118669   1.527   1.265   6.273
 6242TIP3    H218670   1.377   1.281   6.247
 6243TIP3   OH218671   1.661   1.720   6.148
 6243TIP3    H118672   1.614   1.709   6.234
 6243TIP3    H218673   1.619   1.801   6.113
 6244TIP3   OH218674   1.323   1.849   4.693
 6244TIP3    H118675   1.288   1.824   4.606
 6244TIP3    H218676   1.409   1.888   4.669
 6245TIP3   OH218677   1.039   1.219   4.992
 6245TIP3    H118678   1.010   1.212   5.086
 6245TIP3    H218679   0.993   1.142   4.954
 6246TIP3   OH218680   0.807   1.697   6.040
 6246TIP3    H118681   0.769   1.729   6.123
 6246TIP3    H218682   0.794   1.774   5.982
 6247TIP3   OH218683   0.709   1.575   5.547
 6247TIP3    H118684   0.612   1.561   5.546
 6247TIP3    H218685   0.729   1.537   5.458
 6248TIP3   OH218686   1.197   1.664   5.288
 6248TIP3    H118687   1.146   1.735   5.244
 6248TIP3    H218688   1.251   1.629   5.214
 6249TIP3   OH218689   1.367   1.964   6.404
 6249TIP3    H118690   1.346   1.879   6.447
 6249TIP3    H218691   1.465   1.963   6.410
 6250TIP3   OH218692   1.358   1.689   5.520
 6250TIP3    H118693   1.289   1.715   5.455
 6250TIP3    H218694   1.389   1.608   5.475
 6251TIP3   OH218695   0.635   1.736   6.257
 6251TIP3    H118696   0.694   1.786   6.315
 6251TIP3    H218697   0.640   1.646   6.294
 6252TIP3   OH218698   0.693   1.191   4.957
 6252TIP3    H118699   0.683   1.192   5.055
 6252TIP3    H218700   0.611   1.233   4.929
 6253TIP3   OH218701   1.380   1.948   5.930
 6253TIP3    H118702   1.404   1.869   5.876
 6253TIP3    H218703   1.364   1.904   6.016
 6254TIP3   OH218704   1.063   1.394   5.596
 6254TIP3    H118705   0.975   1.372   5.631
 6254TIP3    H218706   1.107   1.410   5.682
 6255TIP3   OH218707   0.462   1.452   5.507
 6255TIP3    H118708   0.386   1.457   5.569
 6255TIP3    H218709   0.486   1.357   5.511
 6256TIP3   OH218710   0.748   1.466   5.291
 6256TIP3    H118711   0.845   1.468   5.300
 6256TIP3    H218712   0.735   1.507   5.203
 6257TIP3   OH218713   1.523   1.473   5.817
 6257TIP3    H118714   1.491   1.488   5.909
 6257TIP3    H218715   1.451   1.414   5.785
 6258TIP3   OH218716   1.700   3.165   6.044
 6258TIP3    H118717   1.698   3.189   5.950
 6258TIP3    H218718   1.780   3.211   6.074
 6259TIP3   OH218719   0.654   2.281   6.458
 6259TIP3    H118720   0.735   2.304   6.508
 6259TIP3    H218721   0.589   2.274   6.530
 6260TIP3   OH218722   1.111   1.741   5.710
 6260TIP3    H118723   1.177   1.680   5.673
 6260TIP3    H218724   1.101   1.705   5.801
 6261TIP3   OH218725   0.733   1.176   5.566
 6261TIP3    H118726   0.700   1.230   5.646
 6261TIP3    H218727   0.706   1.088   5.583
 6262TIP3   OH218728   1.098   1.713   6.008
 6262TIP3    H118729   1.003   1.690   6.025
 6262TIP3    H218730   1.139   1.627   6.012
 6263TIP3   OH218731   0.833   2.021   5.099
 6263TIP3    H118732   0.766   1.949   5.090
 6263TIP3    H218733   0.811   2.053   5.190
 6264TIP3   OH218734   1.727   2.252   5.726
 6264TIP3    H118735   1.748   2.302   5.645
 6264TIP3    H218736   1.642   2.208   5.701
 6265TIP3   OH218737   1.286   1.327   4.962
 6265TIP3    H118738   1.191   1.304   4.974
 6265TIP3    H218739   1.291   1.420   4.992
 6266TIP3   OH218740   1.239   2.344   6.094
 6266TIP3    H118741   1.254   2.304   6.180
 6266TIP3    H218742   1.189   2.425   6.115
 6267TIP3   OH218743   1.353   1.575   5.070
 6267TIP3    H118744   1.449   1.582   5.086
 6267TIP3    H218745   1.333   1.657   5.020
 6268TIP3   OH218746   0.528   2.047   5.770
 6268TIP3    H118747   0.561   2.012   5.685
 6268TIP3    H218748   0.563   1.982   5.832
 6269TIP3   OH218749   0.971   2.165   4.917
 6269TIP3    H118750   0.923   2.250   4.925
 6269TIP3    H218751   0.920   2.108   4.979
 6270TIP3   OH218752   0.445   1.942   6.397
 6270TIP3    H118753   0.483   1.957   6.487
 6270TIP3    H218754   0.350   1.932   6.419
 6271TIP3   OH218755   1.126   2.087   6.411
 6271TIP3    H118756   1.080   2.040   6.340
 6271TIP3    H218757   1.217   2.052   6.399
 6272TIP3   OH218758   1.385   2.609   5.986
 6272TIP3    H118759   1.291   2.594   6.004
 6272TIP3    H218760   1.413   2.652   6.070
 6273TIP3   OH218761   1.792   1.670   4.903
 6273TIP3    H118762   1.731   1.626   4.839
 6273TIP3    H218763   1.790   1.759   4.862
 6274TIP3   OH218764   2.018   2.530   5.981
 6274TIP3    H118765   1.920   2.521   5.974
 6274TIP3    H218766   2.043   2.498   5.891
 6275TIP3   OH218767   1.473   2.493   4.805
 6275TIP3    H118768   1.463   2.429   4.877
 6275TIP3    H218769   1.507   2.437   4.732
 6276TIP3   OH218770   1.493   2.117   5.637
 6276TIP3    H118771   1.401   2.091   5.657
 6276TIP3    H218772   1.526   2.034   5.597
 6277TIP3   OH218773   0.623   2.344   5.399
 6277TIP3    H118774   0.614   2.426   5.346
 6277TIP3    H218775   0.531   2.323   5.419
 6278TIP3   OH218776   0.128   1.674   5.089
 6278TIP3    H118777   0.223   1.693   5.073
 6278TIP3    H218778   0.124   1.687   5.186
 6279TIP3   OH218779   0.758   2.109   5.342
 6279TIP3    H118780   0.720   2.196   5.364
 6279TIP3    H218781   0.722   2.053   5.415
 6280TIP3   OH218782   0.894   2.684   5.870
 6280TIP3    H118783   0.939   2.756   5.821
 6280TIP3    H218784   0.969   2.645   5.919
 6281TIP3   OH218785   0.538   2.582   5.252
 6281TIP3    H118786   0.453   2.591   5.300
 6281TIP3    H218787   0.572   2.675   5.258
 6282TIP3   OH218788   1.278   2.321   5.828
 6282TIP3    H118789   1.266   2.324   5.926
 6282TIP3    H218790   1.352   2.259   5.820
 6283TIP3   OH218791   1.248   2.235   4.710
 6283TIP3    H118792   1.307   2.205   4.784
 6283TIP3    H218793   1.166   2.192   4.738
 6284TIP3   OH218794   1.529   2.848   5.881
 6284TIP3    H118795   1.452   2.787   5.883
 6284TIP3    H218796   1.505   2.909   5.808
 6285TIP3   OH218797   1.596   2.694   4.531
 6285TIP3    H118798   1.652   2.723   4.458
 6285TIP3    H218799   1.542   2.774   4.538
 6286TIP3   OH218800   1.418   2.145   4.912
 6286TIP3    H118801   1.403   2.085   4.988
 6286TIP3    H218802   1.515   2.141   4.908
 6287TIP3   OH218803   0.323   2.542   6.030
 6287TIP3    H118804   0.385   2.477   6.067
 6287TIP3    H218805   0.349   2.622   6.077
 6288TIP3   OH218806   0.618   2.193   4.711
 6288TIP3    H118807   0.633   2.099   4.688
 6288TIP3    H218808   0.596   2.185   4.806
 6289TIP3   OH218809   0.560   2.202   4.980
 6289TIP3    H118810   0.628   2.163   5.037
 6289TIP3    H218811   0.569   2.298   4.999
 6290TIP3   OH218812   0.309   1.893   5.194
 6290TIP3    H118813   0.239   1.939   5.244
 6290TIP3    H218814   0.323   1.955   5.121
 6291TIP3   OH218815   1.446   1.534   6.076
 6291TIP3    H118816   1.521   1.580   6.118
 6291TIP3    H218817   1.447   1.448   6.124
 6292TIP3   OH218818   1.344   1.273   5.247
 6292TIP3    H118819   1.323   1.299   5.156
 6292TIP3    H218820   1.380   1.356   5.285
 6293TIP3   OH218821   0.832   2.397   4.932
 6293TIP3    H118822   0.744   2.411   4.973
 6293TIP3    H218823   0.841   2.481   4.885
 6294TIP3   OH218824   1.015   1.465   5.340
 6294TIP3    H118825   1.078   1.540   5.324
 6294TIP3    H218826   1.031   1.449   5.435
 6295TIP3   OH218827   1.361   1.801   6.151
 6295TIP3    H118828   1.296   1.818   6.221
 6295TIP3    H218829   1.357   1.704   6.142
 6296TIP3   OH218830   1.174   1.185   5.454
 6296TIP3    H118831   1.154   1.265   5.507
 6296TIP3    H218832   1.236   1.221   5.387
 6297TIP3   OH218833   0.581   2.473   5.005
 6297TIP3    H118834   0.546   2.540   4.943
 6297TIP3    H218835   0.561   2.514   5.092
 6298TIP3   OH218836   0.693   1.201   5.234
 6298TIP3    H118837   0.704   1.291   5.273
 6298TIP3    H218838   0.783   1.169   5.245
 6299TIP3   OH218839   1.926   1.673   6.134
 6299TIP3    H118840   1.829   1.678   6.147
 6299TIP3    H218841   1.928   1.627   6.049
 6300TIP3   OH218842   1.580   1.870   5.522
 6300TIP3    H118843   1.502   1.814   5.536
 6300TIP3    H218844   1.648   1.822   5.574
 6301TIP3   OH218845   0.301   2.096   4.986
 6301TIP3    H118846   0.376   2.157   4.995
 6301TIP3    H218847   0.343   2.031   4.924
 6302TIP3   OH218848   0.265   1.380   5.092
 6302TIP3    H118849   0.328   1.441   5.043
 6302TIP3    H218850   0.188   1.381   5.028
 6303TIP3   OH218851   1.549   2.832   5.469
 6303TIP3    H118852   1.507   2.877   5.393
 6303TIP3    H218853   1.644   2.850   5.450
 6304TIP3   OH218854   0.163   2.325   5.376
 6304TIP3    H118855   0.100   2.349   5.445
 6304TIP3    H218856   0.123   2.366   5.296
 6305TIP3   OH218857   0.349   2.877   6.427
 6305TIP3    H118858   0.423   2.892   6.489
 6305TIP3    H218859   0.338   2.781   6.437
 6306TIP3   OH218860   0.800   2.817   6.495
 6306TIP3    H118861   0.894   2.795   6.505
 6306TIP3    H218862   0.774   2.755   6.424
 6307TIP3   OH218863   0.785   2.392   4.622
 6307TIP3    H118864   0.724   2.326   4.664
 6307TIP3    H218865   0.857   2.333   4.597
 6308TIP3   OH218866   1.442   2.726   6.227
 6308TIP3    H118867   1.433   2.657   6.297
 6308TIP3    H218868   1.517   2.778   6.260
 6309TIP3   OH218869   1.245   2.493   4.550
 6309TIP3    H118870   1.263   2.410   4.599
 6309TIP3    H218871   1.276   2.470   4.459
 6310TIP3   OH218872   0.447   2.257   6.642
 6310TIP3    H118873   0.484   2.168   6.657
 6310TIP3    H218874   0.352   2.239   6.649
 6311TIP3   OH218875   0.418   1.907   4.836
 6311TIP3    H118876   0.426   1.815   4.873
 6311TIP3    H218877   0.504   1.913   4.789
 6312TIP3   OH218878   1.057   2.357   6.427
 6312TIP3    H118879   1.015   2.372   6.340
 6312TIP3    H218880   1.086   2.263   6.420
 6313TIP3   OH218881   0.942   2.112   4.651
 6313TIP3    H118882   0.942   2.123   4.749
 6313TIP3    H218883   0.945   2.014   4.645
 6314TIP3   OH218884   1.552   2.361   6.034
 6314TIP3    H118885   1.623   2.410   5.990
 6314TIP3    H218886   1.476   2.420   6.020
 6315TIP3   OH218887   0.558   2.000   6.645
 6315TIP3    H118888   0.622   1.927   6.646
 6315TIP3    H218889   0.571   2.029   6.738
 6316TIP3   OH218890   0.655   1.822   5.085
 6316TIP3    H118891   0.595   1.785   5.151
 6316TIP3    H218892   0.679   1.742   5.033
 6317TIP3   OH218893   0.896   1.867   6.284
 6317TIP3    H118894   0.831   1.940   6.294
 6317TIP3    H218895   0.960   1.909   6.222
 6318TIP3   OH218896   0.753   1.608   4.943
 6318TIP3    H118897   0.689   1.601   4.871
 6318TIP3    H218898   0.839   1.617   4.898
 6319TIP3   OH218899   1.425   2.287   6.428
 6319TIP3    H118900   1.499   2.245   6.380
 6319TIP3    H218901   1.408   2.221   6.497
 6320TIP3   OH218902   1.554   1.944   4.574
 6320TIP3    H118903   1.536   1.899   4.489
 6320TIP3    H218904   1.518   2.033   4.553
 6321TIP3   OH218905   1.031   1.661   6.400
 6321TIP3    H118906   1.036   1.590   6.332
 6321TIP3    H218907   0.985   1.732   6.351
 6322TIP3   OH218908   1.039   1.458   6.204
 6322TIP3    H118909   1.039   1.457   6.106
 6322TIP3    H218910   0.951   1.415   6.216
 6323TIP3   OH218911   1.064   2.007   6.130
 6323TIP3    H118912   1.115   1.956   6.065
 6323TIP3    H218913   1.011   2.065   6.072
 6324TIP3   OH218914   1.636   1.956   6.484
 6324TIP3    H118915   1.680   1.872   6.505
 6324TIP3    H218916   1.709   2.009   6.450
 6325TIP3   OH218917   1.682   2.213   6.219
 6325TIP3    H118918   1.623   2.267   6.161
 6325TIP3    H218919   1.768   2.234   6.178
 6326TIP3   OH218920   0.938   1.774   6.646
 6326TIP3    H118921   0.844   1.764   6.670
 6326TIP3    H218922   0.946   1.730   6.558
 6327TIP3   OH218923   1.203   1.250   6.271
 6327TIP3    H118924   1.157   1.332   6.244
 6327TIP3    H218925   1.125   1.192   6.282
 6328TIP3   OH218926   1.289   1.721   6.505
 6328TIP3    H118927   1.275   1.700   6.600
 6328TIP3    H218928   1.200   1.697   6.472
 6329TIP3   OH218929   1.543   1.659   6.383
 6329TIP3    H118930   1.459   1.667   6.432
 6329TIP3    H218931   1.606   1.639   6.454
 6330TIP3   OH218932   1.768   1.628   6.568
 6330TIP3    H118933   1.776   1.531   6.558
 6330TIP3    H218934   1.750   1.631   6.666
 6331TIP3   OH218935   1.222   1.184   6.538
 6331TIP3    H118936   1.309   1.139   6.544
 6331TIP3    H218937   1.223   1.213   6.445
 6332TIP3   OH218938   1.308   1.419   6.689
 6332TIP3    H118939   1.255   1.357   6.636
 6332TIP3    H218940   1.248   1.496   6.701
 6333TIP3   OH218941   0.532   2.667   4.815
 6333TIP3    H118942   0.624   2.672   4.783
 6333TIP3    H218943   0.487   2.731   4.759
 6334TIP3   OH218944   0.037   2.048   5.026
 6334TIP3    H118945   0.132   2.071   5.016
 6334TIP3    H218946   0.032   1.960   4.985
 6335TIP3   OH218947  -0.077   2.666   5.457
 6335TIP3    H118948  -0.113   2.600   5.396
 6335TIP3    H218949  -0.029   2.611   5.522
 6336TIP3   OH218950   0.067   2.520   5.638
 6336TIP3    H118951   0.075   2.454   5.710
 6336TIP3    H218952   0.124   2.589   5.678
 6337TIP3   OH218953   1.805   2.919   5.433
 6337TIP3    H118954   1.829   2.945   5.524
 6337TIP3    H218955   1.875   2.961   5.381
 6338TIP3   OH218956   1.833   2.935   5.713
 6338TIP3    H118957   1.785   2.850   5.711
 6338TIP3    H218958   1.905   2.912   5.774
 6339TIP3   OH218959   1.879   2.615   6.287
 6339TIP3    H118960   1.807   2.624   6.353
 6339TIP3    H218961   1.921   2.703   6.293
 6340TIP3   OH218962   1.697   2.129   4.905
 6340TIP3    H118963   1.767   2.191   4.876
 6340TIP3    H218964   1.739   2.090   4.985
 6341TIP3   OH218965   1.823   1.995   5.110
 6341TIP3    H118966   1.756   1.953   5.168
 6341TIP3    H218967   1.888   2.030   5.174
 6342TIP3   OH218968   1.882   2.391   5.541
 6342TIP3    H118969   1.934   2.321   5.497
 6342TIP3    H218970   1.873   2.458   5.470
 6343TIP3   OH218971   1.705   2.689   5.733
 6343TIP3    H118972   1.634   2.728   5.787
 6343TIP3    H218973   1.654   2.642   5.663
 6344TIP3   OH218974   1.758   1.904   4.755
 6344TIP3    H118975   1.686   1.906   4.688
 6344TIP3    H218976   1.731   1.979   4.811
 6345TIP3   OH218977   1.629   1.574   4.707
 6345TIP3    H118978   1.586   1.607   4.628
 6345TIP3    H218979   1.608   1.478   4.701
 6346TIP3   OH218980   1.634   1.855   5.253
 6346TIP3    H118981   1.640   1.758   5.246
 6346TIP3    H218982   1.619   1.866   5.350
 6347TIP3   OH218983   0.258   1.931   6.026
 6347TIP3    H118984   0.249   1.909   5.930
 6347TIP3    H218985   0.356   1.930   6.035
 6348TIP3   OH218986   1.928   2.279   6.113
 6348TIP3    H118987   1.997   2.210   6.100
 6348TIP3    H218988   1.952   2.346   6.047
 6349TIP3   OH218989   2.109   2.076   6.114
 6349TIP3    H118990   2.033   2.030   6.156
 6349TIP3    H218991   2.181   2.013   6.135
 6350TIP3   OH218992   1.574   1.308   4.690
 6350TIP3    H118993   1.643   1.274   4.751
 6350TIP3    H218994   1.497   1.253   4.711
 6351TIP3   OH218995   1.634   1.571   5.145
 6351TIP3    H118996   1.675   1.482   5.158
 6351TIP3    H218997   1.691   1.605   5.073
 6352TIP3   OH218998   1.791   1.733   5.645
 6352TIP3    H118999   1.876   1.759   5.604
 6352TIP3    H219000   1.803   1.773   5.733
 6353TIP3   OH219001   1.864   1.885   5.872
 6353TIP3    H119002   1.788   1.916   5.926
 6353TIP3    H219003   1.894   1.968   5.831
 6354TIP3   OH219004   2.324   1.487   6.431
 6354TIP3    H119005   2.379   1.419   6.385
 6354TIP3    H219006   2.286   1.535   6.354
 6355TIP3   OH219007   1.742   1.320   5.187
 6355TIP3    H119008   1.785   1.301   5.272
 6355TIP3    H219009   1.678   1.246   5.182
 6356TIP3   OH219010   2.182   1.615   6.239
 6356TIP3    H119011   2.099   1.659   6.267
 6356TIP3    H219012   2.144   1.547   6.179
 6357TIP3   OH219013   1.818   1.246   4.823
 6357TIP3    H119014   1.857   1.180   4.763
 6357TIP3    H219015   1.883   1.319   4.820
 6358TIP3   OH219016   1.382   2.789   5.082
 6358TIP3    H119017   1.453   2.779   5.016
 6358TIP3    H219018   1.423   2.851   5.146
 6359TIP3   OH219019   0.478   2.593   6.476
 6359TIP3    H119020   0.437   2.507   6.454
 6359TIP3    H219021   0.498   2.582   6.570
 6360TIP3   OH219022   0.666   2.626   6.019
 6360TIP3    H119023   0.620   2.703   5.981
 6360TIP3    H219024   0.753   2.637   5.974
 6361TIP3   OH219025   1.105   2.867   6.157
 6361TIP3    H119026   1.148   2.863   6.245
 6361TIP3    H219027   1.172   2.919   6.107
 6362TIP3   OH219028   1.286   3.021   6.018
 6362TIP3    H119029   1.356   2.966   5.980
 6362TIP3    H219030   1.339   3.078   6.079
 6363TIP3   OH219031   2.084   1.379   6.114
 6363TIP3    H119032   1.993   1.373   6.079
 6363TIP3    H219033   2.114   1.286   6.104
 6364TIP3   OH219034   0.339   2.877   6.046
 6364TIP3    H119035   0.247   2.905   6.026
 6364TIP3    H219036   0.354   2.923   6.129
 6365TIP3   OH219037   0.577   2.860   5.904
 6365TIP3    H119038   0.489   2.870   5.948
 6365TIP3    H219039   0.557   2.890   5.814
 6366TIP3   OH219040   1.003   2.884   5.699
 6366TIP3    H119041   0.930   2.903   5.638
 6366TIP3    H219042   1.014   2.971   5.743
 6367TIP3   OH219043   1.272   2.824   5.750
 6367TIP3    H119044   1.178   2.841   5.732
 6367TIP3    H219045   1.315   2.901   5.710
 6368TIP3   OH219046   1.478   3.015   5.665
 6368TIP3    H119047   1.465   3.098   5.616
 6368TIP3    H219048   1.504   2.953   5.593
 6369TIP3   OH219049   0.255   2.673   5.779
 6369TIP3    H119050   0.267   2.646   5.872
 6369TIP3    H219051   0.328   2.623   5.736
 6370TIP3   OH219052   0.452   2.542   5.645
 6370TIP3    H119053   0.465   2.459   5.696
 6370TIP3    H219054   0.543   2.577   5.644
 6371TIP3   OH219055   0.720   2.635   5.653
 6371TIP3    H119056   0.746   2.541   5.646
 6371TIP3    H219057   0.768   2.658   5.735
 6372TIP3   OH219058   1.316   1.307   5.746
 6372TIP3    H119059   1.250   1.255   5.797
 6372TIP3    H219060   1.365   1.237   5.700
 6373TIP3   OH219061   1.812   1.160   5.632
 6373TIP3    H119062   1.844   1.221   5.562
 6373TIP3    H219063   1.716   1.182   5.634
 6374TIP3   OH219064   1.911   1.270   5.401
 6374TIP3    H119065   1.997   1.236   5.375
 6374TIP3    H219066   1.930   1.367   5.392
 6375TIP3   OH219067   0.967   1.045   5.615
 6375TIP3    H119068   1.037   1.106   5.582
 6375TIP3    H219069   0.989   1.041   5.710
 6376TIP3   OH219070   1.537   1.170   5.611
 6376TIP3    H119071   1.518   1.134   5.524
 6376TIP3    H219072   1.516   1.093   5.669
 6377TIP3   OH219073   1.564   1.104   5.178
 6377TIP3    H119074   1.480   1.150   5.195
 6377TIP3    H219075   1.548   1.020   5.226
 6378TIP3   OH219076   0.027   2.449   5.180
 6378TIP3    H119077  -0.040   2.399   5.133
 6378TIP3    H219078   0.020   2.537   5.136
 6379TIP3   OH219079   0.974   1.206   5.258
 6379TIP3    H119080   1.019   1.165   5.334
 6379TIP3    H219081   0.988   1.301   5.280
 6380TIP3   OH219082   0.803   2.629   4.757
 6380TIP3    H119083   0.896   2.648   4.741
 6380TIP3    H219084   0.788   2.549   4.701
 6381TIP3   OH219085   1.543   2.750   4.861
 6381TIP3    H119086   1.533   2.652   4.851
 6381TIP3    H219087   1.490   2.782   4.788
 6382TIP3   OH219088   0.115   2.467   4.815
 6382TIP3    H119089   0.118   2.501   4.906
 6382TIP3    H219090   0.203   2.425   4.806
 6383TIP3   OH219091   1.823   1.351   6.546
 6383TIP3    H119092   1.839   1.328   6.641
 6383TIP3    H219093   1.914   1.344   6.510
 6384TIP3   OH219094   1.757   2.894   6.039
 6384TIP3    H119095   1.677   2.863   5.991
 6384TIP3    H219096   1.735   2.989   6.050
 6385TIP3   OH219097   3.032   2.264   4.809
 6385TIP3    H119098   2.999   2.355   4.795
 6385TIP3    H219099   2.957   2.213   4.774
 6386TIP3   OH219100   3.023   2.271   5.195
 6386TIP3    H119101   3.060   2.244   5.281
 6386TIP3    H219102   2.984   2.188   5.163
 6387TIP3   OH219103   2.319   2.159   5.554
 6387TIP3    H119104   2.348   2.089   5.616
 6387TIP3    H219105   2.400   2.212   5.547
 6388TIP3   OH219106   3.270   2.574   4.873
 6388TIP3    H119107   3.254   2.505   4.939
 6388TIP3    H219108   3.302   2.648   4.928
 6389TIP3   OH219109   2.296   2.573   5.271
 6389TIP3    H119110   2.287   2.475   5.273
 6389TIP3    H219111   2.392   2.582   5.274
 6390TIP3   OH219112   1.999   1.768   5.059
 6390TIP3    H119113   1.955   1.853   5.078
 6390TIP3    H219114   1.928   1.722   5.011
 6391TIP3   OH219115   2.059   2.060   5.239
 6391TIP3    H119116   2.109   1.982   5.273
 6391TIP3    H219117   2.119   2.093   5.170
 6392TIP3   OH219118   2.909   3.023   4.883
 6392TIP3    H119119   2.958   2.952   4.836
 6392TIP3    H219120   2.914   2.992   4.975
 6393TIP3   OH219121   2.821   2.495   5.236
 6393TIP3    H119122   2.863   2.417   5.197
 6393TIP3    H219123   2.904   2.543   5.261
 6394TIP3   OH219124   3.841   1.811   5.235
 6394TIP3    H119125   3.870   1.898   5.270
 6394TIP3    H219126   3.862   1.822   5.140
 6395TIP3   OH219127   3.236   1.991   5.265
 6395TIP3    H119128   3.278   1.905   5.285
 6395TIP3    H219129   3.202   1.975   5.175
 6396TIP3   OH219130   2.578   1.650   5.229
 6396TIP3    H119131   2.557   1.726   5.171
 6396TIP3    H219132   2.532   1.579   5.178
 6397TIP3   OH219133   3.271   1.751   4.852
 6397TIP3    H119134   3.343   1.735   4.918
 6397TIP3    H219135   3.324   1.782   4.776
 6398TIP3   OH219136   2.207   1.855   5.341
 6398TIP3    H119137   2.291   1.837   5.388
 6398TIP3    H219138   2.222   1.799   5.261
 6399TIP3   OH219139   2.648   2.058   5.141
 6399TIP3    H119140   2.742   2.032   5.150
 6399TIP3    H219141   2.607   1.974   5.111
 6400TIP3   OH219142   3.915   2.026   5.402
 6400TIP3    H119143   3.830   2.069   5.379
 6400TIP3    H219144   3.918   2.045   5.497
 6401TIP3   OH219145   2.570   1.639   5.669
 6401TIP3    H119146   2.511   1.675   5.600
 6401TIP3    H219147   2.515   1.657   5.749
 6402TIP3   OH219148   2.911   2.483   4.698
 6402TIP3    H119149   2.881   2.448   4.614
 6402TIP3    H219150   2.870   2.572   4.701
 6403TIP3   OH219151   2.677   2.414   5.457
 6403TIP3    H119152   2.617   2.484   5.494
 6403TIP3    H219153   2.721   2.462   5.384
 6404TIP3   OH219154   3.473   1.754   5.032
 6404TIP3    H119155   3.461   1.703   5.113
 6404TIP3    H219156   3.526   1.830   5.063
 6405TIP3   OH219157   2.444   1.752   5.449
 6405TIP3    H119158   2.507   1.824   5.472
 6405TIP3    H219159   2.493   1.711   5.373
 6406TIP3   OH219160   2.507   2.612   5.558
 6406TIP3    H119161   2.482   2.701   5.526
 6406TIP3    H219162   2.428   2.592   5.613
 6407TIP3   OH219163   1.896   2.301   4.795
 6407TIP3    H119164   1.858   2.329   4.710
 6407TIP3    H219165   1.931   2.385   4.831
 6408TIP3   OH219166   3.336   2.816   5.035
 6408TIP3    H119167   3.245   2.808   5.074
 6408TIP3    H219168   3.328   2.903   4.990
 6409TIP3   OH219169   3.632   1.715   5.403
 6409TIP3    H119170   3.544   1.735   5.367
 6409TIP3    H219171   3.691   1.744   5.330
 6410TIP3   OH219172   2.922   1.355   5.386
 6410TIP3    H119173   2.905   1.260   5.399
 6410TIP3    H219174   2.845   1.394   5.433
 6411TIP3   OH219175   3.033   2.853   4.704
 6411TIP3    H119176   3.085   2.771   4.685
 6411TIP3    H219177   3.095   2.920   4.668
 6412TIP3   OH219178   3.178   2.639   4.621
 6412TIP3    H119179   3.173   2.557   4.570
 6412TIP3    H219180   3.216   2.608   4.706
 6413TIP3   OH219181   3.564   2.722   5.381
 6413TIP3    H119182   3.550   2.646   5.321
 6413TIP3    H219183   3.544   2.798   5.322
 6414TIP3   OH219184   2.860   2.125   4.641
 6414TIP3    H119185   2.775   2.165   4.615
 6414TIP3    H219186   2.904   2.110   4.555
 6415TIP3   OH219187   2.815   1.909   4.346
 6415TIP3    H119188   2.884   1.959   4.394
 6415TIP3    H219189   2.870   1.843   4.300
 6416TIP3   OH219190   3.759   2.370   5.231
 6416TIP3    H119191   3.673   2.418   5.233
 6416TIP3    H219192   3.788   2.390   5.139
 6417TIP3   OH219193   3.204   2.204   4.606
 6417TIP3    H119194   3.152   2.224   4.687
 6417TIP3    H219195   3.289   2.177   4.647
 6418TIP3   OH219196   3.436   2.239   5.526
 6418TIP3    H119197   3.432   2.323   5.575
 6418TIP3    H219198   3.350   2.240   5.480
 6419TIP3   OH219199   2.438   2.203   5.026
 6419TIP3    H119200   2.391   2.142   4.965
 6419TIP3    H219201   2.512   2.146   5.057
 6420TIP3   OH219202   2.570   2.616   5.171
 6420TIP3    H119203   2.549   2.570   5.088
 6420TIP3    H219204   2.658   2.578   5.192
 6421TIP3   OH219205   2.568   2.171   5.382
 6421TIP3    H119206   2.602   2.144   5.294
 6421TIP3    H219207   2.614   2.256   5.397
 6422TIP3   OH219208   3.094   2.810   5.156
 6422TIP3    H119209   3.083   2.890   5.210
 6422TIP3    H219210   3.080   2.737   5.220
 6423TIP3   OH219211   2.710   2.726   5.706
 6423TIP3    H119212   2.648   2.787   5.752
 6423TIP3    H219213   2.647   2.673   5.655
 6424TIP3   OH219214   3.036   2.066   4.435
 6424TIP3    H119215   3.100   2.121   4.485
 6424TIP3    H219216   3.065   2.085   4.342
 6425TIP3   OH219217   2.465   2.279   5.812
 6425TIP3    H119218   2.470   2.369   5.852
 6425TIP3    H219219   2.370   2.259   5.825
 6426TIP3   OH219220   2.789   2.734   4.673
 6426TIP3    H119221   2.874   2.779   4.694
 6426TIP3    H219222   2.725   2.802   4.697
 6427TIP3   OH219223   2.503   2.891   5.793
 6427TIP3    H119224   2.467   2.895   5.703
 6427TIP3    H219225   2.422   2.870   5.846
 6428TIP3   OH219226   3.566   1.302   4.484
 6428TIP3    H119227   3.483   1.329   4.526
 6428TIP3    H219228   3.580   1.374   4.418
 6429TIP3   OH219229   2.295   2.046   4.845
 6429TIP3    H119230   2.226   2.079   4.783
 6429TIP3    H219231   2.291   1.950   4.829
 6430TIP3   OH219232   3.361   2.667   4.038
 6430TIP3    H119233   3.371   2.763   4.019
 6430TIP3    H219234   3.453   2.636   4.023
 6431TIP3   OH219235   2.082   2.427   5.739
 6431TIP3    H119236   2.013   2.406   5.673
 6431TIP3    H219237   2.119   2.339   5.760
 6432TIP3   OH219238   1.937   2.624   5.360
 6432TIP3    H119239   2.033   2.613   5.361
 6432TIP3    H219240   1.926   2.696   5.425
 6433TIP3   OH219241   3.802   3.076   5.433
 6433TIP3    H119242   3.799   2.979   5.446
 6433TIP3    H219243   3.718   3.101   5.476
 6434TIP3   OH219244   2.905   2.855   5.562
 6434TIP3    H119245   2.902   2.948   5.594
 6434TIP3    H219246   2.834   2.814   5.617
 6435TIP3   OH219247   2.649   2.991   4.497
 6435TIP3    H119248   2.564   3.002   4.451
 6435TIP3    H219249   2.652   3.077   4.545
 6436TIP3   OH219250   2.109   2.830   4.899
 6436TIP3    H119251   2.155   2.824   4.986
 6436TIP3    H219252   2.061   2.746   4.899
 6437TIP3   OH219253   2.817   2.817   4.189
 6437TIP3    H119254   2.890   2.778   4.135
 6437TIP3    H219255   2.870   2.868   4.255
 6438TIP3   OH219256   2.915   2.938   4.421
 6438TIP3    H119257   2.830   2.946   4.470
 6438TIP3    H219258   2.977   2.912   4.492
 6439TIP3   OH219259   3.690   2.201   5.702
 6439TIP3    H119260   3.606   2.212   5.655
 6439TIP3    H219261   3.706   2.105   5.691
 6440TIP3   OH219262   2.286   2.610   5.721
 6440TIP3    H119263   2.335   2.594   5.804
 6440TIP3    H219264   2.212   2.546   5.729
 6441TIP3   OH219265   2.687   1.432   5.518
 6441TIP3    H119266   2.599   1.404   5.488
 6441TIP3    H219267   2.662   1.515   5.564
 6442TIP3   OH219268   3.222   1.547   5.708
 6442TIP3    H119269   3.291   1.518   5.771
 6442TIP3    H219270   3.138   1.527   5.755
 6443TIP3   OH219271   3.459   1.978   5.629
 6443TIP3    H119272   3.405   1.975   5.711
 6443TIP3    H219273   3.433   2.063   5.589
 6444TIP3   OH219274   3.117   2.112   4.182
 6444TIP3    H119275   3.082   2.084   4.096
 6444TIP3    H219276   3.206   2.143   4.156
 6445TIP3   OH219277   2.821   1.490   4.458
 6445TIP3    H119278   2.820   1.478   4.556
 6445TIP3    H219279   2.779   1.405   4.432
 6446TIP3   OH219280   2.619   1.949   5.532
 6446TIP3    H119281   2.566   1.968   5.612
 6446TIP3    H219282   2.602   2.031   5.479
 6447TIP3   OH219283   2.499   1.845   5.058
 6447TIP3    H119284   2.408   1.811   5.069
 6447TIP3    H219285   2.514   1.823   4.962
 6448TIP3   OH219286   2.993   1.921   4.778
 6448TIP3    H119287   2.945   1.992   4.732
 6448TIP3    H219288   3.049   1.885   4.707
 6449TIP3   OH219289   3.167   2.193   5.857
 6449TIP3    H119290   3.144   2.121   5.919
 6449TIP3    H219291   3.260   2.207   5.879
 6450TIP3   OH219292   3.147   1.946   5.010
 6450TIP3    H119293   3.084   1.970   4.939
 6450TIP3    H219294   3.187   1.867   4.966
 6451TIP3   OH219295   2.437   1.976   5.738
 6451TIP3    H119296   2.461   2.040   5.806
 6451TIP3    H219297   2.424   1.894   5.790
 6452TIP3   OH219298   2.036   1.495   5.325
 6452TIP3    H119299   2.103   1.532   5.386
 6452TIP3    H219300   2.079   1.505   5.239
 6453TIP3   OH219301   1.994   1.473   4.852
 6453TIP3    H119302   2.044   1.506   4.773
 6453TIP3    H219303   1.934   1.549   4.864
 6454TIP3   OH219304   3.162   2.190   5.430
 6454TIP3    H119305   3.194   2.118   5.370
 6454TIP3    H219306   3.129   2.136   5.505
 6455TIP3   OH219307   2.839   1.654   5.108
 6455TIP3    H119308   2.755   1.650   5.157
 6455TIP3    H219309   2.905   1.650   5.179
 6456TIP3   OH219310   2.262   1.711   5.114
 6456TIP3    H119311   2.170   1.718   5.079
 6456TIP3    H219312   2.294   1.626   5.077
 6457TIP3   OH219313   2.535   1.771   4.803
 6457TIP3    H119314   2.626   1.737   4.791
 6457TIP3    H219315   2.484   1.718   4.738
 6458TIP3   OH219316   3.322   1.730   5.313
 6458TIP3    H119317   3.286   1.746   5.404
 6458TIP3    H219318   3.255   1.668   5.279
 6459TIP3   OH219319   2.347   1.768   4.574
 6459TIP3    H119320   2.295   1.701   4.527
 6459TIP3    H219321   2.414   1.791   4.507
 6460TIP3   OH219322   3.497   3.419   5.528
 6460TIP3    H119323   3.493   3.446   5.434
 6460TIP3    H219324   3.571   3.474   5.561
 6461TIP3   OH219325   2.449   2.532   5.945
 6461TIP3    H119326   2.528   2.561   5.994
 6461TIP3    H219327   2.383   2.528   6.017
 6462TIP3   OH219328   2.912   1.988   5.203
 6462TIP3    H119329   2.983   1.947   5.151
 6462TIP3    H219330   2.918   1.939   5.287
 6463TIP3   OH219331   2.433   1.485   5.060
 6463TIP3    H119332   2.435   1.394   5.092
 6463TIP3    H219333   2.447   1.469   4.963
 6464TIP3   OH219334   2.887   1.884   5.493
 6464TIP3    H119335   2.796   1.920   5.506
 6464TIP3    H219336   2.943   1.948   5.542
 6465TIP3   OH219337   2.622   2.271   4.583
 6465TIP3    H119338   2.554   2.201   4.573
 6465TIP3    H219339   2.603   2.302   4.675
 6466TIP3   OH219340   3.522   2.508   5.212
 6466TIP3    H119341   3.546   2.559   5.132
 6466TIP3    H219342   3.438   2.465   5.185
 6467TIP3   OH219343   3.079   1.578   4.464
 6467TIP3    H119344   2.982   1.564   4.458
 6467TIP3    H219345   3.086   1.674   4.484
 6468TIP3   OH219346   3.021   2.590   5.585
 6468TIP3    H119347   3.054   2.575   5.674
 6468TIP3    H219348   2.985   2.680   5.590
 6469TIP3   OH219349   3.148   1.835   4.560
 6469TIP3    H119350   3.245   1.834   4.570
 6469TIP3    H219351   3.134   1.912   4.501
 6470TIP3   OH219352   2.321   2.299   5.260
 6470TIP3    H119353   2.359   2.268   5.175
 6470TIP3    H219354   2.362   2.239   5.323
 6471TIP3   OH219355   2.731   2.447   4.407
 6471TIP3    H119356   2.746   2.509   4.479
 6471TIP3    H219357   2.693   2.370   4.456
 6472TIP3   OH219358   2.201   2.211   5.875
 6472TIP3    H119359   2.212   2.196   5.971
 6472TIP3    H219360   2.129   2.149   5.855
 6473TIP3   OH219361   2.926   2.332   5.896
 6473TIP3    H119362   2.863   2.272   5.853
 6473TIP3    H219363   3.012   2.294   5.865
 6474TIP3   OH219364   3.182   2.849   5.484
 6474TIP3    H119365   3.085   2.849   5.496
 6474TIP3    H219366   3.210   2.903   5.560
 6475TIP3   OH219367   3.589   1.930   4.391
 6475TIP3    H119368   3.527   1.885   4.327
 6475TIP3    H219369   3.588   2.018   4.349
 6476TIP3   OH219370   3.814   2.784   5.469
 6476TIP3    H119371   3.716   2.777   5.460
 6476TIP3    H219372   3.840   2.753   5.379
 6477TIP3   OH219373   3.288   2.742   4.297
 6477TIP3    H119374   3.272   2.667   4.356
 6477TIP3    H219375   3.308   2.700   4.212
 6478TIP3   OH219376   3.289   2.371   5.128
 6478TIP3    H119377   3.196   2.347   5.142
 6478TIP3    H219378   3.322   2.290   5.085
 6479TIP3   OH219379   2.417   2.600   4.883
 6479TIP3    H119380   2.407   2.682   4.831
 6479TIP3    H219381   2.326   2.581   4.908
 6480TIP3   OH219382   1.981   1.901   4.590
 6480TIP3    H119383   2.030   1.982   4.617
 6480TIP3    H219384   1.907   1.903   4.655
 6481TIP3   OH219385   2.550   2.364   4.826
 6481TIP3    H119386   2.513   2.451   4.849
 6481TIP3    H219387   2.520   2.309   4.901
 6482TIP3   OH219388   2.691   2.942   5.354
 6482TIP3    H119389   2.733   3.015   5.305
 6482TIP3    H219390   2.767   2.904   5.402
 6483TIP3   OH219391   2.336   2.840   4.732
 6483TIP3    H119392   2.252   2.846   4.782
 6483TIP3    H219393   2.369   2.932   4.741
 6484TIP3   OH219394   3.072   2.578   5.317
 6484TIP3    H119395   3.061   2.576   5.415
 6484TIP3    H219396   3.150   2.523   5.305
 6485TIP3   OH219397   3.055   2.478   4.201
 6485TIP3    H119398   3.107   2.453   4.281
 6485TIP3    H219399   2.976   2.424   4.213
 6486TIP3   OH219400   3.324   3.106   5.364
 6486TIP3    H119401   3.243   3.052   5.359
 6486TIP3    H219402   3.308   3.171   5.293
 6487TIP3   OH219403   3.389   2.942   4.018
 6487TIP3    H119404   3.428   3.014   3.965
 6487TIP3    H219405   3.309   2.988   4.051
 6488TIP3   OH219406   2.404   1.721   5.881
 6488TIP3    H119407   2.307   1.726   5.893
 6488TIP3    H219408   2.431   1.665   5.956
 6489TIP3   OH219409   3.213   2.411   4.423
 6489TIP3    H119410   3.204   2.338   4.487
 6489TIP3    H219411   3.309   2.404   4.403
 6490TIP3   OH219412   2.126   2.801   5.513
 6490TIP3    H119413   2.181   2.732   5.554
 6490TIP3    H219414   2.147   2.877   5.570
 6491TIP3   OH219415   2.414   2.479   4.207
 6491TIP3    H119416   2.437   2.395   4.165
 6491TIP3    H219417   2.394   2.449   4.298
 6492TIP3   OH219418   2.357   2.455   4.477
 6492TIP3    H119419   2.423   2.415   4.536
 6492TIP3    H219420   2.375   2.551   4.488
 6493TIP3   OH219421   2.091   2.144   4.675
 6493TIP3    H119422   2.026   2.188   4.733
 6493TIP3    H219423   2.106   2.213   4.608
 6494TIP3   OH219424   3.247   1.788   5.574
 6494TIP3    H119425   3.332   1.821   5.608
 6494TIP3    H219426   3.235   1.704   5.624
 6495TIP3   OH219427   3.140   1.524   4.739
 6495TIP3    H119428   3.115   1.543   4.646
 6495TIP3    H219429   3.172   1.611   4.771
 6496TIP3   OH219430   2.811   1.713   4.838
 6496TIP3    H119431   2.872   1.787   4.821
 6496TIP3    H219432   2.817   1.705   4.935
 6497TIP3   OH219433   3.085   2.030   5.637
 6497TIP3    H119434   3.112   2.080   5.717
 6497TIP3    H219435   3.137   1.948   5.644
 6498TIP3   OH219436   2.981   1.436   4.966
 6498TIP3    H119437   2.944   1.520   4.997
 6498TIP3    H219438   3.017   1.463   4.879
 6499TIP3   OH219439   2.405   2.726   4.486
 6499TIP3    H119440   2.376   2.800   4.430
 6499TIP3    H219441   2.381   2.760   4.575
 6500TIP3   OH219442   3.724   1.933   5.619
 6500TIP3    H119443   3.627   1.935   5.631
 6500TIP3    H219444   3.729   1.881   5.537
 6501TIP3   OH219445   3.375   2.126   5.011
 6501TIP3    H119446   3.298   2.067   5.020
 6501TIP3    H219447   3.445   2.077   5.059
 6502TIP3   OH219448   2.092   2.352   4.476
 6502TIP3    H119449   2.168   2.413   4.486
 6502TIP3    H219450   2.132   2.289   4.412
 6503TIP3   OH219451   2.022   1.626   4.624
 6503TIP3    H119452   2.040   1.722   4.616
 6503TIP3    H219453   1.949   1.615   4.561
 6504TIP3   OH219454   3.345   3.086   4.955
 6504TIP3    H119455   3.303   3.132   4.879
 6504TIP3    H219456   3.439   3.105   4.936
 6505TIP3   OH219457   2.422   1.356   5.491
 6505TIP3    H119458   2.392   1.321   5.404
 6505TIP3    H219459   2.413   1.276   5.548
 6506TIP3   OH219460   1.957   2.571   4.864
 6506TIP3    H119461   1.899   2.601   4.936
 6506TIP3    H219462   1.919   2.617   4.785
 6507TIP3   OH219463   2.120   3.121   5.937
 6507TIP3    H119464   2.206   3.122   5.985
 6507TIP3    H219465   2.100   3.026   5.937
 6508TIP3   OH219466   2.594   3.071   5.984
 6508TIP3    H119467   2.689   3.056   5.989
 6508TIP3    H219468   2.568   3.009   5.913
 6509TIP3   OH219469   3.234   2.985   5.718
 6509TIP3    H119470   3.230   2.915   5.787
 6509TIP3    H219471   3.311   3.038   5.746
 6510TIP3   OH219472   3.005   2.697   4.025
 6510TIP3    H119473   3.053   2.636   4.085
 6510TIP3    H219474   3.062   2.696   3.945
 6511TIP3   OH219475   2.248   2.522   6.137
 6511TIP3    H119476   2.262   2.426   6.146
 6511TIP3    H219477   2.160   2.525   6.093
 6512TIP3   OH219478   2.225   2.165   4.335
 6512TIP3    H119479   2.279   2.126   4.407
 6512TIP3    H219480   2.293   2.171   4.264
 6513TIP3   OH219481   2.854   2.608   5.913
 6513TIP3    H119482   2.812   2.629   5.826
 6513TIP3    H219483   2.884   2.516   5.900
 6514TIP3   OH219484   2.741   2.369   4.137
 6514TIP3    H119485   2.731   2.382   4.234
 6514TIP3    H219486   2.747   2.271   4.132
 6515TIP3   OH219487   3.347   2.620   5.523
 6515TIP3    H119488   3.423   2.661   5.477
 6515TIP3    H219489   3.277   2.687   5.505
 6516TIP3   OH219490   2.368   2.262   6.124
 6516TIP3    H119491   2.441   2.206   6.097
 6516TIP3    H219492   2.398   2.292   6.213
 6517TIP3   OH219493   2.436   2.071   4.554
 6517TIP3    H119494   2.411   2.021   4.633
 6517TIP3    H219495   2.473   1.999   4.499
 6518TIP3   OH219496   2.704   2.140   5.786
 6518TIP3    H119497   2.624   2.197   5.786
 6518TIP3    H219498   2.753   2.174   5.707
 6519TIP3   OH219499   2.535   1.872   4.392
 6519TIP3    H119500   2.512   1.877   4.297
 6519TIP3    H219501   2.633   1.870   4.387
 6520TIP3   OH219502   3.220   2.541   5.915
 6520TIP3    H119503   3.294   2.506   5.865
 6520TIP3    H219504   3.212   2.476   5.988
 6521TIP3   OH219505   3.350   2.197   4.064
 6521TIP3    H119506   3.336   2.151   3.978
 6521TIP3    H219507   3.317   2.286   4.039
 6522TIP3   OH219508   2.828   1.929   5.905
 6522TIP3    H119509   2.827   1.851   5.846
 6522TIP3    H219510   2.783   1.997   5.850
 6523TIP3   OH219511   2.829   1.714   5.717
 6523TIP3    H119512   2.857   1.756   5.633
 6523TIP3    H219513   2.735   1.693   5.698
 6524TIP3   OH219514   2.850   2.249   5.590
 6524TIP3    H119515   2.936   2.262   5.548
 6524TIP3    H219516   2.794   2.314   5.543
 6525TIP3   OH219517   3.433   2.214   5.967
 6525TIP3    H119518   3.481   2.130   5.976
 6525TIP3    H219519   3.501   2.272   5.929
 6526TIP3   OH219520   3.475   2.470   5.707
 6526TIP3    H119521   3.417   2.526   5.648
 6526TIP3    H219522   3.563   2.491   5.668
 6527TIP3   OH219523   2.708   2.031   6.143
 6527TIP3    H119524   2.638   1.964   6.158
 6527TIP3    H219525   2.737   2.008   6.052
 6528TIP3   OH219526   2.959   1.477   5.790
 6528TIP3    H119527   2.911   1.558   5.764
 6528TIP3    H219528   2.892   1.408   5.776
 6529TIP3   OH219529   3.085   1.976   6.001
 6529TIP3    H119530   3.066   1.962   6.095
 6529TIP3    H219531   2.997   1.955   5.963
 6530TIP3   OH219532   3.325   1.932   5.858
 6530TIP3    H119533   3.249   1.931   5.919
 6530TIP3    H219534   3.398   1.901   5.914
 6531TIP3   OH219535   3.558   1.874   6.005
 6531TIP3    H119536   3.569   1.778   6.020
 6531TIP3    H219537   3.552   1.909   6.097
 6532TIP3   OH219538   2.543   1.813   6.196
 6532TIP3    H119539   2.545   1.721   6.163
 6532TIP3    H219540   2.579   1.801   6.286
 6533TIP3   OH219541   3.049   1.482   6.049
 6533TIP3    H119542   3.117   1.413   6.038
 6533TIP3    H219543   3.010   1.483   5.959
 6534TIP3   OH219544   3.119   1.699   6.204
 6534TIP3    H119545   3.097   1.629   6.140
 6534TIP3    H219546   3.042   1.759   6.197
 6535TIP3   OH219547   2.417   2.917   4.276
 6535TIP3    H119548   2.419   3.008   4.237
 6535TIP3    H219549   2.333   2.889   4.235
 6536TIP3   OH219550   1.822   2.314   4.510
 6536TIP3    H119551   1.918   2.333   4.498
 6536TIP3    H219552   1.816   2.223   4.473
 6537TIP3   OH219553   1.744   2.924   4.938
 6537TIP3    H119554   1.680   2.860   4.899
 6537TIP3    H219555   1.788   2.865   5.003
 6538TIP3   OH219556   1.873   2.766   5.121
 6538TIP3    H119557   1.864   2.698   5.191
 6538TIP3    H219558   1.926   2.832   5.171
 6539TIP3   OH219559   3.601   3.170   4.920
 6539TIP3    H119560   3.626   3.206   5.007
 6539TIP3    H219561   3.665   3.213   4.861
 6540TIP3   OH219562   3.625   3.192   5.202
 6540TIP3    H119563   3.582   3.104   5.198
 6540TIP3    H219564   3.703   3.171   5.255
 6541TIP3   OH219565   3.677   2.870   5.776
 6541TIP3    H119566   3.604   2.881   5.841
 6541TIP3    H219567   3.718   2.959   5.779
 6542TIP3   OH219568   3.489   2.387   4.393
 6542TIP3    H119569   3.556   2.450   4.360
 6542TIP3    H219570   3.535   2.348   4.470
 6543TIP3   OH219571   3.618   2.253   4.597
 6543TIP3    H119572   3.552   2.209   4.654
 6543TIP3    H219573   3.683   2.287   4.662
 6544TIP3   OH219574   3.679   2.647   5.030
 6544TIP3    H119575   3.728   2.578   4.981
 6544TIP3    H219576   3.676   2.720   4.964
 6545TIP3   OH219577   3.502   2.942   5.223
 6545TIP3    H119578   3.430   2.986   5.273
 6545TIP3    H219579   3.452   2.898   5.151
 6546TIP3   OH219580   3.556   2.163   4.242
 6546TIP3    H119581   3.485   2.160   4.175
 6546TIP3    H219582   3.525   2.239   4.295
 6547TIP3   OH219583   3.419   1.841   4.199
 6547TIP3    H119584   3.387   1.857   4.109
 6547TIP3    H219585   3.398   1.744   4.207
 6548TIP3   OH219586   3.430   2.110   4.739
 6548TIP3    H119587   3.437   2.014   4.728
 6548TIP3    H219588   3.415   2.119   4.836
 6549TIP3   OH219589   2.055   2.183   5.488
 6549TIP3    H119590   2.053   2.147   5.397
 6549TIP3    H219591   2.152   2.183   5.505
 6550TIP3   OH219592   3.722   2.534   5.602
 6550TIP3    H119593   3.793   2.467   5.587
 6550TIP3    H219594   3.742   2.601   5.534
 6551TIP3   OH219595   3.906   2.333   5.603
 6551TIP3    H119596   3.830   2.286   5.644
 6551TIP3    H219597   3.978   2.270   5.626
 6552TIP3   OH219598   3.365   1.577   4.212
 6552TIP3    H119599   3.448   1.529   4.233
 6552TIP3    H219600   3.303   1.505   4.191
 6553TIP3   OH219601   3.430   1.828   4.631
 6553TIP3    H119602   3.470   1.739   4.647
 6553TIP3    H219603   3.486   1.859   4.558
 6554TIP3   OH219604   3.589   1.994   5.133
 6554TIP3    H119605   3.674   2.018   5.090
 6554TIP3    H219606   3.604   2.033   5.221
 6555TIP3   OH219607   3.663   2.144   5.361
 6555TIP3    H119608   3.585   2.176   5.409
 6555TIP3    H219609   3.694   2.226   5.317
 6556TIP3   OH219610   2.277   1.866   6.165
 6556TIP3    H119611   2.374   1.860   6.170
 6556TIP3    H219612   2.251   1.780   6.203
 6557TIP3   OH219613   4.112   1.739   5.916
 6557TIP3    H119614   4.172   1.674   5.874
 6557TIP3    H219615   4.080   1.790   5.838
 6558TIP3   OH219616   3.535   1.579   4.676
 6558TIP3    H119617   3.582   1.558   4.759
 6558TIP3    H219618   3.476   1.501   4.669
 6559TIP3   OH219619   2.238   1.565   5.496
 6559TIP3    H119620   2.300   1.490   5.505
 6559TIP3    H219621   2.300   1.638   5.484
 6560TIP3   OH219622   2.036   1.830   5.565
 6560TIP3    H119623   2.088   1.832   5.482
 6560TIP3    H219624   2.062   1.914   5.607
 6561TIP3   OH219625   3.979   1.872   5.718
 6561TIP3    H119626   3.893   1.915   5.737
 6561TIP3    H219627   3.947   1.797   5.663
 6562TIP3   OH219628   3.627   1.493   4.290
 6562TIP3    H119629   3.655   1.439   4.211
 6562TIP3    H219630   3.692   1.565   4.284
 6563TIP3   OH219631   2.020   1.317   5.071
 6563TIP3    H119632   1.929   1.325   5.106
 6563TIP3    H219633   2.018   1.384   4.999
 6564TIP3   OH219634   3.173   3.042   4.571
 6564TIP3    H119635   3.231   3.034   4.492
 6564TIP3    H219636   3.222   3.107   4.625
 6565TIP3   OH219637   2.243   1.411   5.878
 6565TIP3    H119638   2.193   1.412   5.962
 6565TIP3    H219639   2.179   1.455   5.819
 6566TIP3   OH219640   2.282   2.848   5.956
 6566TIP3    H119641   2.188   2.824   5.942
 6566TIP3    H219642   2.293   2.827   6.050
 6567TIP3   OH219643   2.465   2.882   5.506
 6567TIP3    H119644   2.417   2.958   5.468
 6567TIP3    H219645   2.551   2.896   5.460
 6568TIP3   OH219646   2.902   3.122   5.642
 6568TIP3    H119647   2.944   3.122   5.731
 6568TIP3    H219648   2.967   3.175   5.591
 6569TIP3   OH219649   3.081   3.278   5.506
 6569TIP3    H119650   3.153   3.229   5.462
 6569TIP3    H219651   3.134   3.336   5.566
 6570TIP3   OH219652   3.879   1.633   5.604
 6570TIP3    H119653   3.790   1.623   5.566
 6570TIP3    H219654   3.914   1.542   5.594
 6571TIP3   OH219655   2.136   3.136   5.531
 6571TIP3    H119656   2.045   3.168   5.511
 6571TIP3    H219657   2.153   3.183   5.614
 6572TIP3   OH219658   2.373   3.114   5.390
 6572TIP3    H119659   2.285   3.126   5.434
 6572TIP3    H219660   2.354   3.146   5.300
 6573TIP3   OH219661   2.800   3.140   5.187
 6573TIP3    H119662   2.729   3.158   5.123
 6573TIP3    H219663   2.811   3.229   5.228
 6574TIP3   OH219664   3.069   3.078   5.240
 6574TIP3    H119665   2.976   3.099   5.220
 6574TIP3    H219666   3.116   3.152   5.196
 6575TIP3   OH219667   3.268   3.267   5.151
 6575TIP3    H119668   3.259   3.354   5.106
 6575TIP3    H219669   3.299   3.210   5.076
 6576TIP3   OH219670   2.050   2.928   5.273
 6576TIP3    H119671   2.075   2.898   5.363
 6576TIP3    H219672   2.123   2.885   5.222
 6577TIP3   OH219673   2.246   2.802   5.133
 6577TIP3    H119674   2.259   2.717   5.183
 6577TIP3    H219675   2.338   2.836   5.133
 6578TIP3   OH219676   2.513   2.889   5.142
 6578TIP3    H119677   2.541   2.795   5.136
 6578TIP3    H219678   2.563   2.915   5.222
 6579TIP3   OH219679   3.093   1.557   5.242
 6579TIP3    H119680   3.044   1.483   5.282
 6579TIP3    H219681   3.145   1.511   5.174
 6580TIP3   OH219682   3.605   1.438   5.133
 6580TIP3    H119683   3.641   1.485   5.054
 6580TIP3    H219684   3.509   1.448   5.120
 6581TIP3   OH219685   3.699   1.528   4.893
 6581TIP3    H119686   3.773   1.476   4.853
 6581TIP3    H219687   3.733   1.619   4.878
 6582TIP3   OH219688   2.337   1.254   5.250
 6582TIP3    H119689   2.261   1.254   5.189
 6582TIP3    H219690   2.378   1.167   5.233
 6583TIP3   OH219691   2.110   1.115   4.910
 6583TIP3    H119692   2.147   1.154   4.828
 6583TIP3    H219693   2.092   1.197   4.961
 6584TIP3   OH219694   2.789   1.282   5.127
 6584TIP3    H119695   2.842   1.327   5.058
 6584TIP3    H219696   2.816   1.333   5.205
 6585TIP3   OH219697   3.328   1.440   5.099
 6585TIP3    H119698   3.311   1.404   5.011
 6585TIP3    H219699   3.311   1.362   5.157
 6586TIP3   OH219700   3.356   1.365   4.666
 6586TIP3    H119701   3.273   1.413   4.686
 6586TIP3    H219702   3.338   1.278   4.707
 6587TIP3   OH219703   1.839   2.709   4.663
 6587TIP3    H119704   1.752   2.676   4.634
 6587TIP3    H219705   1.831   2.802   4.636
 6588TIP3   OH219706   2.211   1.260   4.651
 6588TIP3    H119707   2.269   1.209   4.592
 6588TIP3    H219708   2.279   1.315   4.696
 6589TIP3   OH219709   2.808   1.450   4.727
 6589TIP3    H119710   2.732   1.405   4.768
 6589TIP3    H219711   2.801   1.541   4.763
 6590TIP3   OH219712   3.327   3.009   4.343
 6590TIP3    H119713   3.318   2.911   4.331
 6590TIP3    H219714   3.284   3.041   4.261
 6591TIP3   OH219715   2.539   1.538   6.127
 6591TIP3    H119716   2.502   1.469   6.185
 6591TIP3    H219717   2.633   1.538   6.157
 6592TIP3   OH219718   2.790   1.539   6.246
 6592TIP3    H119719   2.874   1.514   6.206
 6592TIP3    H219720   2.776   1.468   6.312
 6593TIP3   OH219721   1.919   2.720   4.302
 6593TIP3    H119722   1.923   2.741   4.397
 6593TIP3    H219723   2.004   2.674   4.288
 6594TIP3   OH219724   3.618   1.602   6.035
 6594TIP3    H119725   3.636   1.571   6.126
 6594TIP3    H219726   3.707   1.596   5.994
 6595TIP3   OH219727   3.551   3.149   5.529
 6595TIP3    H119728   3.474   3.121   5.476
 6595TIP3    H219729   3.534   3.246   5.533
 6596TIP3   OH219730   4.820   2.527   4.291
 6596TIP3    H119731   4.788   2.616   4.267
 6596TIP3    H219732   4.748   2.473   4.254
 6597TIP3   OH219733   4.823   2.527   4.679
 6597TIP3    H119734   4.857   2.496   4.765
 6597TIP3    H219735   4.781   2.447   4.643
 6598TIP3   OH219736   4.118   2.417   5.041
 6598TIP3    H119737   4.152   2.349   5.103
 6598TIP3    H219738   4.199   2.467   5.021
 6599TIP3   OH219739   5.070   2.828   4.359
 6599TIP3    H119740   5.047   2.762   4.427
 6599TIP3    H219741   5.098   2.904   4.413
 6600TIP3   OH219742   4.095   2.831   4.764
 6600TIP3    H119743   4.087   2.734   4.764
 6600TIP3    H219744   4.191   2.840   4.750
 6601TIP3   OH219745   3.797   2.031   4.546
 6601TIP3    H119746   3.745   2.112   4.561
 6601TIP3    H219747   3.730   1.977   4.500
 6602TIP3   OH219748   3.855   2.319   4.729
 6602TIP3    H119749   3.904   2.239   4.759
 6602TIP3    H219750   3.908   2.349   4.654
 6603TIP3   OH219751   4.720   3.295   4.374
 6603TIP3    H119752   4.757   3.221   4.323
 6603TIP3    H219753   4.699   3.252   4.458
 6604TIP3   OH219754   4.616   2.748   4.727
 6604TIP3    H119755   4.657   2.675   4.677
 6604TIP3    H219756   4.698   2.797   4.750
 6605TIP3   OH219757   5.636   2.069   4.722
 6605TIP3    H119758   5.665   2.153   4.763
 6605TIP3    H219759   5.657   2.084   4.629
 6606TIP3   OH219760   5.031   2.249   4.754
 6606TIP3    H119761   5.074   2.164   4.771
 6606TIP3    H219762   4.997   2.234   4.663
 6607TIP3   OH219763   4.375   1.910   4.717
 6607TIP3    H119764   4.353   1.981   4.654
 6607TIP3    H219765   4.328   1.835   4.675
 6608TIP3   OH219766   5.066   2.006   4.340
 6608TIP3    H119767   5.139   1.991   4.405
 6608TIP3    H219768   5.118   2.038   4.264
 6609TIP3   OH219769   4.003   2.110   4.828
 6609TIP3    H119770   4.087   2.089   4.874
 6609TIP3    H219771   4.014   2.056   4.748
 6610TIP3   OH219772   4.439   2.308   4.631
 6610TIP3    H119773   4.535   2.285   4.637
 6610TIP3    H219774   4.401   2.226   4.593
 6611TIP3   OH219775   5.710   2.279   4.892
 6611TIP3    H119776   5.624   2.324   4.873
 6611TIP3    H219777   5.729   2.314   4.980
 6612TIP3   OH219778   4.367   1.896   5.156
 6612TIP3    H119779   4.307   1.929   5.086
 6612TIP3    H219780   4.311   1.912   5.235
 6613TIP3   OH219781   4.706   2.743   4.162
 6613TIP3    H119782   4.669   2.731   4.072
 6613TIP3    H219783   4.661   2.826   4.189
 6614TIP3   OH219784   4.478   2.668   4.951
 6614TIP3    H119785   4.417   2.738   4.983
 6614TIP3    H219786   4.519   2.711   4.873
 6615TIP3   OH219787   5.270   2.010   4.519
 6615TIP3    H119788   5.258   1.962   4.602
 6615TIP3    H219789   5.322   2.088   4.548
 6616TIP3   OH219790   4.243   2.009   4.936
 6616TIP3    H119791   4.307   2.080   4.958
 6616TIP3    H219792   4.288   1.967   4.860
 6617TIP3   OH219793   4.309   2.868   5.050
 6617TIP3    H119794   4.286   2.954   5.011
 6617TIP3    H219795   4.227   2.851   5.101
 6618TIP3   OH219796   3.689   2.556   4.282
 6618TIP3    H119797   3.652   2.581   4.195
 6618TIP3    H219798   3.722   2.642   4.315
 6619TIP3   OH219799   5.135   3.074   4.522
 6619TIP3    H119800   5.045   3.064   4.561
 6619TIP3    H219801   5.125   3.159   4.475
 6620TIP3   OH219802   5.427   1.969   4.887
 6620TIP3    H119803   5.340   1.994   4.852
 6620TIP3    H219804   5.488   2.001   4.817
 6621TIP3   OH219805   4.719   1.609   4.873
 6621TIP3    H119806   4.702   1.514   4.888
 6621TIP3    H219807   4.641   1.648   4.918
 6622TIP3   OH219808   4.830   3.116   4.193
 6622TIP3    H119809   4.880   3.033   4.174
 6622TIP3    H219810   4.894   3.181   4.155
 6623TIP3   OH219811   4.975   2.900   4.110
 6623TIP3    H119812   4.943   2.820   4.067
 6623TIP3    H219813   5.015   2.865   4.192
 6624TIP3   OH219814   5.357   2.980   4.867
 6624TIP3    H119815   5.346   2.904   4.806
 6624TIP3    H219816   5.340   3.056   4.808
 6625TIP3   OH219817   4.653   2.378   4.128
 6625TIP3    H119818   4.572   2.430   4.108
 6625TIP3    H219819   4.695   2.372   4.041
 6626TIP3   OH219820   4.610   2.163   3.838
 6626TIP3    H119821   4.678   2.216   3.883
 6626TIP3    H219822   4.667   2.099   3.790
 6627TIP3   OH219823   5.553   2.622   4.716
 6627TIP3    H119824   5.469   2.673   4.717
 6627TIP3    H219825   5.585   2.645   4.626
 6628TIP3   OH219826   5.000   2.461   4.094
 6628TIP3    H119827   4.945   2.485   4.173
 6628TIP3    H219828   5.084   2.436   4.138
 6629TIP3   OH219829   5.233   2.494   5.015
 6629TIP3    H119830   5.233   2.579   5.062
 6629TIP3    H219831   5.149   2.500   4.966
 6630TIP3   OH219832   4.229   2.454   4.516
 6630TIP3    H119833   4.186   2.397   4.448
 6630TIP3    H219834   4.305   2.399   4.543
 6631TIP3   OH219835   4.358   2.864   4.660
 6631TIP3    H119836   4.339   2.837   4.569
 6631TIP3    H219837   4.447   2.826   4.675
 6632TIP3   OH219838   4.366   2.426   4.873
 6632TIP3    H119839   4.394   2.399   4.782
 6632TIP3    H219840   4.407   2.515   4.881
 6633TIP3   OH219841   4.895   3.066   4.645
 6633TIP3    H119842   4.878   3.147   4.694
 6633TIP3    H219843   4.875   2.995   4.708
 6634TIP3   OH219844   4.509   2.991   5.203
 6634TIP3    H119845   4.443   3.052   5.243
 6634TIP3    H219846   4.449   2.933   5.152
 6635TIP3   OH219847   4.837   2.316   3.923
 6635TIP3    H119848   4.895   2.378   3.972
 6635TIP3    H219849   4.863   2.337   3.830
 6636TIP3   OH219850   4.264   2.532   5.306
 6636TIP3    H119851   4.264   2.623   5.341
 6636TIP3    H219852   4.167   2.513   5.310
 6637TIP3   OH219853   4.585   2.993   4.200
 6637TIP3    H119854   4.668   3.045   4.204
 6637TIP3    H219855   4.526   3.052   4.153
 6638TIP3   OH219856   4.297   3.151   5.281
 6638TIP3    H119857   4.264   3.155   5.189
 6638TIP3    H219858   4.215   3.126   5.331
 6639TIP3   OH219859   5.355   1.553   3.974
 6639TIP3    H119860   5.273   1.576   4.022
 6639TIP3    H219861   5.370   1.635   3.923
 6640TIP3   OH219862   4.094   2.299   4.324
 6640TIP3    H119863   4.027   2.344   4.267
 6640TIP3    H219864   4.062   2.208   4.323
 6641TIP3   OH219865   5.153   2.926   3.523
 6641TIP3    H119866   5.161   3.022   3.505
 6641TIP3    H219867   5.247   2.898   3.516
 6642TIP3   OH219868   3.878   2.682   5.227
 6642TIP3    H119869   3.809   2.667   5.159
 6642TIP3    H219870   3.915   2.593   5.240
 6643TIP3   OH219871   3.733   2.875   4.859
 6643TIP3    H119872   3.829   2.872   4.848
 6643TIP3    H219873   3.722   2.955   4.912
 6644TIP3   OH219874   5.597   3.331   4.919
 6644TIP3    H119875   5.595   3.234   4.933
 6644TIP3    H219876   5.513   3.357   4.963
 6645TIP3   OH219877   4.705   3.108   5.053
 6645TIP3    H119878   4.700   3.202   5.081
 6645TIP3    H219879   4.633   3.069   5.108
 6646TIP3   OH219880   4.469   3.238   4.002
 6646TIP3    H119881   4.421   3.222   3.919
 6646TIP3    H219882   4.434   3.326   4.029
 6647TIP3   OH219883   3.902   3.088   4.387
 6647TIP3    H119884   3.949   3.080   4.473
 6647TIP3    H219885   3.853   3.004   4.385
 6648TIP3   OH219886   4.665   3.144   3.638
 6648TIP3    H119887   4.723   3.073   3.602
 6648TIP3    H219888   4.701   3.154   3.728
 6649TIP3   OH219889   4.719   3.194   3.907
 6649TIP3    H119890   4.630   3.204   3.947
 6649TIP3    H219891   4.768   3.153   3.981
 6650TIP3   OH219892   5.483   2.455   5.192
 6650TIP3    H119893   5.402   2.465   5.140
 6650TIP3    H219894   5.502   2.360   5.182
 6651TIP3   OH219895   4.083   2.864   5.206
 6651TIP3    H119896   4.129   2.850   5.291
 6651TIP3    H219897   4.007   2.803   5.214
 6652TIP3   OH219898   4.482   1.688   5.002
 6652TIP3    H119899   4.395   1.656   4.970
 6652TIP3    H219900   4.452   1.768   5.050
 6653TIP3   OH219901   5.018   1.806   5.194
 6653TIP3    H119902   5.088   1.775   5.256
 6653TIP3    H219903   4.936   1.783   5.242
 6654TIP3   OH219904   5.250   2.230   5.110
 6654TIP3    H119905   5.201   2.232   5.196
 6654TIP3    H219906   5.233   2.319   5.074
 6655TIP3   OH219907   4.920   2.361   3.671
 6655TIP3    H119908   4.881   2.338   3.584
 6655TIP3    H219909   5.003   2.402   3.642
 6656TIP3   OH219910   4.630   1.732   3.971
 6656TIP3    H119911   4.590   1.730   4.061
 6656TIP3    H219912   4.586   1.653   3.933
 6657TIP3   OH219913   4.422   2.209   5.025
 6657TIP3    H119914   4.361   2.222   5.100
 6657TIP3    H219915   4.400   2.286   4.968
 6658TIP3   OH219916   4.297   2.092   4.532
 6658TIP3    H119917   4.205   2.065   4.549
 6658TIP3    H219918   4.310   2.052   4.443
 6659TIP3   OH219919   4.789   2.178   4.264
 6659TIP3    H119920   4.738   2.248   4.218
 6659TIP3    H219921   4.843   2.142   4.191
 6660TIP3   OH219922   4.946   2.455   5.353
 6660TIP3    H119923   4.942   2.380   5.416
 6660TIP3    H219924   5.037   2.486   5.370
 6661TIP3   OH219925   4.943   2.203   4.497
 6661TIP3    H119926   4.880   2.229   4.425
 6661TIP3    H219927   4.980   2.124   4.452
 6662TIP3   OH219928   4.243   2.234   5.229
 6662TIP3    H119929   4.232   2.300   5.299
 6662TIP3    H219930   4.225   2.150   5.277
 6663TIP3   OH219931   4.290   1.716   3.937
 6663TIP3    H119932   4.272   1.708   4.033
 6663TIP3    H219933   4.209   1.762   3.907
 6664TIP3   OH219934   3.823   1.754   4.815
 6664TIP3    H119935   3.905   1.784   4.859
 6664TIP3    H219936   3.852   1.722   4.728
 6665TIP3   OH219937   3.789   1.733   4.330
 6665TIP3    H119938   3.835   1.765   4.249
 6665TIP3    H219939   3.726   1.807   4.343
 6666TIP3   OH219940   4.951   2.443   4.921
 6666TIP3    H119941   4.987   2.377   4.859
 6666TIP3    H219942   4.924   2.385   4.995
 6667TIP3   OH219943   4.634   1.912   4.593
 6667TIP3    H119944   4.551   1.909   4.643
 6667TIP3    H219945   4.702   1.903   4.662
 6668TIP3   OH219946   4.058   1.969   4.599
 6668TIP3    H119947   3.965   1.978   4.570
 6668TIP3    H219948   4.080   1.877   4.575
 6669TIP3   OH219949   4.324   1.968   4.291
 6669TIP3    H119950   4.417   1.978   4.263
 6669TIP3    H219951   4.274   1.987   4.208
 6670TIP3   OH219952   5.116   1.989   4.801
 6670TIP3    H119953   5.079   2.002   4.891
 6670TIP3    H219954   5.051   1.927   4.763
 6671TIP3   OH219955   4.175   2.004   4.067
 6671TIP3    H119956   4.108   1.952   4.019
 6671TIP3    H219957   4.227   2.038   3.991
 6672TIP3   OH219958   5.293   3.676   5.017
 6672TIP3    H119959   5.292   3.700   4.922
 6672TIP3    H219960   5.373   3.724   5.047
 6673TIP3   OH219961   4.244   2.782   5.433
 6673TIP3    H119962   4.322   2.813   5.482
 6673TIP3    H219963   4.176   2.785   5.504
 6674TIP3   OH219964   4.709   2.244   4.691
 6674TIP3    H119965   4.778   2.204   4.636
 6674TIP3    H219966   4.714   2.191   4.773
 6675TIP3   OH219967   4.230   1.726   4.574
 6675TIP3    H119968   4.191   1.650   4.621
 6675TIP3    H219969   4.258   1.684   4.490
 6676TIP3   OH219970   4.685   2.138   4.976
 6676TIP3    H119971   4.593   2.170   4.990
 6676TIP3    H219972   4.739   2.200   5.028
 6677TIP3   OH219973   4.420   2.527   4.075
 6677TIP3    H119974   4.348   2.462   4.062
 6677TIP3    H219975   4.399   2.561   4.166
 6678TIP3   OH219976   5.318   2.764   4.699
 6678TIP3    H119977   5.343   2.816   4.619
 6678TIP3    H219978   5.234   2.722   4.671
 6679TIP3   OH219979   4.880   1.834   3.949
 6679TIP3    H119980   4.783   1.812   3.953
 6679TIP3    H219981   4.881   1.930   3.967
 6680TIP3   OH219982   4.812   2.844   5.075
 6680TIP3    H119983   4.859   2.853   5.158
 6680TIP3    H219984   4.775   2.934   5.063
 6681TIP3   OH219985   4.944   2.091   4.048
 6681TIP3    H119986   5.041   2.098   4.057
 6681TIP3    H219987   4.922   2.169   3.993
 6682TIP3   OH219988   4.118   2.556   4.748
 6682TIP3    H119989   4.151   2.527   4.660
 6682TIP3    H219990   4.155   2.488   4.805
 6683TIP3   OH219991   4.569   2.679   3.903
 6683TIP3    H119992   4.518   2.764   3.904
 6683TIP3    H219993   4.513   2.623   3.962
 6684TIP3   OH219994   4.000   2.459   5.359
 6684TIP3    H119995   4.003   2.447   5.456
 6684TIP3    H219996   3.922   2.405   5.335
 6685TIP3   OH219997   4.979   3.101   4.977
 6685TIP3    H119998   4.882   3.107   4.985
 6685TIP3    H219999   5.006   3.159   5.051
 6686TIP3   OH220000   5.386   2.182   3.870
 6686TIP3    H120001   5.324   2.139   3.806
 6686TIP3    H220002   5.383   2.273   3.833
 6687TIP3   OH220003   5.608   3.038   4.956
 6687TIP3    H120004   5.510   3.033   4.947
 6687TIP3    H220005   5.635   3.009   4.867
 6688TIP3   OH220006   5.094   2.997   3.787
 6688TIP3    H120007   5.061   2.925   3.843
 6688TIP3    H220008   5.105   2.954   3.701
 6689TIP3   OH220009   5.085   2.627   4.619
 6689TIP3    H120010   4.991   2.604   4.629
 6689TIP3    H220011   5.118   2.547   4.573
 6690TIP3   OH220012   4.219   2.859   4.381
 6690TIP3    H120013   4.217   2.939   4.324
 6690TIP3    H220014   4.125   2.838   4.386
 6691TIP3   OH220015   3.783   2.158   4.084
 6691TIP3    H120016   3.826   2.244   4.105
 6691TIP3    H220017   3.704   2.162   4.143
 6692TIP3   OH220018   4.345   2.619   4.319
 6692TIP3    H120019   4.314   2.709   4.338
 6692TIP3    H220020   4.308   2.569   4.393
 6693TIP3   OH220021   4.485   3.197   4.842
 6693TIP3    H120022   4.523   3.270   4.788
 6693TIP3    H220023   4.564   3.164   4.887
 6694TIP3   OH220024   4.135   3.094   4.229
 6694TIP3    H120025   4.049   3.105   4.273
 6694TIP3    H220026   4.168   3.186   4.231
 6695TIP3   OH220027   4.868   2.833   4.803
 6695TIP3    H120028   4.860   2.829   4.901
 6695TIP3    H220029   4.948   2.781   4.787
 6696TIP3   OH220030   4.850   2.730   3.686
 6696TIP3    H120031   4.902   2.703   3.766
 6696TIP3    H220032   4.762   2.698   3.710
 6697TIP3   OH220033   5.117   3.363   4.852
 6697TIP3    H120034   5.035   3.311   4.841
 6697TIP3    H220035   5.107   3.429   4.780
 6698TIP3   OH220036   5.185   3.200   3.505
 6698TIP3    H120037   5.222   3.272   3.451
 6698TIP3    H220038   5.105   3.244   3.539
 6699TIP3   OH220039   4.199   1.979   5.367
 6699TIP3    H120040   4.102   1.982   5.376
 6699TIP3    H220041   4.223   1.918   5.439
 6700TIP3   OH220042   5.011   2.663   3.903
 6700TIP3    H120043   5.000   2.594   3.972
 6700TIP3    H220044   5.108   2.656   3.887
 6701TIP3   OH220045   3.921   3.061   5.000
 6701TIP3    H120046   3.979   2.993   5.039
 6701TIP3    H220047   3.949   3.140   5.049
 6702TIP3   OH220048   4.212   2.705   3.687
 6702TIP3    H120049   4.223   2.612   3.660
 6702TIP3    H220050   4.188   2.695   3.781
 6703TIP3   OH220051   4.153   2.712   3.960
 6703TIP3    H120052   4.231   2.686   4.010
 6703TIP3    H220053   4.157   2.810   3.967
 6704TIP3   OH220054   3.890   2.404   4.165
 6704TIP3    H120055   3.822   2.449   4.219
 6704TIP3    H220056   3.903   2.471   4.095
 6705TIP3   OH220057   5.036   2.050   5.064
 6705TIP3    H120058   5.126   2.081   5.088
 6705TIP3    H220059   5.030   1.965   5.113
 6706TIP3   OH220060   4.927   1.786   4.225
 6706TIP3    H120061   4.909   1.805   4.131
 6706TIP3    H220062   4.964   1.871   4.257
 6707TIP3   OH220063   4.424   2.907   3.908
 6707TIP3    H120064   4.336   2.932   3.943
 6707TIP3    H220065   4.439   2.981   3.846
 6708TIP3   OH220066   4.612   1.973   4.323
 6708TIP3    H120067   4.674   2.047   4.305
 6708TIP3    H220068   4.617   1.966   4.421
 6709TIP3   OH220069   4.880   2.283   5.133
 6709TIP3    H120070   4.926   2.319   5.212
 6709TIP3    H220071   4.929   2.199   5.120
 6710TIP3   OH220072   4.752   1.692   4.423
 6710TIP3    H120073   4.737   1.775   4.473
 6710TIP3    H220074   4.816   1.724   4.355
 6711TIP3   OH220075   4.170   2.984   3.977
 6711TIP3    H120076   4.141   3.054   3.914
 6711TIP3    H220077   4.154   3.027   4.064
 6712TIP3   OH220078   4.268   1.699   4.215
 6712TIP3    H120079   4.265   1.790   4.250
 6712TIP3    H220080   4.365   1.682   4.220
 6713TIP3   OH220081   5.518   2.190   5.111
 6713TIP3    H120082   5.420   2.187   5.116
 6713TIP3    H220083   5.532   2.145   5.027
 6714TIP3   OH220084   5.171   2.383   4.498
 6714TIP3    H120085   5.094   2.323   4.507
 6714TIP3    H220086   5.241   2.334   4.546
 6715TIP3   OH220087   3.887   2.606   3.966
 6715TIP3    H120088   3.960   2.671   3.974
 6715TIP3    H220089   3.927   2.547   3.899
 6716TIP3   OH220090   3.826   1.887   4.107
 6716TIP3    H120091   3.824   1.984   4.100
 6716TIP3    H220092   3.759   1.861   4.041
 6717TIP3   OH220093   5.142   3.346   4.444
 6717TIP3    H120094   5.100   3.395   4.370
 6717TIP3    H220095   5.237   3.364   4.424
 6718TIP3   OH220096   4.218   1.608   4.970
 6718TIP3    H120097   4.187   1.575   4.883
 6718TIP3    H220098   4.205   1.530   5.027
 6719TIP3   OH220099   3.751   2.825   4.349
 6719TIP3    H120100   3.689   2.857   4.416
 6719TIP3    H220101   3.716   2.870   4.268
 6720TIP3   OH220102   3.914   3.378   5.426
 6720TIP3    H120103   4.001   3.378   5.473
 6720TIP3    H220104   3.895   3.283   5.424
 6721TIP3   OH220105   4.389   3.323   5.478
 6721TIP3    H120106   4.485   3.313   5.473
 6721TIP3    H220107   4.361   3.266   5.403
 6722TIP3   OH220108   4.374   2.907   3.595
 6722TIP3    H120109   4.321   2.834   3.633
 6722TIP3    H220110   4.450   2.858   3.558
 6723TIP3   OH220111   5.028   3.239   5.213
 6723TIP3    H120112   5.025   3.169   5.281
 6723TIP3    H220113   5.107   3.291   5.238
 6724TIP3   OH220114   4.809   2.946   3.511
 6724TIP3    H120115   4.850   2.880   3.570
 6724TIP3    H220116   4.865   2.942   3.431
 6725TIP3   OH220117   4.042   2.778   5.626
 6725TIP3    H120118   4.057   2.681   5.630
 6725TIP3    H220119   3.955   2.781   5.580
 6726TIP3   OH220120   4.021   2.422   3.822
 6726TIP3    H120121   4.079   2.390   3.894
 6726TIP3    H220122   4.087   2.427   3.749
 6727TIP3   OH220123   4.543   2.627   3.632
 6727TIP3    H120124   4.541   2.637   3.729
 6727TIP3    H220125   4.542   2.529   3.624
 6728TIP3   OH220126   5.142   2.879   5.009
 6728TIP3    H120127   5.220   2.917   4.963
 6728TIP3    H220128   5.076   2.950   4.991
 6729TIP3   OH220129   4.159   2.520   5.615
 6729TIP3    H120130   4.227   2.457   5.588
 6729TIP3    H220131   4.193   2.551   5.702
 6730TIP3   OH220132   4.227   2.331   4.039
 6730TIP3    H120133   4.199   2.285   4.119
 6730TIP3    H220134   4.266   2.258   3.986
 6731TIP3   OH220135   4.512   2.424   5.288
 6731TIP3    H120136   4.420   2.459   5.298
 6731TIP3    H220137   4.527   2.443   5.193
 6732TIP3   OH220138   4.332   2.130   3.879
 6732TIP3    H120139   4.305   2.134   3.785
 6732TIP3    H220140   4.429   2.130   3.871
 6733TIP3   OH220141   5.001   2.787   5.403
 6733TIP3    H120142   5.085   2.769   5.357
 6733TIP3    H220143   5.012   2.733   5.484
 6734TIP3   OH220144   5.154   2.445   3.540
 6734TIP3    H120145   5.138   2.406   3.451
 6734TIP3    H220146   5.124   2.537   3.522
 6735TIP3   OH220147   4.622   2.182   5.387
 6735TIP3    H120148   4.625   2.100   5.333
 6735TIP3    H220149   4.569   2.241   5.329
 6736TIP3   OH220150   4.624   1.973   5.205
 6736TIP3    H120151   4.653   2.008   5.119
 6736TIP3    H220152   4.531   1.947   5.186
 6737TIP3   OH220153   4.668   2.532   5.090
 6737TIP3    H120154   4.739   2.523   5.024
 6737TIP3    H220155   4.601   2.585   5.041
 6738TIP3   OH220156   5.231   2.471   5.452
 6738TIP3    H120157   5.276   2.386   5.459
 6738TIP3    H220158   5.300   2.528   5.416
 6739TIP3   OH220159   5.270   2.726   5.191
 6739TIP3    H120160   5.214   2.784   5.133
 6739TIP3    H220161   5.359   2.747   5.154
 6740TIP3   OH220162   4.511   2.288   5.622
 6740TIP3    H120163   4.436   2.229   5.643
 6740TIP3    H220164   4.536   2.256   5.533
 6741TIP3   OH220165   4.756   1.734   5.275
 6741TIP3    H120166   4.705   1.814   5.250
 6741TIP3    H220167   4.689   1.663   5.262
 6742TIP3   OH220168   4.877   2.231   5.490
 6742TIP3    H120169   4.865   2.214   5.585
 6742TIP3    H220170   4.790   2.200   5.456
 6743TIP3   OH220171   5.120   2.199   5.346
 6743TIP3    H120172   5.047   2.187   5.410
 6743TIP3    H220173   5.197   2.165   5.397
 6744TIP3   OH220174   5.346   2.129   5.491
 6744TIP3    H120175   5.361   2.033   5.505
 6744TIP3    H220176   5.344   2.163   5.583
 6745TIP3   OH220177   4.344   2.075   5.682
 6745TIP3    H120178   4.343   1.983   5.648
 6745TIP3    H220179   4.381   2.059   5.772
 6746TIP3   OH220180   4.847   1.743   5.533
 6746TIP3    H120181   4.914   1.672   5.527
 6746TIP3    H220182   4.809   1.738   5.443
 6747TIP3   OH220183   4.917   1.956   5.689
 6747TIP3    H120184   4.896   1.884   5.626
 6747TIP3    H220185   4.837   2.012   5.683
 6748TIP3   OH220186   4.140   3.184   3.789
 6748TIP3    H120187   4.235   3.176   3.769
 6748TIP3    H220188   4.112   3.238   3.712
 6749TIP3   OH220189   3.617   2.567   4.003
 6749TIP3    H120190   3.712   2.588   3.986
 6749TIP3    H220191   3.610   2.478   3.961
 6750TIP3   OH220192   3.534   3.179   4.421
 6750TIP3    H120193   3.468   3.119   4.380
 6750TIP3    H220194   3.578   3.118   4.484
 6751TIP3   OH220195   3.668   3.022   4.605
 6751TIP3    H120196   3.655   2.955   4.674
 6751TIP3    H220197   3.721   3.088   4.654
 6752TIP3   OH220198   5.398   3.432   4.406
 6752TIP3    H120199   5.427   3.466   4.492
 6752TIP3    H220200   5.467   3.464   4.346
 6753TIP3   OH220201   5.423   3.452   4.692
 6753TIP3    H120202   5.379   3.365   4.686
 6753TIP3    H220203   5.502   3.428   4.743
 6754TIP3   OH220204   5.470   3.127   5.263
 6754TIP3    H120205   5.399   3.138   5.329
 6754TIP3    H220206   5.514   3.215   5.266
 6755TIP3   OH220207   5.290   2.637   3.877
 6755TIP3    H120208   5.353   2.705   3.847
 6755TIP3    H220209   5.336   2.602   3.956
 6756TIP3   OH220210   5.418   2.504   4.083
 6756TIP3    H120211   5.349   2.465   4.141
 6756TIP3    H220212   5.481   2.543   4.148
 6757TIP3   OH220213   5.474   2.903   4.517
 6757TIP3    H120214   5.524   2.835   4.468
 6757TIP3    H220215   5.470   2.976   4.452
 6758TIP3   OH220216   5.298   3.201   4.710
 6758TIP3    H120217   5.225   3.243   4.759
 6758TIP3    H220218   5.250   3.156   4.637
 6759TIP3   OH220219   5.358   2.416   3.721
 6759TIP3    H120220   5.282   2.416   3.659
 6759TIP3    H220221   5.331   2.491   3.778
 6760TIP3   OH220222   5.226   2.087   3.670
 6760TIP3    H120223   5.174   2.115   3.593
 6760TIP3    H220224   5.205   1.991   3.669
 6761TIP3   OH220225   5.227   2.367   4.228
 6761TIP3    H120226   5.232   2.271   4.219
 6761TIP3    H220227   5.212   2.379   4.325
 6762TIP3   OH220228   3.852   2.433   4.980
 6762TIP3    H120229   3.848   2.401   4.887
 6762TIP3    H220230   3.950   2.437   4.993
 6763TIP3   OH220231   5.517   2.790   5.088
 6763TIP3    H120232   5.588   2.724   5.075
 6763TIP3    H220233   5.541   2.859   5.024
 6764TIP3   OH220234   5.699   2.589   5.093
 6764TIP3    H120235   5.625   2.540   5.135
 6764TIP3    H220236   5.773   2.527   5.111
 6765TIP3   OH220237   5.166   1.822   3.668
 6765TIP3    H120238   5.233   1.785   3.729
 6765TIP3    H220239   5.087   1.767   3.684
 6766TIP3   OH220240   5.227   2.084   4.121
 6766TIP3    H120241   5.267   1.995   4.135
 6766TIP3    H220242   5.282   2.116   4.047
 6767TIP3   OH220243   5.384   2.250   4.620
 6767TIP3    H120244   5.469   2.274   4.576
 6767TIP3    H220245   5.400   2.289   4.708
 6768TIP3   OH220246   5.458   2.400   4.848
 6768TIP3    H120247   5.381   2.435   4.896
 6768TIP3    H220248   5.491   2.481   4.802
 6769TIP3   OH220249   4.077   2.127   5.661
 6769TIP3    H120250   4.175   2.117   5.659
 6769TIP3    H220251   4.051   2.038   5.691
 6770TIP3   OH220252   5.905   1.993   5.403
 6770TIP3    H120253   5.967   1.929   5.362
 6770TIP3    H220254   5.875   2.045   5.325
 6771TIP3   OH220255   5.334   1.833   4.160
 6771TIP3    H120256   5.381   1.815   4.244
 6771TIP3    H220257   5.272   1.758   4.157
 6772TIP3   OH220258   4.036   1.819   4.987
 6772TIP3    H120259   4.096   1.741   4.989
 6772TIP3    H220260   4.099   1.891   4.973
 6773TIP3   OH220261   3.834   2.090   5.055
 6773TIP3    H120262   3.882   2.081   4.970
 6773TIP3    H220263   3.859   2.180   5.080
 6774TIP3   OH220264   5.773   2.126   5.205
 6774TIP3    H120265   5.687   2.170   5.222
 6774TIP3    H220266   5.743   2.052   5.150
 6775TIP3   OH220267   5.413   1.760   3.800
 6775TIP3    H120268   5.447   1.693   3.738
 6775TIP3    H220269   5.477   1.833   3.791
 6776TIP3   OH220270   3.820   1.611   4.568
 6776TIP3    H120271   3.726   1.589   4.584
 6776TIP3    H220272   3.814   1.657   4.481
 6777TIP3   OH220273   4.985   3.298   4.065
 6777TIP3    H120274   5.027   3.281   3.977
 6777TIP3    H220275   5.047   3.359   4.104
 6778TIP3   OH220276   4.042   1.677   5.371
 6778TIP3    H120277   3.987   1.670   5.451
 6778TIP3    H220278   3.977   1.713   5.307
 6779TIP3   OH220279   4.080   3.097   5.446
 6779TIP3    H120280   3.985   3.078   5.427
 6779TIP3    H220281   4.082   3.090   5.542
 6780TIP3   OH220282   4.262   3.140   4.995
 6780TIP3    H120283   4.213   3.215   4.955
 6780TIP3    H220284   4.347   3.154   4.948
 6781TIP3   OH220285   4.698   3.375   5.126
 6781TIP3    H120286   4.740   3.383   5.215
 6781TIP3    H220287   4.760   3.429   5.073
 6782TIP3   OH220288   4.882   3.531   4.998
 6782TIP3    H120289   4.952   3.483   4.952
 6782TIP3    H220290   4.935   3.587   5.059
 6783TIP3   OH220291   5.676   1.889   5.090
 6783TIP3    H120292   5.586   1.877   5.054
 6783TIP3    H220293   5.712   1.797   5.081
 6784TIP3   OH220294   3.934   3.386   5.024
 6784TIP3    H120295   3.844   3.416   4.999
 6784TIP3    H220296   3.950   3.445   5.100
 6785TIP3   OH220297   4.168   3.369   4.876
 6785TIP3    H120298   4.081   3.382   4.919
 6785TIP3    H220299   4.150   3.403   4.786
 6786TIP3   OH220300   4.594   3.384   4.670
 6786TIP3    H120301   4.523   3.407   4.608
 6786TIP3    H220302   4.609   3.470   4.715
 6787TIP3   OH220303   4.864   3.333   4.729
 6787TIP3    H120304   4.769   3.348   4.711
 6787TIP3    H220305   4.904   3.409   4.685
 6788TIP3   OH220306   5.076   3.528   4.639
 6788TIP3    H120307   5.062   3.610   4.589
 6788TIP3    H220308   5.100   3.464   4.567
 6789TIP3   OH220309   3.842   3.184   4.759
 6789TIP3    H120310   3.870   3.155   4.849
 6789TIP3    H220311   3.916   3.143   4.708
 6790TIP3   OH220312   4.040   3.058   4.622
 6790TIP3    H120313   4.056   2.975   4.672
 6790TIP3    H220314   4.131   3.095   4.617
 6791TIP3   OH220315   4.306   3.148   4.627
 6791TIP3    H120316   4.337   3.057   4.615
 6791TIP3    H220317   4.355   3.172   4.708
 6792TIP3   OH220318   4.885   1.808   4.720
 6792TIP3    H120319   4.840   1.735   4.765
 6792TIP3    H220320   4.954   1.763   4.667
 6793TIP3   OH220321   5.399   1.692   4.615
 6793TIP3    H120322   5.435   1.741   4.538
 6793TIP3    H220323   5.303   1.707   4.606
 6794TIP3   OH220324   5.497   1.784   4.378
 6794TIP3    H120325   5.571   1.733   4.340
 6794TIP3    H220326   5.531   1.876   4.363
 6795TIP3   OH220327   4.128   1.515   4.726
 6795TIP3    H120328   4.034   1.485   4.724
 6795TIP3    H220329   4.174   1.429   4.718
 6796TIP3   OH220330   3.946   1.390   4.391
 6796TIP3    H120331   3.950   1.428   4.301
 6796TIP3    H220332   3.898   1.459   4.440
 6797TIP3   OH220333   4.581   1.543   4.606
 6797TIP3    H120334   4.634   1.592   4.540
 6797TIP3    H220335   4.606   1.588   4.689
 6798TIP3   OH220336   5.117   1.696   4.588
 6798TIP3    H120337   5.115   1.655   4.501
 6798TIP3    H220338   5.107   1.617   4.647
 6799TIP3   OH220339   5.151   1.622   4.154
 6799TIP3    H120340   5.065   1.665   4.170
 6799TIP3    H220341   5.135   1.535   4.196
 6800TIP3   OH220342   3.631   2.965   4.151
 6800TIP3    H120343   3.546   2.932   4.118
 6800TIP3    H220344   3.625   3.058   4.122
 6801TIP3   OH220345   4.032   1.552   4.144
 6801TIP3    H120346   4.070   1.484   4.085
 6801TIP3    H220347   4.112   1.597   4.176
 6802TIP3   OH220348   4.543   1.724   4.234
 6802TIP3    H120349   4.602   1.674   4.292
 6802TIP3    H220350   4.568   1.816   4.260
 6803TIP3   OH220351   4.407   3.139   3.736
 6803TIP3    H120352   4.494   3.164   3.698
 6803TIP3    H220353   4.384   3.066   3.675
 6804TIP3   OH220354   5.122   3.264   3.829
 6804TIP3    H120355   5.117   3.166   3.816
 6804TIP3    H220356   5.078   3.296   3.748
 6805TIP3   OH220357   4.336   1.802   5.622
 6805TIP3    H120358   4.300   1.728   5.674
 6805TIP3    H220359   4.431   1.798   5.648
 6806TIP3   OH220360   4.590   1.795   5.736
 6806TIP3    H120361   4.673   1.766   5.694
 6806TIP3    H220362   4.576   1.724   5.802
 6807TIP3   OH220363   3.709   2.979   3.787
 6807TIP3    H120364   3.717   3.001   3.881
 6807TIP3    H220365   3.795   2.934   3.769
 6808TIP3   OH220366   5.415   1.860   5.521
 6808TIP3    H120367   5.432   1.828   5.612
 6808TIP3    H220368   5.504   1.854   5.480
 6809TIP3   OH220369   5.346   3.406   5.016
 6809TIP3    H120370   5.268   3.377   4.963
 6809TIP3    H220371   5.329   3.502   5.021
 6810TIP3   OH220372   6.617   2.781   3.777
 6810TIP3    H120373   6.586   2.872   3.756
 6810TIP3    H220374   6.542   2.730   3.742
 6811TIP3   OH220375   6.624   2.779   4.158
 6811TIP3    H120376   6.641   2.763   4.252
 6811TIP3    H220377   6.577   2.699   4.131
 6812TIP3   OH220378   5.914   2.672   4.528
 6812TIP3    H120379   5.945   2.603   4.590
 6812TIP3    H220380   5.992   2.729   4.523
 6813TIP3   OH220381   6.865   3.084   3.847
 6813TIP3    H120382   6.841   3.024   3.918
 6813TIP3    H220383   6.895   3.163   3.895
 6814TIP3   OH220384   5.889   3.087   4.250
 6814TIP3    H120385   5.882   2.989   4.251
 6814TIP3    H220386   5.986   3.096   4.238
 6815TIP3   OH220387   5.594   2.285   4.029
 6815TIP3    H120388   5.546   2.367   4.050
 6815TIP3    H220389   5.523   2.234   3.986
 6816TIP3   OH220390   5.651   2.576   4.216
 6816TIP3    H120391   5.702   2.498   4.247
 6816TIP3    H220392   5.709   2.614   4.150
 6817TIP3   OH220393   6.511   3.544   3.859
 6817TIP3    H120394   6.553   3.472   3.809
 6817TIP3    H220395   6.496   3.504   3.945
 6818TIP3   OH220396   6.412   3.008   4.211
 6818TIP3    H120397   6.451   2.939   4.155
 6818TIP3    H220398   6.494   3.053   4.240
 6819TIP3   OH220399   7.413   2.329   4.205
 6819TIP3    H120400   7.450   2.405   4.255
 6819TIP3    H220401   7.458   2.339   4.119
 6820TIP3   OH220402   6.170   2.167   4.205
 6820TIP3    H120403   6.150   2.239   4.142
 6820TIP3    H220404   6.121   2.093   4.163
 6821TIP3   OH220405   6.874   2.263   3.828
 6821TIP3    H120406   6.933   2.188   3.846
 6821TIP3    H220407   6.917   2.302   3.749
 6822TIP3   OH220408   5.799   2.368   4.315
 6822TIP3    H120409   5.882   2.349   4.363
 6822TIP3    H220410   5.813   2.313   4.235
 6823TIP3   OH220411   6.239   2.566   4.112
 6823TIP3    H120412   6.334   2.542   4.121
 6823TIP3    H220413   6.201   2.482   4.078
 6824TIP3   OH220414   7.492   2.531   4.393
 6824TIP3    H120415   7.420   2.593   4.370
 6824TIP3    H220416   7.541   2.581   4.461
 6825TIP3   OH220417   6.163   2.151   4.642
 6825TIP3    H120418   6.104   2.188   4.574
 6825TIP3    H220419   6.109   2.168   4.722
 6826TIP3   OH220420   6.502   2.999   3.649
 6826TIP3    H120421   6.465   2.991   3.559
 6826TIP3    H220422   6.460   3.083   3.677
 6827TIP3   OH220423   6.268   2.927   4.433
 6827TIP3    H120424   6.208   2.997   4.468
 6827TIP3    H220425   6.311   2.974   4.358
 6828TIP3   OH220426   6.036   2.265   4.424
 6828TIP3    H120427   6.097   2.338   4.448
 6828TIP3    H220428   6.085   2.225   4.348
 6829TIP3   OH220429   6.100   3.125   4.533
 6829TIP3    H120430   6.075   3.212   4.496
 6829TIP3    H220431   6.020   3.108   4.587
 6830TIP3   OH220432   5.489   2.810   3.772
 6830TIP3    H120433   5.449   2.835   3.686
 6830TIP3    H220434   5.519   2.898   3.805
 6831TIP3   OH220435   6.930   3.329   4.006
 6831TIP3    H120436   6.840   3.320   4.048
 6831TIP3    H220437   6.921   3.415   3.962
 6832TIP3   OH220438   6.514   1.864   4.364
 6832TIP3    H120439   6.497   1.769   4.381
 6832TIP3    H220440   6.437   1.904   4.408
 6833TIP3   OH220441   6.630   3.370   3.681
 6833TIP3    H120442   6.680   3.288   3.659
 6833TIP3    H220443   6.693   3.437   3.643
 6834TIP3   OH220444   6.773   3.154   3.595
 6834TIP3    H120445   6.738   3.074   3.555
 6834TIP3    H220446   6.812   3.120   3.679
 6835TIP3   OH220447   7.154   3.237   4.354
 6835TIP3    H120448   7.142   3.161   4.293
 6835TIP3    H220449   7.135   3.313   4.295
 6836TIP3   OH220450   6.448   2.631   3.616
 6836TIP3    H120451   6.368   2.686   3.598
 6836TIP3    H220452   6.492   2.631   3.529
 6837TIP3   OH220453   6.405   2.420   3.324
 6837TIP3    H120454   6.472   2.473   3.371
 6837TIP3    H220455   6.464   2.357   3.277
 6838TIP3   OH220456   7.349   2.875   4.201
 6838TIP3    H120457   7.267   2.929   4.202
 6838TIP3    H220458   7.384   2.900   4.112
 6839TIP3   OH220459   6.794   2.715   3.580
 6839TIP3    H120460   6.740   2.741   3.658
 6839TIP3    H220461   6.880   2.695   3.623
 6840TIP3   OH220462   7.027   2.758   4.504
 6840TIP3    H120463   7.031   2.839   4.559
 6840TIP3    H220464   6.941   2.770   4.460
 6841TIP3   OH220465   6.026   2.710   4.002
 6841TIP3    H120466   5.986   2.653   3.932
 6841TIP3    H220467   6.103   2.657   4.030
 6842TIP3   OH220468   6.153   3.120   4.148
 6842TIP3    H120469   6.136   3.093   4.056
 6842TIP3    H220470   6.243   3.084   4.164
 6843TIP3   OH220471   6.164   2.683   4.356
 6843TIP3    H120472   6.195   2.659   4.266
 6843TIP3    H220473   6.205   2.770   4.372
 6844TIP3   OH220474   6.692   3.321   4.134
 6844TIP3    H120475   6.675   3.404   4.183
 6844TIP3    H220476   6.670   3.252   4.199
 6845TIP3   OH220477   6.303   3.238   4.680
 6845TIP3    H120478   6.242   3.301   4.725
 6845TIP3    H220479   6.239   3.186   4.628
 6846TIP3   OH220480   6.633   2.571   3.409
 6846TIP3    H120481   6.691   2.634   3.458
 6846TIP3    H220482   6.659   2.592   3.316
 6847TIP3   OH220483   6.059   2.791   4.787
 6847TIP3    H120484   6.064   2.881   4.825
 6847TIP3    H220485   5.963   2.773   4.799
 6848TIP3   OH220486   6.383   3.248   3.685
 6848TIP3    H120487   6.465   3.302   3.691
 6848TIP3    H220488   6.321   3.309   3.643
 6849TIP3   OH220489   6.097   3.403   4.766
 6849TIP3    H120490   6.062   3.410   4.675
 6849TIP3    H220491   6.015   3.383   4.817
 6850TIP3   OH220492   7.151   1.811   3.461
 6850TIP3    H120493   7.068   1.833   3.507
 6850TIP3    H220494   7.166   1.892   3.407
 6851TIP3   OH220495   5.895   2.556   3.798
 6851TIP3    H120496   5.825   2.601   3.747
 6851TIP3    H220497   5.853   2.472   3.818
 6852TIP3   OH220498   6.951   3.179   3.008
 6852TIP3    H120499   6.959   3.276   2.993
 6852TIP3    H220500   7.044   3.151   2.996
 6853TIP3   OH220501   5.673   2.940   4.714
 6853TIP3    H120502   5.606   2.922   4.645
 6853TIP3    H220503   5.711   2.852   4.731
 6854TIP3   OH220504   5.531   3.131   4.347
 6854TIP3    H120505   5.627   3.126   4.333
 6854TIP3    H220506   5.524   3.210   4.402
 6855TIP3   OH220507   7.393   3.587   4.406
 6855TIP3    H120508   7.390   3.491   4.420
 6855TIP3    H220509   7.309   3.614   4.450
 6856TIP3   OH220510   6.500   3.366   4.538
 6856TIP3    H120511   6.495   3.459   4.568
 6856TIP3    H220512   6.428   3.326   4.591
 6857TIP3   OH220513   6.265   3.498   3.489
 6857TIP3    H120514   6.217   3.483   3.406
 6857TIP3    H220515   6.230   3.584   3.519
 6858TIP3   OH220516   5.698   3.342   3.873
 6858TIP3    H120517   5.745   3.335   3.959
 6858TIP3    H220518   5.647   3.260   3.873
 6859TIP3   OH220519   6.460   3.400   3.125
 6859TIP3    H120520   6.520   3.330   3.090
 6859TIP3    H220521   6.496   3.412   3.215
 6860TIP3   OH220522   6.515   3.449   3.393
 6860TIP3    H120523   6.426   3.461   3.435
 6860TIP3    H220524   6.566   3.416   3.469
 6861TIP3   OH220525   7.285   2.712   4.683
 6861TIP3    H120526   7.199   2.721   4.640
 6861TIP3    H220527   7.298   2.615   4.685
 6862TIP3   OH220528   5.880   3.121   4.695
 6862TIP3    H120529   5.928   3.106   4.779
 6862TIP3    H220530   5.804   3.059   4.704
 6863TIP3   OH220531   6.278   1.946   4.488
 6863TIP3    H120532   6.190   1.915   4.458
 6863TIP3    H220533   6.250   2.025   4.538
 6864TIP3   OH220534   6.813   2.065   4.674
 6864TIP3    H120535   6.882   2.040   4.739
 6864TIP3    H220536   6.730   2.047   4.723
 6865TIP3   OH220537   7.051   2.497   4.589
 6865TIP3    H120538   7.004   2.487   4.675
 6865TIP3    H220539   7.028   2.589   4.564
 6866TIP3   OH220540   6.712   2.611   3.154
 6866TIP3    H120541   6.675   2.593   3.065
 6866TIP3    H220542   6.795   2.657   3.131
 6867TIP3   OH220543   6.423   1.990   3.458
 6867TIP3    H120544   6.386   1.987   3.548
 6867TIP3    H220545   6.382   1.909   3.421
 6868TIP3   OH220546   6.213   2.461   4.505
 6868TIP3    H120547   6.161   2.480   4.586
 6868TIP3    H220548   6.196   2.543   4.452
 6869TIP3   OH220549   6.094   2.348   4.018
 6869TIP3    H120550   6.002   2.322   4.037
 6869TIP3    H220551   6.105   2.307   3.929
 6870TIP3   OH220552   6.585   2.431   3.749
 6870TIP3    H120553   6.534   2.503   3.707
 6870TIP3    H220554   6.640   2.400   3.674
 6871TIP3   OH220555   6.759   2.708   4.829
 6871TIP3    H120556   6.737   2.636   4.893
 6871TIP3    H220557   6.852   2.725   4.853
 6872TIP3   OH220558   6.752   2.463   3.984
 6872TIP3    H120559   6.684   2.496   3.922
 6872TIP3    H220560   6.781   2.384   3.933
 6873TIP3   OH220561   6.033   2.488   4.711
 6873TIP3    H120562   6.056   2.554   4.779
 6873TIP3    H220563   6.019   2.407   4.765
 6874TIP3   OH220564   6.078   1.969   3.422
 6874TIP3    H120565   6.071   1.967   3.519
 6874TIP3    H220566   5.999   2.019   3.398
 6875TIP3   OH220567   5.622   2.008   4.296
 6875TIP3    H120568   5.698   2.041   4.348
 6875TIP3    H220569   5.662   1.981   4.213
 6876TIP3   OH220570   5.588   1.992   3.809
 6876TIP3    H120571   5.636   2.028   3.732
 6876TIP3    H220572   5.526   2.065   3.827
 6877TIP3   OH220573   6.751   2.697   4.406
 6877TIP3    H120574   6.768   2.618   4.353
 6877TIP3    H220575   6.720   2.655   4.489
 6878TIP3   OH220576   6.424   2.178   4.077
 6878TIP3    H120577   6.346   2.172   4.135
 6878TIP3    H220578   6.497   2.149   4.136
 6879TIP3   OH220579   5.856   2.228   4.085
 6879TIP3    H120580   5.761   2.235   4.056
 6879TIP3    H220581   5.878   2.135   4.063
 6880TIP3   OH220582   6.119   2.220   3.777
 6880TIP3    H120583   6.213   2.235   3.754
 6880TIP3    H220584   6.072   2.240   3.692
 6881TIP3   OH220585   5.972   2.248   3.548
 6881TIP3    H120586   5.893   2.215   3.502
 6881TIP3    H220587   6.023   2.289   3.475
 6882TIP3   OH220588   7.087   3.934   4.495
 6882TIP3    H120589   7.080   3.957   4.401
 6882TIP3    H220590   7.166   3.985   4.521
 6883TIP3   OH220591   6.042   3.042   4.921
 6883TIP3    H120592   6.121   3.073   4.968
 6883TIP3    H220593   5.976   3.044   4.993
 6884TIP3   OH220594   6.510   2.503   4.184
 6884TIP3    H120595   6.578   2.453   4.136
 6884TIP3    H220596   6.502   2.452   4.267
 6885TIP3   OH220597   6.022   1.983   4.062
 6885TIP3    H120598   5.984   1.907   4.112
 6885TIP3    H220599   6.063   1.938   3.987
 6886TIP3   OH220600   6.481   2.405   4.460
 6886TIP3    H120601   6.389   2.433   4.476
 6886TIP3    H220602   6.533   2.466   4.516
 6887TIP3   OH220603   6.219   2.781   3.563
 6887TIP3    H120604   6.144   2.720   3.549
 6887TIP3    H220605   6.197   2.817   3.652
 6888TIP3   OH220606   7.117   3.020   4.186
 6888TIP3    H120607   7.141   3.073   4.107
 6888TIP3    H220608   7.031   2.981   4.159
 6889TIP3   OH220609   6.674   2.090   3.438
 6889TIP3    H120610   6.577   2.071   3.438
 6889TIP3    H220611   6.679   2.186   3.452
 6890TIP3   OH220612   6.612   3.101   4.562
 6890TIP3    H120613   6.649   3.093   4.651
 6890TIP3    H220614   6.577   3.192   4.562
 6891TIP3   OH220615   6.743   2.348   3.532
 6891TIP3    H120616   6.840   2.357   3.538
 6891TIP3    H220617   6.718   2.426   3.479
 6892TIP3   OH220618   5.911   2.809   4.235
 6892TIP3    H120619   5.948   2.780   4.149
 6892TIP3    H220620   5.955   2.748   4.297
 6893TIP3   OH220621   6.363   2.935   3.387
 6893TIP3    H120622   6.314   3.020   3.388
 6893TIP3    H220623   6.309   2.881   3.448
 6894TIP3   OH220624   5.795   2.724   4.850
 6894TIP3    H120625   5.809   2.711   4.945
 6894TIP3    H220626   5.722   2.661   4.832
 6895TIP3   OH220627   6.518   2.845   4.870
 6895TIP3    H120628   6.456   2.783   4.828
 6895TIP3    H220629   6.604   2.809   4.840
 6896TIP3   OH220630   6.774   3.356   4.461
 6896TIP3    H120631   6.678   3.362   4.472
 6896TIP3    H220632   6.804   3.413   4.536
 6897TIP3   OH220633   7.179   2.441   3.364
 6897TIP3    H120634   7.119   2.396   3.300
 6897TIP3    H220635   7.177   2.530   3.324
 6898TIP3   OH220636   7.404   3.295   4.443
 6898TIP3    H120637   7.307   3.290   4.434
 6898TIP3    H220638   7.431   3.266   4.353
 6899TIP3   OH220639   6.891   3.255   3.273
 6899TIP3    H120640   6.858   3.186   3.332
 6899TIP3    H220641   6.901   3.209   3.188
 6900TIP3   OH220642   6.882   2.886   4.106
 6900TIP3    H120643   6.787   2.862   4.119
 6900TIP3    H220644   6.911   2.809   4.053
 6901TIP3   OH220645   6.015   3.114   3.864
 6901TIP3    H120646   6.012   3.196   3.809
 6901TIP3    H220647   5.920   3.098   3.874
 6902TIP3   OH220648   5.563   2.413   3.527
 6902TIP3    H120649   5.611   2.494   3.556
 6902TIP3    H220650   5.489   2.415   3.593
 6903TIP3   OH220651   6.140   2.875   3.804
 6903TIP3    H120652   6.109   2.966   3.822
 6903TIP3    H220653   6.104   2.827   3.880
 6904TIP3   OH220654   6.282   3.454   4.328
 6904TIP3    H120655   6.320   3.529   4.277
 6904TIP3    H220656   6.360   3.421   4.374
 6905TIP3   OH220657   5.933   3.349   3.715
 6905TIP3    H120658   5.846   3.362   3.759
 6905TIP3    H220659   5.969   3.441   3.718
 6906TIP3   OH220660   6.663   3.086   4.293
 6906TIP3    H120661   6.653   3.087   4.391
 6906TIP3    H220662   6.750   3.045   4.283
 6907TIP3   OH220663   6.647   2.984   3.174
 6907TIP3    H120664   6.698   2.959   3.253
 6907TIP3    H220665   6.557   2.958   3.200
 6908TIP3   OH220666   6.914   3.621   4.334
 6908TIP3    H120667   6.831   3.570   4.326
 6908TIP3    H220668   6.901   3.688   4.264
 6909TIP3   OH220669   6.981   3.455   2.991
 6909TIP3    H120670   7.015   3.527   2.937
 6909TIP3    H220671   6.901   3.499   3.027
 6910TIP3   OH220672   5.999   2.233   4.854
 6910TIP3    H120673   5.902   2.234   4.865
 6910TIP3    H220674   6.026   2.177   4.929
 6911TIP3   OH220675   6.807   2.916   3.388
 6911TIP3    H120676   6.797   2.849   3.459
 6911TIP3    H220677   6.904   2.913   3.375
 6912TIP3   OH220678   5.717   3.318   4.489
 6912TIP3    H120679   5.774   3.249   4.527
 6912TIP3    H220680   5.747   3.397   4.536
 6913TIP3   OH220681   6.010   2.962   3.173
 6913TIP3    H120682   6.021   2.868   3.148
 6913TIP3    H220683   5.987   2.955   3.268
 6914TIP3   OH220684   5.954   2.969   3.445
 6914TIP3    H120685   6.028   2.947   3.502
 6914TIP3    H220686   5.953   3.067   3.451
 6915TIP3   OH220687   5.682   2.654   3.646
 6915TIP3    H120688   5.616   2.699   3.704
 6915TIP3    H220689   5.695   2.725   3.580
 6916TIP3   OH220690   6.887   2.277   4.500
 6916TIP3    H120691   6.925   2.335   4.567
 6916TIP3    H220692   6.845   2.208   4.555
 6917TIP3   OH220693   6.722   2.045   3.709
 6917TIP3    H120694   6.703   2.056   3.613
 6917TIP3    H220695   6.747   2.136   3.734
 6918TIP3   OH220696   6.220   3.164   3.393
 6918TIP3    H120697   6.132   3.188   3.429
 6918TIP3    H220698   6.237   3.242   3.338
 6919TIP3   OH220699   6.404   2.230   3.808
 6919TIP3    H120700   6.467   2.303   3.792
 6919TIP3    H220701   6.410   2.222   3.906
 6920TIP3   OH220702   6.685   2.544   4.620
 6920TIP3    H120703   6.698   2.608   4.693
 6920TIP3    H220704   6.731   2.467   4.655
 6921TIP3   OH220705   6.547   1.946   3.906
 6921TIP3    H120706   6.547   2.021   3.969
 6921TIP3    H220707   6.609   1.981   3.838
 6922TIP3   OH220708   5.966   3.239   3.464
 6922TIP3    H120709   5.937   3.310   3.401
 6922TIP3    H220710   5.951   3.283   3.550
 6923TIP3   OH220711   6.064   1.955   3.698
 6923TIP3    H120712   6.060   2.045   3.737
 6923TIP3    H220713   6.160   1.938   3.707
 6924TIP3   OH220714   7.317   2.443   4.609
 6924TIP3    H120715   7.219   2.444   4.596
 6924TIP3    H220716   7.352   2.449   4.518
 6925TIP3   OH220717   6.963   2.643   3.984
 6925TIP3    H120718   6.885   2.584   3.993
 6925TIP3    H220719   7.032   2.597   4.035
 6926TIP3   OH220720   5.683   2.864   3.455
 6926TIP3    H120721   5.749   2.935   3.463
 6926TIP3    H220722   5.729   2.808   3.389
 6927TIP3   OH220723   5.615   2.148   3.579
 6927TIP3    H120724   5.606   2.245   3.575
 6927TIP3    H220725   5.527   2.117   3.555
 6928TIP3   OH220726   6.937   3.600   3.933
 6928TIP3    H120727   6.894   3.647   3.858
 6928TIP3    H220728   7.032   3.618   3.912
 6929TIP3   OH220729   6.014   1.864   4.457
 6929TIP3    H120730   5.983   1.830   4.370
 6929TIP3    H220731   6.003   1.787   4.515
 6930TIP3   OH220732   5.545   3.079   3.836
 6930TIP3    H120733   5.482   3.110   3.903
 6930TIP3    H220734   5.511   3.125   3.755
 6931TIP3   OH220735   5.713   3.634   4.914
 6931TIP3    H120736   5.799   3.637   4.961
 6931TIP3    H220737   5.696   3.539   4.911
 6932TIP3   OH220738   6.184   3.583   4.960
 6932TIP3    H120739   6.280   3.573   4.963
 6932TIP3    H220740   6.161   3.522   4.887
 6933TIP3   OH220741   6.170   3.165   3.079
 6933TIP3    H120742   6.116   3.092   3.119
 6933TIP3    H220743   6.246   3.115   3.045
 6934TIP3   OH220744   6.829   3.497   4.691
 6934TIP3    H120745   6.823   3.428   4.761
 6934TIP3    H220746   6.905   3.550   4.721
 6935TIP3   OH220747   6.606   3.202   2.997
 6935TIP3    H120748   6.649   3.138   3.056
 6935TIP3    H220749   6.662   3.200   2.917
 6936TIP3   OH220750   5.839   3.033   5.112
 6936TIP3    H120751   5.854   2.937   5.118
 6936TIP3    H220752   5.752   3.037   5.066
 6937TIP3   OH220753   5.830   2.683   3.316
 6937TIP3    H120754   5.893   2.664   3.388
 6937TIP3    H220755   5.892   2.690   3.240
 6938TIP3   OH220756   6.446   3.122   4.887
 6938TIP3    H120757   6.404   3.145   4.801
 6938TIP3    H220758   6.476   3.030   4.873
 6939TIP3   OH220759   6.338   2.882   3.117
 6939TIP3    H120760   6.336   2.895   3.214
 6939TIP3    H220761   6.335   2.784   3.111
 6940TIP3   OH220762   6.938   3.132   4.492
 6940TIP3    H120763   7.015   3.174   4.449
 6940TIP3    H220764   6.870   3.202   4.480
 6941TIP3   OH220765   5.959   2.770   5.098
 6941TIP3    H120766   6.038   2.725   5.067
 6941TIP3    H220767   5.988   2.803   5.186
 6942TIP3   OH220768   6.019   2.590   3.522
 6942TIP3    H120769   5.994   2.553   3.609
 6942TIP3    H220770   6.060   2.513   3.477
 6943TIP3   OH220771   6.298   2.653   4.757
 6943TIP3    H120772   6.217   2.710   4.759
 6943TIP3    H220773   6.345   2.688   4.678
 6944TIP3   OH220774   6.127   2.382   3.367
 6944TIP3    H120775   6.103   2.392   3.272
 6944TIP3    H220776   6.225   2.386   3.361
 6945TIP3   OH220777   6.809   3.052   4.889
 6945TIP3    H120778   6.891   3.025   4.846
 6945TIP3    H220779   6.804   2.990   4.964
 6946TIP3   OH220780   6.945   2.708   3.037
 6946TIP3    H120781   6.925   2.666   2.951
 6946TIP3    H220782   6.913   2.799   3.017
 6947TIP3   OH220783   6.420   2.443   4.879
 6947TIP3    H120784   6.418   2.365   4.821
 6947TIP3    H220785   6.374   2.511   4.824
 6948TIP3   OH220786   6.421   2.230   4.687
 6948TIP3    H120787   6.446   2.269   4.602
 6948TIP3    H220788   6.327   2.206   4.671
 6949TIP3   OH220789   6.444   2.761   4.559
 6949TIP3    H120790   6.528   2.789   4.521
 6949TIP3    H220791   6.382   2.825   4.518
 6950TIP3   OH220792   7.024   2.726   4.938
 6950TIP3    H120793   7.075   2.647   4.964
 6950TIP3    H220794   7.094   2.787   4.910
 6951TIP3   OH220795   7.069   2.980   4.672
 6951TIP3    H120796   7.011   3.037   4.617
 6951TIP3    H220797   7.157   3.005   4.635
 6952TIP3   OH220798   6.297   2.545   5.116
 6952TIP3    H120799   6.229   2.477   5.131
 6952TIP3    H220800   6.329   2.521   5.027
 6953TIP3   OH220801   6.552   1.990   4.758
 6953TIP3    H120802   6.501   2.071   4.736
 6953TIP3    H220803   6.484   1.921   4.748
 6954TIP3   OH220804   6.680   2.489   4.971
 6954TIP3    H120805   6.669   2.475   5.067
 6954TIP3    H220806   6.590   2.467   4.941
 6955TIP3   OH220807   6.914   2.434   4.816
 6955TIP3    H120808   6.842   2.441   4.882
 6955TIP3    H220809   6.990   2.409   4.873
 6956TIP3   OH220810   7.139   2.384   4.973
 6956TIP3    H120811   7.156   2.289   4.991
 6956TIP3    H220812   7.137   2.422   5.063
 6957TIP3   OH220813   6.134   2.326   5.171
 6957TIP3    H120814   6.137   2.234   5.139
 6957TIP3    H220815   6.173   2.315   5.260
 6958TIP3   OH220816   6.644   2.000   5.017
 6958TIP3    H120817   6.711   1.928   5.012
 6958TIP3    H220818   6.605   1.995   4.928
 6959TIP3   OH220819   6.713   2.214   5.175
 6959TIP3    H120820   6.691   2.143   5.112
 6959TIP3    H220821   6.634   2.272   5.169
 6960TIP3   OH220822   5.935   3.438   3.274
 6960TIP3    H120823   6.031   3.433   3.256
 6960TIP3    H220824   5.908   3.493   3.198
 6961TIP3   OH220825   5.414   2.840   3.507
 6961TIP3    H120826   5.508   2.854   3.481
 6961TIP3    H220827   5.390   2.760   3.454
 6962TIP3   OH220828   5.322   3.435   3.917
 6962TIP3    H120829   5.262   3.374   3.869
 6962TIP3    H220830   5.372   3.372   3.973
 6963TIP3   OH220831   5.466   3.276   4.091
 6963TIP3    H120832   5.454   3.210   4.160
 6963TIP3    H220833   5.519   3.342   4.139
 6964TIP3   OH220834   7.195   3.683   3.895
 6964TIP3    H120835   7.222   3.718   3.981
 6964TIP3    H220836   7.259   3.722   3.834
 6965TIP3   OH220837   7.222   3.707   4.178
 6965TIP3    H120838   7.176   3.620   4.172
 6965TIP3    H220839   7.297   3.682   4.234
 6966TIP3   OH220840   7.268   3.384   4.749
 6966TIP3    H120841   7.196   3.395   4.814
 6966TIP3    H220842   7.310   3.472   4.752
 6967TIP3   OH220843   7.085   2.896   3.364
 6967TIP3    H120844   7.148   2.964   3.333
 6967TIP3    H220845   7.132   2.860   3.443
 6968TIP3   OH220846   7.215   2.763   3.569
 6968TIP3    H120847   7.146   2.726   3.628
 6968TIP3    H220848   7.279   2.801   3.632
 6969TIP3   OH220849   7.270   3.159   4.003
 6969TIP3    H120850   7.320   3.092   3.954
 6969TIP3    H220851   7.267   3.234   3.939
 6970TIP3   OH220852   7.094   3.457   4.196
 6970TIP3    H120853   7.021   3.501   4.245
 6970TIP3    H220854   7.045   3.413   4.123
 6971TIP3   OH220855   7.148   2.672   3.216
 6971TIP3    H120856   7.077   2.674   3.148
 6971TIP3    H220857   7.121   2.749   3.269
 6972TIP3   OH220858   7.019   2.345   3.170
 6972TIP3    H120859   6.974   2.382   3.093
 6972TIP3    H220860   6.995   2.250   3.160
 6973TIP3   OH220861   7.022   2.628   3.713
 6973TIP3    H120862   7.028   2.532   3.703
 6973TIP3    H220863   7.005   2.639   3.809
 6974TIP3   OH220864   5.648   2.691   4.467
 6974TIP3    H120865   5.644   2.659   4.375
 6974TIP3    H220866   5.746   2.694   4.481
 6975TIP3   OH220867   7.316   3.048   4.573
 6975TIP3    H120868   7.387   2.982   4.559
 6975TIP3    H220869   7.341   3.119   4.510
 6976TIP3   OH220870   7.496   2.845   4.575
 6976TIP3    H120871   7.423   2.798   4.621
 6976TIP3    H220872   7.570   2.785   4.594
 6977TIP3   OH220873   6.960   2.080   3.154
 6977TIP3    H120874   7.031   2.044   3.210
 6977TIP3    H220875   6.885   2.020   3.170
 6978TIP3   OH220876   7.025   2.345   3.606
 6978TIP3    H120877   7.065   2.255   3.617
 6978TIP3    H220878   7.081   2.379   3.534
 6979TIP3   OH220879   7.167   2.510   4.129
 6979TIP3    H120880   7.246   2.521   4.070
 6979TIP3    H220881   7.196   2.574   4.199
 6980TIP3   OH220882   7.246   2.665   4.339
 6980TIP3    H120883   7.175   2.706   4.393
 6980TIP3    H220884   7.284   2.745   4.295
 6981TIP3   OH220885   5.867   2.379   5.137
 6981TIP3    H120886   5.965   2.375   5.142
 6981TIP3    H220887   5.844   2.292   5.175
 6982TIP3   OH220888   7.704   2.248   4.892
 6982TIP3    H120889   7.764   2.184   4.849
 6982TIP3    H220890   7.672   2.301   4.815
 6983TIP3   OH220891   7.121   2.092   3.657
 6983TIP3    H120892   7.179   2.065   3.731
 6983TIP3    H220893   7.065   2.012   3.647
 6984TIP3   OH220894   5.830   2.074   4.468
 6984TIP3    H120895   5.892   1.998   4.475
 6984TIP3    H220896   5.893   2.148   4.459
 6985TIP3   OH220897   5.629   2.346   4.540
 6985TIP3    H120898   5.679   2.342   4.455
 6985TIP3    H220899   5.655   2.432   4.573
 6986TIP3   OH220900   7.571   2.381   4.696
 6986TIP3    H120901   7.486   2.423   4.719
 6986TIP3    H220902   7.538   2.311   4.637
 6987TIP3   OH220903   7.206   2.018   3.286
 6987TIP3    H120904   7.245   1.951   3.225
 6987TIP3    H220905   7.271   2.091   3.279
 6988TIP3   OH220906   5.616   1.852   4.040
 6988TIP3    H120907   5.523   1.844   4.068
 6988TIP3    H220908   5.608   1.910   3.961
 6989TIP3   OH220909   6.781   3.553   3.551
 6989TIP3    H120910   6.829   3.544   3.466
 6989TIP3    H220911   6.824   3.630   3.590
 6990TIP3   OH220912   5.837   1.930   4.855
 6990TIP3    H120913   5.784   1.925   4.937
 6990TIP3    H220914   5.771   1.968   4.794
 6991TIP3   OH220915   5.875   3.359   4.929
 6991TIP3    H120916   5.781   3.337   4.915
 6991TIP3    H220917   5.886   3.345   5.024
 6992TIP3   OH220918   6.058   3.395   4.479
 6992TIP3    H120919   6.009   3.472   4.441
 6992TIP3    H220920   6.143   3.409   4.433
 6993TIP3   OH220921   6.494   3.633   4.615
 6993TIP3    H120922   6.535   3.634   4.704
 6993TIP3    H220923   6.558   3.687   4.564
 6994TIP3   OH220924   6.675   3.790   4.481
 6994TIP3    H120925   6.745   3.740   4.438
 6994TIP3    H220926   6.727   3.847   4.541
 6995TIP3   OH220927   7.473   2.135   4.579
 6995TIP3    H120928   7.383   2.102   4.559
 6995TIP3    H220929   7.523   2.051   4.571
 6996TIP3   OH220930   5.728   3.643   4.511
 6996TIP3    H120931   5.639   3.676   4.485
 6996TIP3    H220932   5.747   3.702   4.586
 6997TIP3   OH220933   5.965   3.626   4.363
 6997TIP3    H120934   5.877   3.640   4.406
 6997TIP3    H220935   5.948   3.659   4.273
 6998TIP3   OH220936   6.392   3.651   4.162
 6998TIP3    H120937   6.322   3.666   4.095
 6998TIP3    H220938   6.402   3.742   4.198
 6999TIP3   OH220939   6.660   3.591   4.213
 6999TIP3    H120940   6.564   3.607   4.197
 6999TIP3    H220941   6.699   3.664   4.163
 7000TIP3   OH220942   6.871   3.791   4.120
 7000TIP3    H120943   6.838   3.866   4.067
 7000TIP3    H220944   6.894   3.726   4.051
 7001TIP3   OH220945   5.637   3.440   4.248
 7001TIP3    H120946   5.668   3.413   4.337
 7001TIP3    H220947   5.710   3.401   4.195
 7002TIP3   OH220948   5.834   3.315   4.109
 7002TIP3    H120949   5.851   3.232   4.159
 7002TIP3    H220950   5.925   3.353   4.105
 7003TIP3   OH220951   6.100   3.402   4.115
 7003TIP3    H120952   6.133   3.311   4.106
 7003TIP3    H220953   6.150   3.430   4.194
 7004TIP3   OH220954   6.645   2.050   4.181
 7004TIP3    H120955   6.619   1.985   4.249
 7004TIP3    H220956   6.736   2.022   4.159
 7005TIP3   OH220957   7.193   1.974   4.120
 7005TIP3    H120958   7.235   2.003   4.037
 7005TIP3    H220959   7.100   1.961   4.091
 7006TIP3   OH220960   7.291   2.041   3.871
 7006TIP3    H120961   7.363   1.985   3.834
 7006TIP3    H220962   7.329   2.129   3.852
 7007TIP3   OH220963   5.925   1.770   4.210
 7007TIP3    H120964   5.832   1.738   4.214
 7007TIP3    H220965   5.972   1.685   4.206
 7008TIP3   OH220966   5.721   1.644   3.865
 7008TIP3    H120967   5.745   1.700   3.789
 7008TIP3    H220968   5.689   1.710   3.930
 7009TIP3   OH220969   6.374   1.801   4.093
 7009TIP3    H120970   6.429   1.850   4.029
 7009TIP3    H220971   6.399   1.843   4.177
 7010TIP3   OH220972   6.919   1.954   4.067
 7010TIP3    H120973   6.909   1.905   3.985
 7010TIP3    H220974   6.906   1.881   4.133
 7011TIP3   OH220975   6.946   1.877   3.641
 7011TIP3    H120976   6.859   1.918   3.654
 7011TIP3    H220977   6.932   1.789   3.683
 7012TIP3   OH220978   5.428   3.223   3.639
 7012TIP3    H120979   5.343   3.188   3.607
 7012TIP3    H220980   5.421   3.314   3.605
 7013TIP3   OH220981   5.834   1.800   3.623
 7013TIP3    H120982   5.881   1.736   3.565
 7013TIP3    H220983   5.909   1.852   3.658
 7014TIP3   OH220984   6.339   1.980   3.721
 7014TIP3    H120985   6.398   1.932   3.782
 7014TIP3    H220986   6.361   2.072   3.746
 7015TIP3   OH220987   6.203   3.395   3.224
 7015TIP3    H120988   6.289   3.421   3.186
 7015TIP3    H220989   6.180   3.322   3.162
 7016TIP3   OH220990   6.923   3.523   3.316
 7016TIP3    H120991   6.915   3.426   3.304
 7016TIP3    H220992   6.875   3.555   3.237
 7017TIP3   OH220993   6.132   2.052   5.104
 7017TIP3    H120994   6.097   1.980   5.161
 7017TIP3    H220995   6.226   2.051   5.132
 7018TIP3   OH220996   6.383   2.050   5.221
 7018TIP3    H120997   6.469   2.025   5.183
 7018TIP3    H220998   6.371   1.980   5.289
 7019TIP3   OH220999   5.503   3.234   3.273
 7019TIP3    H121000   5.507   3.261   3.366
 7019TIP3    H221001   5.591   3.191   3.260
 7020TIP3   OH221002   7.211   2.115   5.008
 7020TIP3    H121003   7.227   2.085   5.100
 7020TIP3    H221004   7.301   2.110   4.970
 7021TIP3   OH221005   7.142   3.663   4.501
 7021TIP3    H121006   7.064   3.634   4.450
 7021TIP3    H221007   7.124   3.760   4.506
 7022TIP3   OH221008   7.707   2.927   4.017
 7022TIP3    H121009   7.734   2.860   4.082
 7022TIP3    H221010   7.786   2.984   4.015
 7023TIP3   OH221011   7.681   3.343   3.738
 7023TIP3    H121012   7.674   3.245   3.739
 7023TIP3    H221013   7.777   3.354   3.727
 7024TIP3   OH221014   7.387   2.538   3.519
 7024TIP3    H121015   7.342   2.622   3.538
 7024TIP3    H221016   7.316   2.492   3.470
 7025TIP3   OH221017   7.447   2.831   3.703
 7025TIP3    H121018   7.497   2.753   3.735
 7025TIP3    H221019   7.508   2.870   3.639
 7026TIP3   OH221020   8.315   3.761   3.329
 7026TIP3    H121021   8.410   3.738   3.332
 7026TIP3    H221022   8.299   3.781   3.423
 7027TIP3   OH221023   8.221   3.249   3.700
 7027TIP3    H121024   8.230   3.229   3.605
 7027TIP3    H221025   8.298   3.309   3.716
 7028TIP3   OH221026   7.935   2.424   3.707
 7028TIP3    H121027   7.953   2.490   3.638
 7028TIP3    H221028   7.899   2.350   3.653
 7029TIP3   OH221029   7.591   2.621   3.804
 7029TIP3    H121030   7.673   2.605   3.855
 7029TIP3    H221031   7.612   2.570   3.722
 7030TIP3   OH221032   8.019   2.825   3.595
 7030TIP3    H121033   8.112   2.794   3.605
 7030TIP3    H221034   7.977   2.742   3.563
 7031TIP3   OH221035   7.962   2.414   4.138
 7031TIP3    H121036   7.905   2.448   4.066
 7031TIP3    H221037   7.906   2.434   4.216
 7032TIP3   OH221038   8.069   3.180   3.930
 7032TIP3    H121039   8.006   3.248   3.964
 7032TIP3    H221040   8.113   3.228   3.857
 7033TIP3   OH221041   7.821   2.525   3.926
 7033TIP3    H121042   7.886   2.596   3.944
 7033TIP3    H221043   7.865   2.483   3.848
 7034TIP3   OH221044   7.897   3.379   4.019
 7034TIP3    H121045   7.872   3.467   3.983
 7034TIP3    H221046   7.817   3.362   4.073
 7035TIP3   OH221047   7.282   3.069   3.256
 7035TIP3    H121048   7.242   3.096   3.171
 7035TIP3    H221049   7.313   3.155   3.290
 7036TIP3   OH221050   7.811   2.969   3.486
 7036TIP3    H121051   7.774   2.912   3.416
 7036TIP3    H221052   7.889   2.917   3.516
 7037TIP3   OH221053   7.940   3.382   3.630
 7037TIP3    H121054   7.918   3.354   3.539
 7037TIP3    H221055   8.025   3.338   3.647
 7038TIP3   OH221056   7.953   2.943   3.839
 7038TIP3    H121057   7.984   2.916   3.750
 7038TIP3    H221058   7.999   3.028   3.854
 7039TIP3   OH221059   8.095   3.490   4.176
 7039TIP3    H121060   8.035   3.556   4.217
 7039TIP3    H221061   8.031   3.440   4.122
 7040TIP3   OH221062   7.848   3.063   4.269
 7040TIP3    H121063   7.850   3.151   4.313
 7040TIP3    H221064   7.755   3.037   4.285
 7041TIP3   OH221065   8.195   3.545   3.200
 7041TIP3    H121066   8.218   3.633   3.237
 7041TIP3    H221067   8.129   3.568   3.133
 7042TIP3   OH221068   7.892   3.660   4.252
 7042TIP3    H121069   7.857   3.666   4.161
 7042TIP3    H221070   7.810   3.640   4.304
 7043TIP3   OH221071   7.691   2.811   3.285
 7043TIP3    H121072   7.622   2.857   3.232
 7043TIP3    H221073   7.648   2.727   3.304
 7044TIP3   OH221074   7.470   3.199   4.200
 7044TIP3    H121075   7.403   3.179   4.131
 7044TIP3    H221076   7.508   3.111   4.220
 7045TIP3   OH221077   7.326   3.386   3.836
 7045TIP3    H121078   7.422   3.386   3.823
 7045TIP3    H221079   7.314   3.467   3.887
 7046TIP3   OH221080   8.282   3.605   4.014
 7046TIP3    H121081   8.291   3.697   4.045
 7046TIP3    H221082   8.213   3.572   4.074
 7047TIP3   OH221083   8.059   3.748   2.977
 7047TIP3    H121084   8.015   3.736   2.891
 7047TIP3    H221085   8.027   3.837   3.003
 7048TIP3   OH221086   7.495   3.602   3.360
 7048TIP3    H121087   7.541   3.594   3.446
 7048TIP3    H221088   7.440   3.522   3.360
 7049TIP3   OH221089   8.322   3.715   2.910
 7049TIP3    H121090   8.229   3.731   2.937
 7049TIP3    H221091   8.331   3.620   2.930
 7050TIP3   OH221092   7.677   3.377   4.181
 7050TIP3    H121093   7.724   3.365   4.266
 7050TIP3    H221094   7.601   3.316   4.190
 7051TIP3   OH221095   8.056   2.188   3.998
 7051TIP3    H121096   7.969   2.170   3.958
 7051TIP3    H221097   8.042   2.277   4.033
 7052TIP3   OH221098   7.999   2.724   3.991
 7052TIP3    H121099   7.949   2.744   4.073
 7052TIP3    H221100   7.981   2.804   3.937
 7053TIP3   OH221101   7.892   2.603   3.500
 7053TIP3    H121102   7.802   2.573   3.524
 7053TIP3    H221103   7.903   2.561   3.412
 7054TIP3   OH221104   7.813   2.743   4.203
 7054TIP3    H121105   7.878   2.794   4.255
 7054TIP3    H221106   7.808   2.659   4.254
 7055TIP3   OH221107   7.860   2.175   2.893
 7055TIP3    H121108   7.848   2.198   2.987
 7055TIP3    H221109   7.808   2.245   2.851
 7056TIP3   OH221110   7.417   2.262   3.787
 7056TIP3    H121111   7.489   2.300   3.841
 7056TIP3    H221112   7.460   2.240   3.704
 7057TIP3   OH221113   7.380   2.248   3.299
 7057TIP3    H121114   7.424   2.285   3.219
 7057TIP3    H221115   7.319   2.322   3.319
 7058TIP3   OH221116   7.651   2.487   3.570
 7058TIP3    H121117   7.556   2.491   3.542
 7058TIP3    H221118   7.676   2.394   3.552
 7059TIP3   OH221119   7.926   2.483   3.255
 7059TIP3    H121120   8.008   2.501   3.209
 7059TIP3    H221121   7.860   2.497   3.183
 7060TIP3   OH221122   7.769   2.504   3.039
 7060TIP3    H121123   7.702   2.458   2.985
 7060TIP3    H221124   7.823   2.545   2.968
 7061TIP3   OH221125   7.838   3.303   4.409
 7061TIP3    H121126   7.918   3.331   4.457
 7061TIP3    H221127   7.773   3.303   4.482
 7062TIP3   OH221128   7.806   2.241   3.542
 7062TIP3    H121129   7.774   2.168   3.600
 7062TIP3    H221130   7.857   2.191   3.477
 7063TIP3   OH221131   8.270   2.650   4.001
 7063TIP3    H121132   8.178   2.675   3.979
 7063TIP3    H221133   8.317   2.736   3.998
 7064TIP3   OH221134   7.982   3.069   3.048
 7064TIP3    H121135   7.932   2.985   3.042
 7064TIP3    H221136   7.987   3.084   3.145
 7065TIP3   OH221137   8.374   3.330   4.076
 7065TIP3    H121138   8.416   3.328   4.163
 7065TIP3    H221139   8.348   3.423   4.069
 7066TIP3   OH221140   7.705   3.066   3.723
 7066TIP3    H121141   7.739   3.037   3.636
 7066TIP3    H221142   7.752   3.007   3.784
 7067TIP3   OH221143   8.119   3.186   2.842
 7067TIP3    H121144   8.093   3.278   2.866
 7067TIP3    H221145   8.087   3.138   2.921
 7068TIP3   OH221146   7.589   2.987   4.338
 7068TIP3    H121147   7.611   2.973   4.432
 7068TIP3    H221148   7.523   2.918   4.323
 7069TIP3   OH221149   8.317   3.100   4.353
 7069TIP3    H121150   8.268   3.057   4.280
 7069TIP3    H221151   8.405   3.061   4.343
 7070TIP3   OH221152   7.811   3.371   3.354
 7070TIP3    H121153   7.810   3.451   3.296
 7070TIP3    H221154   7.717   3.352   3.359
 7071TIP3   OH221155   7.375   2.671   3.058
 7071TIP3    H121156   7.417   2.758   3.078
 7071TIP3    H221157   7.296   2.676   3.116
 7072TIP3   OH221158   7.955   3.134   3.313
 7072TIP3    H121159   7.914   3.223   3.318
 7072TIP3    H221160   7.901   3.085   3.377
 7073TIP3   OH221161   8.076   3.704   3.817
 7073TIP3    H121162   8.109   3.780   3.765
 7073TIP3    H221163   8.155   3.679   3.867
 7074TIP3   OH221164   7.729   3.606   3.203
 7074TIP3    H121165   7.642   3.618   3.247
 7074TIP3    H221166   7.762   3.699   3.205
 7075TIP3   OH221167   7.797   2.490   4.349
 7075TIP3    H121168   7.701   2.479   4.360
 7075TIP3    H221169   7.832   2.432   4.419
 7076TIP3   OH221170   7.516   3.574   3.974
 7076TIP3    H121171   7.571   3.504   4.013
 7076TIP3    H221172   7.543   3.651   4.026
 7077TIP3   OH221173   7.802   3.215   2.661
 7077TIP3    H121174   7.804   3.121   2.638
 7077TIP3    H221175   7.782   3.212   2.757
 7078TIP3   OH221176   7.753   3.221   2.932
 7078TIP3    H121177   7.836   3.192   2.975
 7078TIP3    H221178   7.756   3.319   2.945
 7079TIP3   OH221179   7.481   2.917   3.138
 7079TIP3    H121180   7.414   2.963   3.193
 7079TIP3    H221181   7.494   2.984   3.068
 7080TIP3   OH221182   8.017   3.433   2.889
 7080TIP3    H121183   7.926   3.454   2.919
 7080TIP3    H221184   8.038   3.515   2.841
 7081TIP3   OH221185   7.757   3.495   2.951
 7081TIP3    H121186   7.726   3.565   2.888
 7081TIP3    H221187   7.743   3.540   3.037
 7082TIP3   OH221188   7.871   2.219   3.176
 7082TIP3    H121189   7.851   2.299   3.229
 7082TIP3    H221190   7.952   2.250   3.130
 7083TIP3   OH221191   7.480   3.117   2.940
 7083TIP3    H121192   7.548   3.187   2.951
 7083TIP3    H221193   7.525   3.064   2.871
 7084TIP3   OH221194   7.419   2.400   3.077
 7084TIP3    H121195   7.421   2.498   3.075
 7084TIP3    H221196   7.344   2.382   3.018
 7085TIP3   OH221197   7.787   2.124   3.946
 7085TIP3    H121198   7.776   2.086   3.856
 7085TIP3    H221199   7.789   2.045   4.002
 7086TIP3   OH221200   7.340   3.335   3.322
 7086TIP3    H121201   7.280   3.368   3.390
 7086TIP3    H221202   7.306   3.382   3.242
 7087TIP3   OH221203   7.511   3.889   4.401
 7087TIP3    H121204   7.596   3.893   4.451
 7087TIP3    H221205   7.495   3.793   4.400
 7088TIP3   OH221206   7.978   3.840   4.446
 7088TIP3    H121207   8.074   3.830   4.453
 7088TIP3    H221208   7.959   3.779   4.372
 7089TIP3   OH221209   7.958   3.420   2.570
 7089TIP3    H121210   7.900   3.348   2.604
 7089TIP3    H221211   8.045   3.388   2.598
 7090TIP3   OH221212   7.635   3.291   4.599
 7090TIP3    H121213   7.650   3.195   4.607
 7090TIP3    H221214   7.548   3.294   4.554
 7091TIP3   OH221215   7.622   2.935   2.792
 7091TIP3    H121216   7.677   2.911   2.869
 7091TIP3    H221217   7.691   2.942   2.723
 7092TIP3   OH221218   8.257   3.380   4.370
 7092TIP3    H121219   8.204   3.400   4.290
 7092TIP3    H221220   8.272   3.283   4.362
 7093TIP3   OH221221   8.111   3.116   2.584
 7093TIP3    H121222   8.128   3.151   2.675
 7093TIP3    H221223   8.030   3.066   2.603
 7094TIP3   OH221224   7.757   3.024   4.583
 7094TIP3    H121225   7.837   2.980   4.554
 7094TIP3    H221226   7.785   3.058   4.671
 7095TIP3   OH221227   7.816   2.842   3.009
 7095TIP3    H121228   7.789   2.803   3.093
 7095TIP3    H221229   7.861   2.767   2.964
 7096TIP3   OH221230   8.045   2.882   4.258
 7096TIP3    H121231   7.982   2.958   4.265
 7096TIP3    H221232   8.111   2.922   4.197
 7097TIP3   OH221233   7.925   2.632   2.853
 7097TIP3    H121234   7.889   2.644   2.764
 7097TIP3    H221235   8.018   2.607   2.828
 7098TIP3   OH221236   8.224   2.703   4.364
 7098TIP3    H121237   8.224   2.616   4.319
 7098TIP3    H221238   8.157   2.753   4.313
 7099TIP3   OH221239   8.226   2.473   4.202
 7099TIP3    H121240   8.235   2.526   4.119
 7099TIP3    H221241   8.139   2.432   4.187
 7100TIP3   OH221242   8.214   3.014   4.095
 7100TIP3    H121243   8.286   3.008   4.031
 7100TIP3    H221244   8.155   3.079   4.049
 7101TIP3   OH221245   8.096   2.805   4.600
 7101TIP3    H121246   8.028   2.736   4.614
 7101TIP3    H221247   8.128   2.784   4.511
 7102TIP3   OH221248   7.927   2.587   4.657
 7102TIP3    H121249   7.934   2.496   4.623
 7102TIP3    H221250   7.965   2.577   4.747
 7103TIP3   OH221251   7.721   3.695   2.762
 7103TIP3    H121252   7.818   3.694   2.751
 7103TIP3    H221253   7.697   3.751   2.686
 7104TIP3   OH221254   7.210   3.081   2.976
 7104TIP3    H121255   7.305   3.102   2.961
 7104TIP3    H221256   7.202   2.993   2.933
 7105TIP3   OH221257   7.129   3.691   3.391
 7105TIP3    H121258   7.062   3.633   3.351
 7105TIP3    H221259   7.172   3.630   3.455
 7106TIP3   OH221260   7.263   3.534   3.577
 7106TIP3    H121261   7.245   3.469   3.646
 7106TIP3    H221262   7.314   3.600   3.627
 7107TIP3   OH221263   7.444   2.947   3.954
 7107TIP3    H121264   7.441   2.914   3.861
 7107TIP3    H221265   7.542   2.949   3.968
 7108TIP3   OH221266   7.659   2.629   4.609
 7108TIP3    H121267   7.757   2.630   4.619
 7108TIP3    H221268   7.638   2.546   4.655
 7109TIP3   OH221269   7.615   2.336   3.969
 7109TIP3    H121270   7.674   2.258   3.968
 7109TIP3    H221271   7.681   2.408   3.958
 7110TIP3   OH221272   7.405   2.597   4.021
 7110TIP3    H121273   7.460   2.589   3.941
 7110TIP3    H221274   7.436   2.681   4.057
 7111TIP3   OH221275   7.412   2.105   3.525
 7111TIP3    H121276   7.318   2.101   3.550
 7111TIP3    H221277   7.409   2.165   3.448
 7112TIP3   OH221278   7.629   2.199   4.346
 7112TIP3    H121279   7.575   2.188   4.427
 7112TIP3    H221280   7.561   2.222   4.281
 7113TIP3   OH221281   7.670   3.616   4.415
 7113TIP3    H121282   7.576   3.594   4.403
 7113TIP3    H221283   7.683   3.602   4.510
 7114TIP3   OH221284   7.852   3.649   3.966
 7114TIP3    H121285   7.804   3.725   3.927
 7114TIP3    H221286   7.938   3.662   3.920
 7115TIP3   OH221287   8.284   3.875   4.101
 7115TIP3    H121288   8.329   3.882   4.188
 7115TIP3    H221289   8.334   3.939   4.047
 7116TIP3   OH221290   8.429   4.057   3.933
 7116TIP3    H121291   8.473   4.044   3.845
 7116TIP3    H221292   8.454   4.148   3.953
 7117TIP3   OH221293   7.523   3.903   3.995
 7117TIP3    H121294   7.434   3.937   3.972
 7117TIP3    H221295   7.541   3.954   4.075
 7118TIP3   OH221296   7.758   3.879   3.849
 7118TIP3    H121297   7.671   3.893   3.892
 7118TIP3    H221298   7.742   3.913   3.759
 7119TIP3   OH221299   8.154   3.903   3.644
 7119TIP3    H121300   8.082   3.924   3.582
 7119TIP3    H221301   8.172   3.993   3.682
 7120TIP3   OH221302   8.412   3.817   3.626
 7120TIP3    H121303   8.320   3.850   3.635
 7120TIP3    H221304   8.463   3.898   3.653
 7121TIP3   OH221305   7.434   3.696   3.735
 7121TIP3    H121306   7.463   3.669   3.824
 7121TIP3    H221307   7.507   3.656   3.682
 7122TIP3   OH221308   7.631   3.572   3.596
 7122TIP3    H121309   7.646   3.489   3.646
 7122TIP3    H221310   7.721   3.609   3.592
 7123TIP3   OH221311   7.896   3.664   3.601
 7123TIP3    H121312   7.925   3.572   3.590
 7123TIP3    H221313   7.946   3.688   3.681
 7124TIP3   OH221314   7.719   2.029   3.691
 7124TIP3    H121315   7.628   1.995   3.699
 7124TIP3    H221316   7.768   1.944   3.686
 7125TIP3   OH221317   7.517   1.901   3.339
 7125TIP3    H121318   7.542   1.961   3.267
 7125TIP3    H221319   7.488   1.964   3.408
 7126TIP3   OH221320   7.224   3.477   3.124
 7126TIP3    H121321   7.137   3.446   3.092
 7126TIP3    H221322   7.219   3.570   3.096
 7127TIP3   OH221323   7.627   2.056   3.115
 7127TIP3    H121324   7.669   1.998   3.048
 7127TIP3    H221325   7.701   2.112   3.143
 7128TIP3   OH221326   7.990   3.655   2.719
 7128TIP3    H121327   8.082   3.665   2.686
 7128TIP3    H221328   7.959   3.586   2.656
 7129TIP3   OH221329   7.920   2.310   4.580
 7129TIP3    H121330   7.885   2.239   4.636
 7129TIP3    H221331   8.014   2.310   4.610
 7130TIP3   OH221332   8.159   2.304   4.715
 7130TIP3    H121333   8.239   2.266   4.672
 7130TIP3    H221334   8.143   2.236   4.784
 7131TIP3   OH221335   7.297   3.488   2.762
 7131TIP3    H121336   7.304   3.518   2.853
 7131TIP3    H221337   7.386   3.447   2.746
 7132TIP3   OH221338   0.870   3.829   4.952
 7132TIP3    H121339   0.838   3.919   4.931
 7132TIP3    H221340   0.791   3.777   4.932
 7133TIP3   OH221341   0.868   3.823   5.344
 7133TIP3    H121342   0.904   3.804   5.433
 7133TIP3    H221343   0.822   3.740   5.324
 7134TIP3   OH221344   0.198   3.704   5.663
 7134TIP3    H121345   0.165   3.646   5.734
 7134TIP3    H221346   0.233   3.778   5.714
 7135TIP3   OH221347   1.115   4.129   5.025
 7135TIP3    H121348   1.094   4.064   5.093
 7135TIP3    H221349   1.141   4.206   5.078
 7136TIP3   OH221350   0.145   4.110   5.357
 7136TIP3    H121351   0.127   4.016   5.377
 7136TIP3    H221352   0.224   4.124   5.411
 7137TIP3   OH221353  -0.085   3.616   5.340
 7137TIP3    H121354  -0.048   3.566   5.414
 7137TIP3    H221355  -0.033   3.698   5.344
 7138TIP3   OH221356   0.762   4.589   5.040
 7138TIP3    H121357   0.803   4.519   4.985
 7138TIP3    H221358   0.757   4.545   5.126
 7139TIP3   OH221359   0.664   4.052   5.386
 7139TIP3    H121360   0.704   3.973   5.346
 7139TIP3    H221361   0.747   4.098   5.412
 7140TIP3   OH221362   1.680   3.372   5.386
 7140TIP3    H121363   1.709   3.454   5.430
 7140TIP3    H221364   1.702   3.391   5.293
 7141TIP3   OH221365   1.081   3.552   5.414
 7141TIP3    H121366   1.119   3.465   5.437
 7141TIP3    H221367   1.044   3.534   5.326
 7142TIP3   OH221368   0.425   3.210   5.377
 7142TIP3    H121369   0.399   3.283   5.317
 7142TIP3    H221370   0.376   3.136   5.335
 7143TIP3   OH221371   1.114   3.301   5.003
 7143TIP3    H121372   1.184   3.289   5.072
 7143TIP3    H221373   1.166   3.340   4.931
 7144TIP3   OH221374   0.051   3.416   5.493
 7144TIP3    H121375   0.131   3.406   5.547
 7144TIP3    H221376   0.078   3.372   5.410
 7145TIP3   OH221377   0.494   3.612   5.265
 7145TIP3    H121378   0.585   3.586   5.292
 7145TIP3    H221379   0.453   3.525   5.246
 7146TIP3   OH221380   1.752   3.583   5.552
 7146TIP3    H121381   1.665   3.626   5.537
 7146TIP3    H221382   1.768   3.608   5.644
 7147TIP3   OH221383   0.411   3.193   5.822
 7147TIP3    H121384   0.356   3.237   5.755
 7147TIP3    H221385   0.359   3.209   5.903
 7148TIP3   OH221386   0.757   4.050   4.823
 7148TIP3    H121387   0.707   4.036   4.741
 7148TIP3    H221388   0.713   4.132   4.856
 7149TIP3   OH221389   0.515   3.978   5.613
 7149TIP3    H121390   0.456   4.043   5.655
 7149TIP3    H221391   0.556   4.028   5.540
 7150TIP3   OH221392   1.314   3.309   5.187
 7150TIP3    H121393   1.285   3.274   5.273
 7150TIP3    H221394   1.364   3.388   5.213
 7151TIP3   OH221395   0.291   3.307   5.599
 7151TIP3    H121396   0.348   3.383   5.626
 7151TIP3    H221397   0.345   3.271   5.526
 7152TIP3   OH221398   0.329   4.155   5.734
 7152TIP3    H121399   0.268   4.209   5.681
 7152TIP3    H221400   0.264   4.110   5.792
 7153TIP3   OH221401   1.177   4.373   5.182
 7153TIP3    H121402   1.088   4.364   5.224
 7153TIP3    H221403   1.168   4.461   5.139
 7154TIP3   OH221404   1.473   3.270   5.550
 7154TIP3    H121405   1.385   3.298   5.519
 7154TIP3    H221406   1.532   3.304   5.480
 7155TIP3   OH221407   0.762   2.911   5.536
 7155TIP3    H121408   0.747   2.816   5.556
 7155TIP3    H221409   0.686   2.951   5.583
 7156TIP3   OH221410   0.877   4.415   4.856
 7156TIP3    H121411   0.929   4.333   4.838
 7156TIP3    H221412   0.939   4.482   4.817
 7157TIP3   OH221413   1.024   4.198   4.774
 7157TIP3    H121414   0.972   4.121   4.747
 7157TIP3    H221415   1.065   4.167   4.858
 7158TIP3   OH221416   1.403   4.282   5.530
 7158TIP3    H121417   1.388   4.205   5.472
 7158TIP3    H221418   1.383   4.357   5.470
 7159TIP3   OH221419   0.696   3.673   4.793
 7159TIP3    H121420   0.616   3.726   4.773
 7159TIP3    H221421   0.744   3.677   4.708
 7160TIP3   OH221422   0.664   3.497   4.487
 7160TIP3    H121423   0.733   3.534   4.546
 7160TIP3    H221424   0.709   3.415   4.458
 7161TIP3   OH221425   1.599   3.925   5.376
 7161TIP3    H121426   1.514   3.974   5.380
 7161TIP3    H221427   1.630   3.950   5.286
 7162TIP3   OH221428   1.047   3.761   4.757
 7162TIP3    H121429   0.991   3.785   4.835
 7162TIP3    H221430   1.130   3.736   4.803
 7163TIP3   OH221431   1.277   3.797   5.677
 7163TIP3    H121432   1.275   3.879   5.729
 7163TIP3    H221433   1.190   3.801   5.632
 7164TIP3   OH221434   0.282   3.752   5.171
 7164TIP3    H121435   0.242   3.693   5.104
 7164TIP3    H221436   0.361   3.701   5.199
 7165TIP3   OH221437   0.429   4.189   5.315
 7165TIP3    H121438   0.391   4.133   5.246
 7165TIP3    H221439   0.514   4.144   5.334
 7166TIP3   OH221440   0.472   3.718   5.526
 7166TIP3    H121441   0.471   3.712   5.429
 7166TIP3    H221442   0.476   3.814   5.543
 7167TIP3   OH221443   0.939   4.366   5.308
 7167TIP3    H121444   0.926   4.447   5.361
 7167TIP3    H221445   0.922   4.294   5.372
 7168TIP3   OH221446   0.546   4.288   5.852
 7168TIP3    H121447   0.490   4.348   5.906
 7168TIP3    H221448   0.477   4.232   5.811
 7169TIP3   OH221449   0.889   3.616   4.589
 7169TIP3    H121450   0.948   3.678   4.638
 7169TIP3    H221451   0.913   3.638   4.495
 7170TIP3   OH221452   0.292   3.842   5.961
 7170TIP3    H121453   0.300   3.924   6.013
 7170TIP3    H221454   0.196   3.838   5.950
 7171TIP3   OH221455   0.631   4.293   4.858
 7171TIP3    H121456   0.713   4.347   4.866
 7171TIP3    H221457   0.570   4.357   4.818
 7172TIP3   OH221458   0.328   4.456   5.938
 7172TIP3    H121459   0.307   4.462   5.843
 7172TIP3    H221460   0.250   4.408   5.973
 7173TIP3   OH221461   0.164   3.591   4.966
 7173TIP3    H121462   0.087   3.632   4.920
 7173TIP3    H221463   0.125   3.510   5.001
 7174TIP3   OH221464   1.200   4.223   4.187
 7174TIP3    H121465   1.208   4.319   4.169
 7174TIP3    H221466   1.292   4.194   4.173
 7175TIP3   OH221467   1.643   4.631   5.582
 7175TIP3    H121468   1.641   4.535   5.601
 7175TIP3    H221469   1.559   4.659   5.626
 7176TIP3   OH221470   0.745   4.413   5.710
 7176TIP3    H121471   0.744   4.506   5.743
 7176TIP3    H221472   0.674   4.373   5.764
 7177TIP3   OH221473   0.514   4.541   4.668
 7177TIP3    H121474   0.466   4.531   4.584
 7177TIP3    H221475   0.484   4.629   4.698
 7178TIP3   OH221476   0.713   4.446   4.300
 7178TIP3    H121477   0.770   4.374   4.266
 7178TIP3    H221478   0.747   4.457   4.391
 7179TIP3   OH221479   0.762   4.493   4.570
 7179TIP3    H121480   0.673   4.503   4.611
 7179TIP3    H221481   0.814   4.461   4.645
 7180TIP3   OH221482   1.532   3.759   5.853
 7180TIP3    H121483   1.446   3.767   5.810
 7180TIP3    H221484   1.548   3.663   5.845
 7181TIP3   OH221485   0.527   2.990   5.665
 7181TIP3    H121486   0.439   2.958   5.636
 7181TIP3    H221487   0.499   3.069   5.716
 7182TIP3   OH221488   1.063   3.103   5.859
 7182TIP3    H121489   1.132   3.076   5.922
 7182TIP3    H221490   0.980   3.084   5.907
 7183TIP3   OH221491   1.298   3.536   5.777
 7183TIP3    H121492   1.246   3.532   5.861
 7183TIP3    H221493   1.272   3.623   5.741
 7184TIP3   OH221494   0.953   3.660   4.329
 7184TIP3    H121495   0.918   3.636   4.241
 7184TIP3    H221496   1.039   3.699   4.305
 7185TIP3   OH221497   0.461   3.502   5.686
 7185TIP3    H121498   0.404   3.527   5.762
 7185TIP3    H221499   0.457   3.585   5.631
 7186TIP3   OH221500   0.338   3.392   5.196
 7186TIP3    H121501   0.245   3.366   5.211
 7186TIP3    H221502   0.353   3.356   5.105
 7187TIP3   OH221503   0.836   3.476   4.925
 7187TIP3    H121504   0.782   3.547   4.883
 7187TIP3    H221505   0.887   3.443   4.850
 7188TIP3   OH221506   1.008   3.751   6.005
 7188TIP3    H121507   0.984   3.680   6.069
 7188TIP3    H221508   1.101   3.766   6.030
 7189TIP3   OH221509   0.991   3.502   5.160
 7189TIP3    H121510   0.925   3.530   5.093
 7189TIP3    H221511   1.025   3.422   5.115
 7190TIP3   OH221512   0.288   3.521   5.899
 7190TIP3    H121513   0.289   3.596   5.959
 7190TIP3    H221514   0.278   3.445   5.959
 7191TIP3   OH221515  -0.100   3.089   5.448
 7191TIP3    H121516  -0.029   3.092   5.515
 7191TIP3    H221517  -0.084   3.004   5.403
 7192TIP3   OH221518  -0.139   3.092   5.023
 7192TIP3    H121519  -0.111   3.105   4.929
 7192TIP3    H221520  -0.142   3.185   5.052
 7193TIP3   OH221521   1.002   3.750   5.580
 7193TIP3    H121522   1.035   3.678   5.521
 7193TIP3    H221523   0.970   3.696   5.655
 7194TIP3   OH221524   0.679   3.208   5.252
 7194TIP3    H121525   0.596   3.210   5.304
 7194TIP3    H221526   0.746   3.207   5.323
 7195TIP3   OH221527   0.102   3.256   5.261
 7195TIP3    H121528   0.015   3.219   5.281
 7195TIP3    H221529   0.154   3.175   5.246
 7196TIP3   OH221530   0.374   3.275   4.952
 7196TIP3    H121531   0.468   3.278   4.928
 7196TIP3    H221532   0.329   3.296   4.867
 7197TIP3   OH221533   1.161   3.288   5.453
 7197TIP3    H121534   1.136   3.301   5.547
 7197TIP3    H221535   1.088   3.229   5.425
 7198TIP3   OH221536   0.229   3.292   4.721
 7198TIP3    H121537   0.144   3.272   4.678
 7198TIP3    H221538   0.288   3.237   4.666
 7199TIP3   OH221539   1.337   4.978   5.680
 7199TIP3    H121540   1.334   5.006   5.587
 7199TIP3    H221541   1.417   5.025   5.712
 7200TIP3   OH221542   0.289   4.077   6.121
 7200TIP3    H121543   0.365   4.108   6.173
 7200TIP3    H221544   0.217   4.129   6.161
 7201TIP3   OH221545   0.751   3.546   5.356
 7201TIP3    H121546   0.824   3.499   5.315
 7201TIP3    H221547   0.748   3.505   5.446
 7202TIP3   OH221548   0.265   3.034   5.230
 7202TIP3    H121549   0.235   2.953   5.277
 7202TIP3    H221550   0.288   2.999   5.143
 7203TIP3   OH221551   0.728   3.449   5.634
 7203TIP3    H121552   0.637   3.479   5.654
 7203TIP3    H221553   0.783   3.509   5.689
 7204TIP3   OH221554   0.470   3.825   4.733
 7204TIP3    H121555   0.398   3.760   4.722
 7204TIP3    H221556   0.450   3.860   4.823
 7205TIP3   OH221557   1.362   4.065   5.363
 7205TIP3    H121558   1.384   4.117   5.283
 7205TIP3    H221559   1.277   4.022   5.338
 7206TIP3   OH221560   0.887   3.147   4.592
 7206TIP3    H121561   0.790   3.160   4.596
 7206TIP3    H221562   0.922   3.234   4.620
 7207TIP3   OH221563   0.865   4.150   5.735
 7207TIP3    H121564   0.895   4.129   5.824
 7207TIP3    H221565   0.827   4.239   5.744
 7208TIP3   OH221566   0.993   3.380   4.697
 7208TIP3    H121567   1.089   3.390   4.717
 7208TIP3    H221568   0.973   3.463   4.650
 7209TIP3   OH221569   0.161   3.841   5.416
 7209TIP3    H121570   0.211   3.795   5.346
 7209TIP3    H221571   0.174   3.783   5.495
 7210TIP3   OH221572   0.606   3.981   4.549
 7210TIP3    H121573   0.560   4.068   4.556
 7210TIP3    H221574   0.556   3.928   4.615
 7211TIP3   OH221575   0.767   3.889   6.049
 7211TIP3    H121576   0.702   3.830   6.007
 7211TIP3    H221577   0.851   3.851   6.016
 7212TIP3   OH221578   1.023   4.408   5.631
 7212TIP3    H121579   0.927   4.407   5.645
 7212TIP3    H221580   1.052   4.460   5.709
 7213TIP3   OH221581   1.430   3.485   4.540
 7213TIP3    H121582   1.369   3.440   4.477
 7213TIP3    H221583   1.428   3.574   4.499
 7214TIP3   OH221584   1.653   4.339   5.620
 7214TIP3    H121585   1.556   4.334   5.612
 7214TIP3    H221586   1.679   4.310   5.530
 7215TIP3   OH221587   1.134   4.301   4.450
 7215TIP3    H121588   1.109   4.232   4.513
 7215TIP3    H221589   1.152   4.253   4.367
 7216TIP3   OH221590   1.130   3.930   5.276
 7216TIP3    H121591   1.037   3.905   5.293
 7216TIP3    H221592   1.162   3.848   5.234
 7217TIP3   OH221593   0.260   4.154   5.029
 7217TIP3    H121594   0.248   4.237   4.978
 7217TIP3    H221595   0.184   4.156   5.088
 7218TIP3   OH221596  -0.169   3.468   4.755
 7218TIP3    H121597  -0.114   3.546   4.775
 7218TIP3    H221598  -0.258   3.505   4.764
 7219TIP3   OH221599   0.392   3.918   4.973
 7219TIP3    H121600   0.356   4.007   4.993
 7219TIP3    H221601   0.360   3.868   5.050
 7220TIP3   OH221602   0.539   4.503   5.508
 7220TIP3    H121603   0.584   4.572   5.455
 7220TIP3    H221604   0.615   4.463   5.554
 7221TIP3   OH221605   0.176   4.399   4.894
 7221TIP3    H121606   0.097   4.425   4.942
 7221TIP3    H221607   0.223   4.485   4.891
 7222TIP3   OH221608   0.914   4.134   5.468
 7222TIP3    H121609   0.901   4.135   5.566
 7222TIP3    H221610   0.995   4.082   5.460
 7223TIP3   OH221611   0.882   4.017   4.358
 7223TIP3    H121612   0.949   3.990   4.426
 7223TIP3    H221613   0.804   4.026   4.415
 7224TIP3   OH221614   1.166   4.662   5.514
 7224TIP3    H121615   1.084   4.608   5.510
 7224TIP3    H221616   1.147   4.728   5.443
 7225TIP3   OH221617   1.230   4.499   4.167
 7225TIP3    H121618   1.269   4.573   4.117
 7225TIP3    H221619   1.150   4.544   4.203
 7226TIP3   OH221620   0.261   3.264   6.052
 7226TIP3    H121621   0.169   3.250   6.078
 7226TIP3    H221622   0.307   3.212   6.121
 7227TIP3   OH221623   1.057   3.954   4.558
 7227TIP3    H121624   1.046   3.893   4.634
 7227TIP3    H221625   1.154   3.954   4.550
 7228TIP3   OH221626   0.255   4.033   4.345
 7228TIP3    H121627   0.253   3.944   4.308
 7228TIP3    H221628   0.238   4.016   4.440
 7229TIP3   OH221629   0.213   4.011   4.619
 7229TIP3    H121630   0.275   3.987   4.689
 7229TIP3    H221631   0.213   4.110   4.627
 7230TIP3   OH221632  -0.048   3.700   4.833
 7230TIP3    H121633  -0.105   3.746   4.895
 7230TIP3    H221634  -0.036   3.770   4.765
 7231TIP3   OH221635   1.098   3.335   5.714
 7231TIP3    H121636   1.171   3.378   5.760
 7231TIP3    H221637   1.080   3.256   5.770
 7232TIP3   OH221638   1.001   3.079   4.876
 7232TIP3    H121639   0.954   3.117   4.800
 7232TIP3    H221640   1.032   3.160   4.923
 7233TIP3   OH221641   0.472   4.214   4.566
 7233TIP3    H121642   0.384   4.233   4.605
 7233TIP3    H221643   0.486   4.296   4.516
 7234TIP3   OH221644   0.658   3.267   4.980
 7234TIP3    H121645   0.718   3.344   4.968
 7234TIP3    H221646   0.659   3.256   5.077
 7235TIP3   OH221647   0.929   3.590   5.788
 7235TIP3    H121648   0.949   3.645   5.867
 7235TIP3    H221649   0.978   3.509   5.806
 7236TIP3   OH221650   0.803   2.997   5.093
 7236TIP3    H121651   0.787   3.076   5.149
 7236TIP3    H221652   0.868   3.032   5.029
 7237TIP3   OH221653   0.215   4.281   4.643
 7237TIP3    H121654   0.188   4.349   4.578
 7237TIP3    H221655   0.197   4.328   4.728
 7238TIP3   OH221656   0.306   2.985   4.907
 7238TIP3    H121657   0.309   3.082   4.909
 7238TIP3    H221658   0.402   2.967   4.902
 7239TIP3   OH221659   1.563   3.490   5.771
 7239TIP3    H121660   1.465   3.493   5.782
 7239TIP3    H221661   1.570   3.436   5.691
 7240TIP3   OH221662   1.217   3.684   5.158
 7240TIP3    H121663   1.138   3.628   5.174
 7240TIP3    H221664   1.286   3.637   5.210
 7241TIP3   OH221665  -0.066   3.921   4.671
 7241TIP3    H121666   0.007   3.984   4.656
 7241TIP3    H221667  -0.058   3.868   4.589
 7242TIP3   OH221668  -0.145   3.193   4.769
 7242TIP3    H121669  -0.146   3.291   4.767
 7242TIP3    H221670  -0.161   3.171   4.676
 7243TIP3   OH221671   1.187   4.643   5.106
 7243TIP3    H121672   1.144   4.690   5.031
 7243TIP3    H221673   1.281   4.661   5.086
 7244TIP3   OH221674   0.265   2.907   5.633
 7244TIP3    H121675   0.235   2.870   5.547
 7244TIP3    H221676   0.256   2.829   5.693
 7245TIP3   OH221677   0.421   4.632   6.138
 7245TIP3    H121678   0.517   4.638   6.145
 7245TIP3    H221679   0.409   4.564   6.069
 7246TIP3   OH221680   0.424   4.223   4.249
 7246TIP3    H121681   0.369   4.153   4.291
 7246TIP3    H221682   0.495   4.171   4.206
 7247TIP3   OH221683   1.079   4.540   5.865
 7247TIP3    H121684   1.072   4.472   5.936
 7247TIP3    H221685   1.155   4.593   5.896
 7248TIP3   OH221686   0.853   4.244   4.169
 7248TIP3    H121687   0.909   4.192   4.229
 7248TIP3    H221688   0.905   4.246   4.087
 7249TIP3   OH221689   0.056   3.731   4.493
 7249TIP3    H121690   0.121   3.707   4.562
 7249TIP3    H221691   0.104   3.715   4.412
 7250TIP3   OH221692   0.691   4.165   6.064
 7250TIP3    H121693   0.653   4.182   5.976
 7250TIP3    H221694   0.724   4.073   6.055
 7251TIP3   OH221695   0.566   3.864   4.303
 7251TIP3    H121696   0.560   3.914   4.387
 7251TIP3    H221697   0.661   3.841   4.302
 7252TIP3   OH221698   1.186   4.177   5.670
 7252TIP3    H121699   1.263   4.221   5.628
 7252TIP3    H221700   1.117   4.244   5.655
 7253TIP3   OH221701   0.211   3.801   6.291
 7253TIP3    H121702   0.279   3.770   6.229
 7253TIP3    H221703   0.264   3.847   6.359
 7254TIP3   OH221704   0.270   3.628   4.699
 7254TIP3    H121705   0.246   3.601   4.790
 7254TIP3    H221706   0.289   3.542   4.657
 7255TIP3   OH221707   0.547   3.706   5.942
 7255TIP3    H121708   0.463   3.756   5.935
 7255TIP3    H221709   0.594   3.737   5.860
 7256TIP3   OH221710   0.375   3.436   4.505
 7256TIP3    H121711   0.336   3.349   4.488
 7256TIP3    H221712   0.453   3.405   4.556
 7257TIP3   OH221713   1.060   4.099   6.065
 7257TIP3    H121714   1.138   4.066   6.020
 7257TIP3    H221715   1.052   4.035   6.139
 7258TIP3   OH221716   1.190   3.751   4.215
 7258TIP3    H121717   1.174   3.710   4.128
 7258TIP3    H221718   1.158   3.842   4.195
 7259TIP3   OH221719   0.671   3.491   6.056
 7259TIP3    H121720   0.667   3.411   6.000
 7259TIP3    H221721   0.623   3.557   6.001
 7260TIP3   OH221722   0.670   3.274   5.865
 7260TIP3    H121723   0.696   3.315   5.781
 7260TIP3    H221724   0.576   3.251   5.849
 7261TIP3   OH221725   0.693   3.811   5.743
 7261TIP3    H121726   0.775   3.821   5.694
 7261TIP3    H221727   0.632   3.870   5.693
 7262TIP3   OH221728   1.272   3.771   6.116
 7262TIP3    H121729   1.321   3.689   6.135
 7262TIP3    H221730   1.343   3.829   6.084
 7263TIP3   OH221731   1.316   4.026   5.853
 7263TIP3    H121732   1.258   4.082   5.796
 7263TIP3    H221733   1.404   4.048   5.814
 7264TIP3   OH221734   0.549   3.604   6.292
 7264TIP3    H121735   0.489   3.527   6.303
 7264TIP3    H221736   0.581   3.590   6.200
 7265TIP3   OH221737   0.800   3.034   5.935
 7265TIP3    H121738   0.750   3.115   5.913
 7265TIP3    H221739   0.731   2.965   5.926
 7266TIP3   OH221740   0.928   3.535   6.151
 7266TIP3    H121741   0.911   3.519   6.245
 7266TIP3    H221742   0.839   3.514   6.115
 7267TIP3   OH221743   1.163   3.484   6.004
 7267TIP3    H121744   1.089   3.487   6.068
 7267TIP3    H221745   1.238   3.456   6.061
 7268TIP3   OH221746   1.396   3.431   6.153
 7268TIP3    H121747   1.409   3.335   6.169
 7268TIP3    H221748   1.390   3.467   6.244
 7269TIP3   OH221749   0.408   3.377   6.345
 7269TIP3    H121750   0.397   3.285   6.312
 7269TIP3    H221751   0.440   3.359   6.435
 7270TIP3   OH221752   0.894   3.045   6.194
 7270TIP3    H121753   0.959   2.973   6.189
 7270TIP3    H221754   0.854   3.039   6.105
 7271TIP3   OH221755   0.963   3.259   6.351
 7271TIP3    H121756   0.941   3.187   6.288
 7271TIP3    H221757   0.883   3.316   6.345
 7272TIP3   OH221758   0.186   4.473   4.450
 7272TIP3    H121759   0.281   4.479   4.429
 7272TIP3    H221760   0.151   4.534   4.383
 7273TIP3   OH221761   1.447   4.719   5.072
 7273TIP3    H121762   1.464   4.756   5.161
 7273TIP3    H221763   1.501   4.776   5.016
 7274TIP3   OH221764   1.467   4.751   5.351
 7274TIP3    H121765   1.424   4.663   5.350
 7274TIP3    H221766   1.540   4.732   5.412
 7275TIP3   OH221767   1.516   4.429   5.924
 7275TIP3    H121768   1.444   4.439   5.990
 7275TIP3    H221769   1.559   4.517   5.928
 7276TIP3   OH221770   1.335   3.941   4.543
 7276TIP3    H121771   1.399   4.007   4.510
 7276TIP3    H221772   1.382   3.906   4.622
 7277TIP3   OH221773   1.464   3.812   4.755
 7277TIP3    H121774   1.390   3.765   4.801
 7277TIP3    H221775   1.504   3.861   4.828
 7278TIP3   OH221776   1.521   4.202   5.179
 7278TIP3    H121777   1.572   4.138   5.126
 7278TIP3    H221778   1.514   4.279   5.118
 7279TIP3   OH221779   1.342   4.501   5.371
 7279TIP3    H121780   1.272   4.545   5.424
 7279TIP3    H221781   1.290   4.457   5.300
 7280TIP3   OH221782   1.397   3.718   4.392
 7280TIP3    H121783   1.325   3.717   4.325
 7280TIP3    H221784   1.368   3.795   4.445
 7281TIP3   OH221785   1.266   3.392   4.345
 7281TIP3    H121786   1.224   3.428   4.267
 7281TIP3    H221787   1.241   3.297   4.338
 7282TIP3   OH221788   1.273   3.669   4.890
 7282TIP3    H121789   1.279   3.572   4.883
 7282TIP3    H221790   1.256   3.682   4.986
 7283TIP3   OH221791   1.563   4.092   5.750
 7283TIP3    H121792   1.634   4.025   5.737
 7283TIP3    H221793   1.590   4.163   5.689
 7284TIP3   OH221794   1.746   3.891   5.751
 7284TIP3    H121795   1.671   3.844   5.794
 7284TIP3    H221796   1.819   3.828   5.771
 7285TIP3   OH221797   1.205   3.125   4.338
 7285TIP3    H121798   1.289   3.099   4.381
 7285TIP3    H221799   1.146   3.050   4.358
 7286TIP3   OH221800   1.270   3.384   4.782
 7286TIP3    H121801   1.310   3.296   4.796
 7286TIP3    H221802   1.327   3.418   4.711
 7287TIP3   OH221803   1.427   3.550   5.282
 7287TIP3    H121804   1.512   3.574   5.240
 7287TIP3    H221805   1.441   3.589   5.370
 7288TIP3   OH221806   1.499   3.700   5.509
 7288TIP3    H121807   1.424   3.732   5.562
 7288TIP3    H221808   1.531   3.783   5.468
 7289TIP3   OH221809   0.132   3.334   6.413
 7289TIP3    H121810   0.202   3.375   6.358
 7289TIP3    H221811   0.053   3.385   6.383
 7290TIP3   OH221812   1.952   3.296   6.067
 7290TIP3    H121813   2.013   3.231   6.025
 7290TIP3    H221814   1.921   3.347   5.988
 7291TIP3   OH221815   1.376   3.132   4.820
 7291TIP3    H121816   1.424   3.119   4.905
 7291TIP3    H221817   1.325   3.051   4.814
 7292TIP3   OH221818   0.090   3.118   5.649
 7292TIP3    H121819   0.152   3.042   5.654
 7292TIP3    H221820   0.153   3.191   5.632
 7293TIP3   OH221821   1.820   3.429   5.869
 7293TIP3    H121822   1.735   3.472   5.894
 7293TIP3    H221823   1.785   3.356   5.814
 7294TIP3   OH221824   1.453   3.073   4.449
 7294TIP3    H121825   1.496   3.000   4.400
 7294TIP3    H221826   1.524   3.140   4.453
 7295TIP3   OH221827  -0.112   2.906   5.222
 7295TIP3    H121828  -0.202   2.907   5.255
 7295TIP3    H221829  -0.115   2.973   5.151
 7296TIP3   OH221830   1.024   4.597   4.724
 7296TIP3    H121831   1.078   4.592   4.643
 7296TIP3    H221832   1.070   4.668   4.774
 7297TIP3   OH221833   0.080   2.984   6.048
 7297TIP3    H121834   0.042   2.982   6.137
 7297TIP3    H221835   0.017   3.037   5.999
 7298TIP3   OH221836   0.301   4.476   5.654
 7298TIP3    H121837   0.283   4.553   5.597
 7298TIP3    H221838   0.391   4.455   5.623
 7299TIP3   OH221839   0.744   4.678   5.791
 7299TIP3    H121840   0.784   4.677   5.880
 7299TIP3    H221841   0.810   4.732   5.742
 7300TIP3   OH221842   0.924   4.835   5.656
 7300TIP3    H121843   0.996   4.784   5.617
 7300TIP3    H221844   0.975   4.893   5.718
 7301TIP3   OH221845   1.721   3.190   5.752
 7301TIP3    H121846   1.630   3.175   5.721
 7301TIP3    H221847   1.757   3.098   5.745
 7302TIP3   OH221848   0.213   4.703   5.517
 7302TIP3    H121849   0.189   4.795   5.543
 7302TIP3    H221850   0.161   4.692   5.435
 7303TIP3   OH221851   0.643   4.697   5.340
 7303TIP3    H121852   0.594   4.719   5.260
 7303TIP3    H221853   0.657   4.786   5.381
 7304TIP3   OH221854   0.911   4.635   5.389
 7304TIP3    H121855   0.817   4.655   5.372
 7304TIP3    H221856   0.956   4.710   5.347
 7305TIP3   OH221857   1.111   4.826   5.301
 7305TIP3    H121858   1.100   4.912   5.254
 7305TIP3    H221859   1.139   4.768   5.227
 7306TIP3   OH221860   0.090   4.362   5.270
 7306TIP3    H121861   0.097   4.271   5.307
 7306TIP3    H221862   0.183   4.392   5.276
 7307TIP3   OH221863   0.366   4.457   5.292
 7307TIP3    H121864   0.390   4.363   5.279
 7307TIP3    H221865   0.419   4.473   5.373
 7308TIP3   OH221866   0.927   3.108   5.378
 7308TIP3    H121867   0.882   3.038   5.430
 7308TIP3    H221868   1.000   3.059   5.335
 7309TIP3   OH221869   1.444   2.982   5.267
 7309TIP3    H121870   1.480   3.040   5.197
 7309TIP3    H221871   1.350   3.010   5.270
 7310TIP3   OH221872   1.541   3.088   5.034
 7310TIP3    H121873   1.619   3.037   5.003
 7310TIP3    H221874   1.575   3.180   5.022
 7311TIP3   OH221875   0.170   2.815   5.387
 7311TIP3    H121876   0.077   2.785   5.387
 7311TIP3    H221877   0.217   2.728   5.384
 7312TIP3   OH221878  -0.009   2.684   5.047
 7312TIP3    H121879   0.009   2.741   4.970
 7312TIP3    H221880  -0.053   2.746   5.108
 7313TIP3   OH221881   0.627   2.843   5.274
 7313TIP3    H121882   0.677   2.899   5.213
 7313TIP3    H221883   0.649   2.883   5.360
 7314TIP3   OH221884   1.161   2.996   5.253
 7314TIP3    H121885   1.158   2.951   5.168
 7314TIP3    H221886   1.151   2.920   5.315
 7315TIP3   OH221887   1.181   2.880   4.774
 7315TIP3    H121888   1.119   2.954   4.792
 7315TIP3    H221889   1.163   2.824   4.852
 7316TIP3   OH221890   0.085   2.845   4.807
 7316TIP3    H121891   0.131   2.782   4.748
 7316TIP3    H221892   0.161   2.895   4.845
 7317TIP3   OH221893   0.583   2.999   4.920
 7317TIP3    H121894   0.652   2.980   4.987
 7317TIP3    H221895   0.604   3.093   4.902
 7318TIP3   OH221896   0.456   4.446   4.402
 7318TIP3    H121897   0.543   4.471   4.363
 7318TIP3    H221898   0.433   4.373   4.340
 7319TIP3   OH221899   1.172   4.568   4.492
 7319TIP3    H121900   1.162   4.471   4.481
 7319TIP3    H221901   1.124   4.600   4.413
 7320TIP3   OH221902   0.381   3.104   6.272
 7320TIP3    H121903   0.343   3.032   6.327
 7320TIP3    H221904   0.473   3.101   6.304
 7321TIP3   OH221905   0.630   3.098   6.400
 7321TIP3    H121906   0.715   3.071   6.362
 7321TIP3    H221907   0.616   3.026   6.466
 7322TIP3   OH221908   1.459   3.160   6.185
 7322TIP3    H121909   1.475   3.129   6.277
 7322TIP3    H221910   1.548   3.153   6.146
 7323TIP3   OH221911   1.394   4.709   5.675
 7323TIP3    H121912   1.314   4.680   5.626
 7323TIP3    H221913   1.375   4.804   5.684
 7324TIP3   OH221914   1.993   3.986   5.178
 7324TIP3    H121915   2.005   3.904   5.230
 7324TIP3    H221916   2.029   4.051   5.241
 7325TIP3   OH221917   1.933   4.392   4.906
 7325TIP3    H121918   1.919   4.324   4.972
 7325TIP3    H221919   2.030   4.387   4.889
 7326TIP3   OH221920   1.632   3.593   4.695
 7326TIP3    H121921   1.578   3.672   4.714
 7326TIP3    H221922   1.566   3.538   4.649
 7327TIP3   OH221923   1.726   3.888   4.870
 7327TIP3    H121924   1.764   3.805   4.908
 7327TIP3    H221925   1.721   3.866   4.776
 7328TIP3   OH221926   2.568   4.835   4.518
 7328TIP3    H121927   2.609   4.763   4.466
 7328TIP3    H221928   2.564   4.796   4.606
 7329TIP3   OH221929   3.485   3.617   4.876
 7329TIP3    H121930   3.510   3.703   4.915
 7329TIP3    H221931   3.510   3.628   4.783
 7330TIP3   OH221932   2.191   3.469   4.879
 7330TIP3    H121933   2.187   3.531   4.804
 7330TIP3    H221934   2.154   3.389   4.835
 7331TIP3   OH221935   2.913   3.533   4.485
 7331TIP3    H121936   2.978   3.536   4.558
 7331TIP3    H221937   2.950   3.600   4.425
 7332TIP3   OH221938   1.847   3.670   4.977
 7332TIP3    H121939   1.926   3.643   5.029
 7332TIP3    H221940   1.856   3.610   4.900
 7333TIP3   OH221941   3.548   3.838   5.035
 7333TIP3    H121942   3.460   3.878   5.019
 7333TIP3    H221943   3.557   3.857   5.130
 7334TIP3   OH221944   2.206   3.452   5.305
 7334TIP3    H121945   2.145   3.488   5.238
 7334TIP3    H221946   2.154   3.468   5.387
 7335TIP3   OH221947   2.489   4.292   4.325
 7335TIP3    H121948   2.572   4.292   4.274
 7335TIP3    H221949   2.475   4.387   4.342
 7336TIP3   OH221950   2.299   4.223   5.107
 7336TIP3    H121951   2.235   4.286   5.146
 7336TIP3    H221952   2.340   4.278   5.039
 7337TIP3   OH221953   3.105   3.560   4.682
 7337TIP3    H121954   3.080   3.539   4.773
 7337TIP3    H221955   3.157   3.642   4.696
 7338TIP3   OH221956   2.074   3.573   5.096
 7338TIP3    H121957   2.137   3.647   5.113
 7338TIP3    H221958   2.120   3.529   5.020
 7339TIP3   OH221959   2.135   4.426   5.191
 7339TIP3    H121960   2.116   4.518   5.161
 7339TIP3    H221961   2.058   4.413   5.251
 7340TIP3   OH221962   1.531   4.112   4.432
 7340TIP3    H121963   1.493   4.137   4.345
 7340TIP3    H221964   1.561   4.200   4.465
 7341TIP3   OH221965   2.986   4.630   4.708
 7341TIP3    H121966   2.889   4.621   4.722
 7341TIP3    H221967   2.986   4.701   4.641
 7342TIP3   OH221968   3.268   3.524   5.039
 7342TIP3    H121969   3.179   3.539   5.003
 7342TIP3    H221970   3.325   3.555   4.965
 7343TIP3   OH221971   2.557   3.162   5.024
 7343TIP3    H121972   2.541   3.068   5.047
 7343TIP3    H221973   2.481   3.205   5.069
 7344TIP3   OH221974   2.689   4.650   4.333
 7344TIP3    H121975   2.755   4.579   4.321
 7344TIP3    H221976   2.743   4.725   4.296
 7345TIP3   OH221977   2.467   3.912   4.254
 7345TIP3    H121978   2.418   3.996   4.248
 7345TIP3    H221979   2.540   3.927   4.191
 7346TIP3   OH221980   2.445   3.720   3.985
 7346TIP3    H121981   2.503   3.771   4.045
 7346TIP3    H221982   2.511   3.663   3.941
 7347TIP3   OH221983   3.391   4.174   4.858
 7347TIP3    H121984   3.316   4.237   4.863
 7347TIP3    H221985   3.399   4.165   4.762
 7348TIP3   OH221986   2.815   4.003   4.273
 7348TIP3    H121987   2.812   4.101   4.276
 7348TIP3    H221988   2.841   3.981   4.364
 7349TIP3   OH221989   3.068   4.053   5.151
 7349TIP3    H121990   3.037   4.088   5.236
 7349TIP3    H221991   2.985   4.029   5.107
 7350TIP3   OH221992   2.188   4.365   4.801
 7350TIP3    H121993   2.164   4.387   4.707
 7350TIP3    H221994   2.281   4.394   4.804
 7351TIP3   OH221995   2.722   4.625   4.787
 7351TIP3    H121996   2.718   4.710   4.836
 7351TIP3    H221997   2.721   4.558   4.859
 7352TIP3   OH221998   2.346   4.535   5.342
 7352TIP3    H121999   2.288   4.599   5.390
 7352TIP3    H222000   2.279   4.486   5.291
 7353TIP3   OH222001   2.678   3.874   4.073
 7353TIP3    H122002   2.736   3.930   4.130
 7353TIP3    H222003   2.708   3.898   3.983
 7354TIP3   OH222004   2.089   4.105   5.427
 7354TIP3    H122005   2.101   4.190   5.475
 7354TIP3    H222006   2.002   4.078   5.464
 7355TIP3   OH222007   2.417   4.577   4.361
 7355TIP3    H122008   2.510   4.608   4.352
 7355TIP3    H222009   2.369   4.638   4.302
 7356TIP3   OH222010   2.142   4.701   5.430
 7356TIP3    H122011   2.104   4.712   5.342
 7356TIP3    H222012   2.062   4.682   5.485
 7357TIP3   OH222013   3.194   3.113   4.122
 7357TIP3    H122014   3.116   3.141   4.173
 7357TIP3    H222015   3.213   3.195   4.070
 7358TIP3   OH222016   1.923   3.872   4.501
 7358TIP3    H122017   1.865   3.910   4.432
 7358TIP3    H222018   1.910   3.777   4.487
 7359TIP3   OH222019   2.996   4.477   3.670
 7359TIP3    H122020   3.003   4.574   3.660
 7359TIP3    H222021   3.090   4.450   3.657
 7360TIP3   OH222022   1.719   4.239   5.377
 7360TIP3    H122023   1.647   4.220   5.313
 7360TIP3    H222024   1.751   4.150   5.401
 7361TIP3   OH222025   1.573   4.438   5.013
 7361TIP3    H122026   1.668   4.459   5.014
 7361TIP3    H222027   1.537   4.515   5.059
 7362TIP3   OH222028   3.441   4.898   5.058
 7362TIP3    H122029   3.405   4.825   5.004
 7362TIP3    H222030   3.361   4.922   5.111
 7363TIP3   OH222031   2.543   4.666   5.199
 7363TIP3    H122032   2.542   4.759   5.230
 7363TIP3    H222033   2.472   4.627   5.255
 7364TIP3   OH222034   2.309   4.792   4.157
 7364TIP3    H122035   2.265   4.776   4.071
 7364TIP3    H222036   2.276   4.881   4.180
 7365TIP3   OH222037   1.742   4.648   4.535
 7365TIP3    H122038   1.789   4.642   4.621
 7365TIP3    H222039   1.685   4.569   4.539
 7366TIP3   OH222040   2.505   4.700   3.788
 7366TIP3    H122041   2.564   4.630   3.752
 7366TIP3    H222042   2.543   4.712   3.878
 7367TIP3   OH222043   2.559   4.751   4.056
 7367TIP3    H122044   2.473   4.758   4.102
 7367TIP3    H222045   2.616   4.714   4.126
 7368TIP3   OH222046   1.922   4.422   5.357
 7368TIP3    H122047   1.969   4.413   5.443
 7368TIP3    H222048   1.847   4.360   5.369
 7369TIP3   OH222049   2.321   3.244   5.152
 7369TIP3    H122050   2.231   3.216   5.124
 7369TIP3    H222051   2.299   3.327   5.198
 7370TIP3   OH222052   2.860   3.363   5.341
 7370TIP3    H122053   2.930   3.337   5.404
 7370TIP3    H222054   2.778   3.343   5.391
 7371TIP3   OH222055   3.099   3.784   5.262
 7371TIP3    H122056   3.050   3.783   5.347
 7371TIP3    H222057   3.102   3.878   5.240
 7372TIP3   OH222058   2.754   3.917   3.816
 7372TIP3    H122059   2.720   3.896   3.726
 7372TIP3    H222060   2.841   3.956   3.793
 7373TIP3   OH222061   2.466   3.298   4.122
 7373TIP3    H122062   2.435   3.287   4.214
 7373TIP3    H222063   2.422   3.221   4.080
 7374TIP3   OH222064   2.243   3.791   5.158
 7374TIP3    H122065   2.199   3.780   5.245
 7374TIP3    H222066   2.263   3.885   5.161
 7375TIP3   OH222067   2.122   3.623   4.666
 7375TIP3    H122068   2.033   3.590   4.689
 7375TIP3    H222069   2.135   3.582   4.578
 7376TIP3   OH222070   2.606   3.714   4.387
 7376TIP3    H122071   2.566   3.797   4.353
 7376TIP3    H222072   2.684   3.704   4.330
 7377TIP3   OH222073   2.808   4.010   5.490
 7377TIP3    H122074   2.783   3.936   5.549
 7377TIP3    H222075   2.901   4.024   5.520
 7378TIP3   OH222076   2.071   3.783   5.373
 7378TIP3    H122077   2.105   3.844   5.440
 7378TIP3    H222078   2.057   3.702   5.426
 7379TIP3   OH222079   2.125   3.269   4.087
 7379TIP3    H122080   2.111   3.269   4.184
 7379TIP3    H222081   2.048   3.321   4.057
 7380TIP3   OH222082   1.670   3.310   4.954
 7380TIP3    H122083   1.741   3.344   5.012
 7380TIP3    H222084   1.719   3.279   4.876
 7381TIP3   OH222085   1.632   3.295   4.479
 7381TIP3    H122086   1.675   3.331   4.398
 7381TIP3    H222087   1.568   3.367   4.496
 7382TIP3   OH222088   1.888   3.516   4.754
 7382TIP3    H122089   1.795   3.527   4.723
 7382TIP3    H222090   1.910   3.424   4.731
 7383TIP3   OH222091   2.163   3.510   4.426
 7383TIP3    H122092   2.257   3.530   4.408
 7383TIP3    H222093   2.117   3.538   4.343
 7384TIP3   OH222094   2.988   3.534   4.949
 7384TIP3    H122095   2.945   3.564   5.032
 7384TIP3    H222096   2.913   3.501   4.900
 7385TIP3   OH222097   2.012   3.563   4.209
 7385TIP3    H122098   1.947   3.513   4.155
 7385TIP3    H222099   2.067   3.602   4.137
 7386TIP3   OH222100   3.136   5.231   5.167
 7386TIP3    H122101   3.131   5.257   5.073
 7386TIP3    H222102   3.215   5.280   5.197
 7387TIP3   OH222103   2.089   4.343   5.582
 7387TIP3    H122104   2.168   4.373   5.631
 7387TIP3    H222105   2.023   4.343   5.654
 7388TIP3   OH222106   2.061   3.282   4.721
 7388TIP3    H122107   2.028   3.205   4.773
 7388TIP3    H222108   2.111   3.239   4.650
 7389TIP3   OH222109   2.516   3.684   5.158
 7389TIP3    H122110   2.436   3.737   5.143
 7389TIP3    H222111   2.583   3.750   5.184
 7390TIP3   OH222112   2.246   4.104   4.223
 7390TIP3    H122113   2.186   4.027   4.214
 7390TIP3    H222114   2.252   4.115   4.319
 7391TIP3   OH222115   3.182   4.349   4.850
 7391TIP3    H122116   3.193   4.383   4.759
 7391TIP3    H222117   3.093   4.313   4.845
 7392TIP3   OH222118   2.722   3.393   4.090
 7392TIP3    H122119   2.624   3.382   4.099
 7392TIP3    H222120   2.737   3.487   4.114
 7393TIP3   OH222121   2.672   4.406   5.229
 7393TIP3    H122122   2.687   4.386   5.322
 7393TIP3    H222123   2.630   4.494   5.233
 7394TIP3   OH222124   2.791   3.642   4.184
 7394TIP3    H122125   2.888   3.648   4.202
 7394TIP3    H222126   2.773   3.726   4.138
 7395TIP3   OH222127   2.404   4.234   4.031
 7395TIP3    H122128   2.365   4.323   4.046
 7395TIP3    H222129   2.365   4.187   4.108
 7396TIP3   OH222130   1.838   4.024   5.514
 7396TIP3    H122131   1.855   4.012   5.609
 7396TIP3    H222132   1.767   3.960   5.499
 7397TIP3   OH222133   2.571   4.148   5.530
 7397TIP3    H122134   2.513   4.087   5.483
 7397TIP3    H222135   2.660   4.112   5.507
 7398TIP3   OH222136   2.820   4.665   5.125
 7398TIP3    H122137   2.724   4.670   5.134
 7398TIP3    H222138   2.849   4.720   5.202
 7399TIP3   OH222139   3.226   3.725   4.011
 7399TIP3    H122140   3.158   3.690   3.948
 7399TIP3    H222141   3.229   3.817   3.978
 7400TIP3   OH222142   2.918   4.562   3.948
 7400TIP3    H122143   2.921   4.519   4.035
 7400TIP3    H222144   2.942   4.493   3.884
 7401TIP3   OH222145   2.058   4.421   4.540
 7401TIP3    H122146   2.069   4.495   4.477
 7401TIP3    H222147   1.962   4.412   4.538
 7402TIP3   OH222148   1.624   3.716   4.234
 7402TIP3    H122149   1.669   3.801   4.255
 7402TIP3    H222150   1.546   3.721   4.293
 7403TIP3   OH222151   2.177   4.158   4.502
 7403TIP3    H122152   2.215   4.245   4.482
 7403TIP3    H222153   2.083   4.174   4.488
 7404TIP3   OH222154   2.330   4.751   4.987
 7404TIP3    H122155   2.369   4.827   4.939
 7404TIP3    H222156   2.406   4.722   5.040
 7405TIP3   OH222157   1.977   4.651   4.381
 7405TIP3    H122158   1.890   4.662   4.423
 7405TIP3    H222159   2.010   4.743   4.382
 7406TIP3   OH222160   2.741   4.405   4.964
 7406TIP3    H122161   2.712   4.413   5.058
 7406TIP3    H222162   2.747   4.310   4.953
 7407TIP3   OH222163   2.689   4.285   3.843
 7407TIP3    H122164   2.733   4.273   3.928
 7407TIP3    H222165   2.599   4.255   3.864
 7408TIP3   OH222166   2.960   4.921   4.999
 7408TIP3    H122167   2.877   4.871   4.988
 7408TIP3    H222168   2.950   4.988   4.928
 7409TIP3   OH222169   3.027   4.756   3.654
 7409TIP3    H122170   3.063   4.831   3.605
 7409TIP3    H222171   2.946   4.797   3.691
 7410TIP3   OH222172   2.043   3.535   5.518
 7410TIP3    H122173   1.947   3.537   5.532
 7410TIP3    H222174   2.073   3.482   5.593
 7411TIP3   OH222175   1.770   4.615   5.151
 7411TIP3    H122176   1.821   4.555   5.208
 7411TIP3    H222177   1.780   4.699   5.199
 7412TIP3   OH222178   2.050   4.265   3.838
 7412TIP3    H122179   2.067   4.173   3.811
 7412TIP3    H222180   2.029   4.254   3.933
 7413TIP3   OH222181   1.999   4.267   4.114
 7413TIP3    H122182   2.088   4.241   4.144
 7413TIP3    H222183   2.003   4.365   4.120
 7414TIP3   OH222184   1.732   3.962   4.315
 7414TIP3    H122185   1.664   4.008   4.368
 7414TIP3    H222186   1.746   4.027   4.244
 7415TIP3   OH222187   2.882   3.607   5.202
 7415TIP3    H122188   2.966   3.644   5.235
 7415TIP3    H222189   2.872   3.525   5.255
 7416TIP3   OH222190   2.765   3.336   4.371
 7416TIP3    H122191   2.754   3.365   4.279
 7416TIP3    H222192   2.813   3.413   4.410
 7417TIP3   OH222193   2.265   4.467   4.058
 7417TIP3    H122194   2.177   4.492   4.094
 7417TIP3    H222195   2.282   4.541   3.998
 7418TIP3   OH222196   2.438   3.519   4.448
 7418TIP3    H122197   2.496   3.589   4.408
 7418TIP3    H222198   2.473   3.520   4.537
 7419TIP3   OH222199   2.717   3.848   5.265
 7419TIP3    H122200   2.748   3.894   5.345
 7419TIP3    H222201   2.772   3.767   5.265
 7420TIP3   OH222202   2.601   3.253   4.577
 7420TIP3    H122203   2.642   3.294   4.657
 7420TIP3    H222204   2.659   3.291   4.507
 7421TIP3   OH222205   2.009   4.541   4.128
 7421TIP3    H122206   1.981   4.611   4.065
 7421TIP3    H222207   1.994   4.585   4.214
 7422TIP3   OH222208   2.111   3.249   4.364
 7422TIP3    H122209   2.106   3.342   4.397
 7422TIP3    H222210   2.207   3.234   4.373
 7423TIP3   OH222211   3.367   3.726   5.249
 7423TIP3    H122212   3.276   3.750   5.275
 7423TIP3    H222213   3.347   3.677   5.168
 7424TIP3   OH222214   1.728   4.164   4.117
 7424TIP3    H122215   1.801   4.229   4.126
 7424TIP3    H222216   1.769   4.106   4.050
 7425TIP3   OH222217   1.665   3.444   4.254
 7425TIP3    H122218   1.671   3.542   4.252
 7425TIP3    H222219   1.591   3.428   4.194
 7426TIP3   OH222220   2.985   4.902   4.596
 7426TIP3    H122221   2.941   4.947   4.521
 7426TIP3    H222222   3.079   4.921   4.575
 7427TIP3   OH222223   2.055   3.166   5.122
 7427TIP3    H122224   2.027   3.130   5.035
 7427TIP3    H222225   2.047   3.089   5.181
 7428TIP3   OH222226   1.590   4.377   4.500
 7428TIP3    H122227   1.531   4.411   4.569
 7428TIP3    H222228   1.556   4.424   4.420
 7429TIP3   OH222229   1.759   4.937   5.574
 7429TIP3    H122230   1.843   4.941   5.625
 7429TIP3    H222231   1.740   4.842   5.577
 7430TIP3   OH222232   2.229   4.886   5.622
 7430TIP3    H122233   2.325   4.877   5.629
 7430TIP3    H222234   2.209   4.823   5.550
 7431TIP3   OH222235   2.215   4.466   3.745
 7431TIP3    H122236   2.162   4.393   3.784
 7431TIP3    H222237   2.291   4.417   3.710
 7432TIP3   OH222238   2.882   4.794   5.356
 7432TIP3    H122239   2.873   4.729   5.428
 7432TIP3    H222240   2.956   4.850   5.388
 7433TIP3   OH222241   2.651   4.504   3.659
 7433TIP3    H122242   2.699   4.447   3.722
 7433TIP3    H222243   2.708   4.501   3.580
 7434TIP3   OH222244   1.886   4.335   5.773
 7434TIP3    H122245   1.898   4.240   5.785
 7434TIP3    H222246   1.797   4.338   5.730
 7435TIP3   OH222247   1.862   3.978   3.974
 7435TIP3    H122248   1.923   3.953   4.046
 7435TIP3    H222249   1.927   3.984   3.900
 7436TIP3   OH222250   2.495   4.422   5.549
 7436TIP3    H122251   2.449   4.443   5.465
 7436TIP3    H222252   2.523   4.329   5.537
 7437TIP3   OH222253   2.372   4.178   3.770
 7437TIP3    H122254   2.375   4.194   3.867
 7437TIP3    H222255   2.375   4.080   3.768
 7438TIP3   OH222256   3.005   4.459   5.109
 7438TIP3    H122257   2.973   4.491   5.023
 7438TIP3    H222258   2.930   4.492   5.163
 7439TIP3   OH222259   2.010   4.069   5.757
 7439TIP3    H122260   2.086   4.012   5.740
 7439TIP3    H222261   2.034   4.105   5.846
 7440TIP3   OH222262   2.068   3.888   4.189
 7440TIP3    H122263   2.046   3.835   4.266
 7440TIP3    H222264   2.112   3.822   4.131
 7441TIP3   OH222265   2.321   3.944   5.419
 7441TIP3    H122266   2.251   4.013   5.422
 7441TIP3    H222267   2.382   3.983   5.352
 7442TIP3   OH222268   2.174   3.687   4.030
 7442TIP3    H122269   2.150   3.695   3.935
 7442TIP3    H222270   2.272   3.690   4.023
 7443TIP3   OH222271   2.869   4.352   5.547
 7443TIP3    H122272   2.965   4.363   5.558
 7443TIP3    H222273   2.849   4.287   5.616
 7444TIP3   OH222274   2.986   4.007   3.698
 7444TIP3    H122275   2.967   3.967   3.610
 7444TIP3    H222276   2.956   4.099   3.680
 7445TIP3   OH222277   2.462   3.743   5.545
 7445TIP3    H122278   2.464   3.661   5.491
 7445TIP3    H222279   2.413   3.805   5.486
 7446TIP3   OH222280   2.463   3.521   5.368
 7446TIP3    H122281   2.493   3.568   5.287
 7446TIP3    H222282   2.371   3.499   5.343
 7447TIP3   OH222283   2.473   4.054   5.233
 7447TIP3    H122284   2.557   4.047   5.185
 7447TIP3    H222285   2.422   4.119   5.179
 7448TIP3   OH222286   3.070   4.022   5.606
 7448TIP3    H122287   3.101   3.931   5.615
 7448TIP3    H222288   3.155   4.064   5.576
 7449TIP3   OH222289   3.171   4.319   5.304
 7449TIP3    H122290   3.080   4.287   5.280
 7449TIP3    H222291   3.212   4.236   5.347
 7450TIP3   OH222292   2.339   3.848   5.776
 7450TIP3    H122293   2.272   3.778   5.795
 7450TIP3    H222294   2.374   3.818   5.690
 7451TIP3   OH222295   2.599   3.287   5.424
 7451TIP3    H122296   2.548   3.369   5.405
 7451TIP3    H222297   2.529   3.219   5.413
 7452TIP3   OH222298   2.721   3.797   5.636
 7452TIP3    H122299   2.712   3.781   5.732
 7452TIP3    H222300   2.631   3.771   5.607
 7453TIP3   OH222301   2.954   3.750   5.486
 7453TIP3    H122302   2.879   3.749   5.548
 7453TIP3    H222303   3.026   3.715   5.543
 7454TIP3   OH222304   3.157   3.676   5.645
 7454TIP3    H122305   3.192   3.585   5.655
 7454TIP3    H222306   3.185   3.718   5.729
 7455TIP3   OH222307   2.180   3.627   5.834
 7455TIP3    H122308   2.183   3.535   5.803
 7455TIP3    H222309   2.218   3.617   5.924
 7456TIP3   OH222310   2.688   3.299   5.683
 7456TIP3    H122311   2.756   3.229   5.676
 7456TIP3    H222312   2.650   3.295   5.593
 7457TIP3   OH222313   2.756   3.514   5.841
 7457TIP3    H122314   2.735   3.443   5.777
 7457TIP3    H222315   2.677   3.572   5.834
 7458TIP3   OH222316   1.982   4.743   3.940
 7458TIP3    H122317   2.077   4.734   3.920
 7458TIP3    H222318   1.954   4.796   3.862
 7459TIP3   OH222319   1.459   4.125   4.155
 7459TIP3    H122320   1.553   4.147   4.138
 7459TIP3    H222321   1.452   4.037   4.111
 7460TIP3   OH222322   1.377   4.737   4.570
 7460TIP3    H122323   1.310   4.678   4.529
 7460TIP3    H222324   1.420   4.676   4.633
 7461TIP3   OH222325   1.512   4.580   4.753
 7461TIP3    H122326   1.494   4.515   4.823
 7461TIP3    H222327   1.563   4.646   4.804
 7462TIP3   OH222328   3.238   4.991   4.555
 7462TIP3    H122329   3.265   5.033   4.639
 7462TIP3    H222330   3.306   5.024   4.493
 7463TIP3   OH222331   3.256   5.016   4.837
 7463TIP3    H122332   3.222   4.925   4.841
 7463TIP3    H222333   3.346   5.004   4.871
 7464TIP3   OH222334   3.136   4.202   3.990
 7464TIP3    H122335   3.209   4.267   3.975
 7464TIP3    H222336   3.087   4.242   4.064
 7465TIP3   OH222337   3.157   4.757   4.887
 7465TIP3    H122338   3.080   4.801   4.929
 7465TIP3    H222339   3.111   4.703   4.818
 7466TIP3   OH222340   3.195   3.965   3.871
 7466TIP3    H122341   3.120   3.965   3.807
 7466TIP3    H222342   3.173   4.047   3.920
 7467TIP3   OH222343   3.050   3.645   3.821
 7467TIP3    H122344   3.006   3.677   3.741
 7467TIP3    H222345   3.033   3.549   3.815
 7468TIP3   OH222346   1.713   3.995   5.126
 7468TIP3    H122347   1.708   3.962   5.033
 7468TIP3    H222348   1.810   3.997   5.139
 7469TIP3   OH222349   3.526   4.164   5.243
 7469TIP3    H122350   3.466   4.150   5.320
 7469TIP3    H222351   3.589   4.090   5.258
 7470TIP3   OH222352   3.010   3.376   3.811
 7470TIP3    H122353   3.084   3.350   3.869
 7470TIP3    H222354   2.937   3.319   3.839
 7471TIP3   OH222355   3.061   3.634   4.251
 7471TIP3    H122356   3.104   3.549   4.273
 7471TIP3    H222357   3.126   3.671   4.189
 7472TIP3   OH222358   3.237   3.785   4.773
 7472TIP3    H122359   3.272   3.845   4.706
 7472TIP3    H222360   3.250   3.835   4.856
 7473TIP3   OH222361   3.296   3.954   4.991
 7473TIP3    H122362   3.229   3.988   5.054
 7473TIP3    H222363   3.334   4.037   4.955
 7474TIP3   OH222364   1.914   3.681   5.799
 7474TIP3    H122365   2.012   3.676   5.807
 7474TIP3    H222366   1.889   3.594   5.837
 7475TIP3   OH222367   3.748   3.557   5.553
 7475TIP3    H122368   3.807   3.492   5.508
 7475TIP3    H222369   3.714   3.609   5.477
 7476TIP3   OH222370   3.180   3.389   4.307
 7476TIP3    H122371   3.224   3.377   4.394
 7476TIP3    H222372   3.115   3.316   4.309
 7477TIP3   OH222373   1.872   3.375   5.129
 7477TIP3    H122374   1.932   3.299   5.139
 7477TIP3    H222375   1.936   3.449   5.126
 7478TIP3   OH222376   1.671   3.645   5.200
 7478TIP3    H122377   1.724   3.647   5.118
 7478TIP3    H222378   1.702   3.724   5.246
 7479TIP3   OH222379   3.613   3.690   5.356
 7479TIP3    H122380   3.523   3.730   5.352
 7479TIP3    H222381   3.593   3.611   5.302
 7480TIP3   OH222382   3.251   3.320   3.946
 7480TIP3    H122383   3.293   3.253   3.889
 7480TIP3    H222384   3.317   3.393   3.945
 7481TIP3   OH222385   1.658   3.143   4.700
 7481TIP3    H122386   1.567   3.146   4.732
 7481TIP3    H222387   1.655   3.207   4.625
 7482TIP3   OH222388   2.811   4.860   4.210
 7482TIP3    H122389   2.866   4.843   4.131
 7482TIP3    H222390   2.869   4.918   4.262
 7483TIP3   OH222391   1.881   3.232   5.518
 7483TIP3    H122392   1.830   3.225   5.601
 7483TIP3    H222393   1.813   3.269   5.458
 7484TIP3   OH222394   1.921   4.655   5.592
 7484TIP3    H122395   1.825   4.638   5.582
 7484TIP3    H222396   1.932   4.646   5.687
 7485TIP3   OH222397   2.104   4.694   5.139
 7485TIP3    H122398   2.053   4.770   5.103
 7485TIP3    H222399   2.189   4.712   5.095
 7486TIP3   OH222400   2.539   4.932   5.276
 7486TIP3    H122401   2.579   4.933   5.366
 7486TIP3    H222402   2.604   4.988   5.227
 7487TIP3   OH222403   2.719   5.092   5.145
 7487TIP3    H122404   2.791   5.046   5.099
 7487TIP3    H222405   2.771   5.149   5.205
 7488TIP3   OH222406   3.522   3.448   5.242
 7488TIP3    H122407   3.432   3.448   5.204
 7488TIP3    H222408   3.549   3.354   5.230
 7489TIP3   OH222409   1.773   4.944   5.174
 7489TIP3    H122410   1.682   4.974   5.151
 7489TIP3    H222411   1.792   5.003   5.249
 7490TIP3   OH222412   2.009   4.925   5.027
 7490TIP3    H122413   1.922   4.938   5.071
 7490TIP3    H222414   1.991   4.961   4.938
 7491TIP3   OH222415   2.434   4.953   4.827
 7491TIP3    H122416   2.368   4.975   4.759
 7491TIP3    H222417   2.448   5.040   4.869
 7492TIP3   OH222418   2.706   4.890   4.877
 7492TIP3    H122419   2.613   4.913   4.859
 7492TIP3    H222420   2.753   4.962   4.831
 7493TIP3   OH222421   2.904   5.083   4.787
 7493TIP3    H122422   2.895   5.169   4.740
 7493TIP3    H222423   2.937   5.025   4.715
 7494TIP3   OH222424   1.684   4.743   4.909
 7494TIP3    H122425   1.711   4.716   4.999
 7494TIP3    H222426   1.758   4.703   4.857
 7495TIP3   OH222427   1.880   4.621   4.768
 7495TIP3    H122428   1.896   4.537   4.817
 7495TIP3    H222429   1.970   4.660   4.769
 7496TIP3   OH222430   2.142   4.718   4.778
 7496TIP3    H122431   2.199   4.654   4.735
 7496TIP3    H222432   2.191   4.736   4.860
 7497TIP3   OH222433   2.702   3.334   4.816
 7497TIP3    H122434   2.675   3.286   4.896
 7497TIP3    H222435   2.798   3.311   4.808
 7498TIP3   OH222436   3.240   3.240   4.758
 7498TIP3    H122437   3.279   3.296   4.686
 7498TIP3    H222438   3.150   3.277   4.763
 7499TIP3   OH222439   3.341   3.348   4.528
 7499TIP3    H122440   3.414   3.296   4.488
 7499TIP3    H222441   3.374   3.439   4.513
 7500TIP3   OH222442   1.971   3.070   4.872
 7500TIP3    H122443   1.879   3.036   4.879
 7500TIP3    H222444   2.020   2.984   4.870
 7501TIP3   OH222445   1.762   2.947   4.528
 7501TIP3    H122446   1.787   3.001   4.451
 7501TIP3    H222447   1.733   3.015   4.592
 7502TIP3   OH222448   2.422   3.105   4.756
 7502TIP3    H122449   2.476   3.161   4.698
 7502TIP3    H222450   2.447   3.140   4.843
 7503TIP3   OH222451   2.955   3.252   4.748
 7503TIP3    H122452   2.974   3.222   4.658
 7503TIP3    H222453   2.944   3.167   4.797
 7504TIP3   OH222454   2.989   3.179   4.301
 7504TIP3    H122455   2.906   3.226   4.321
 7504TIP3    H222456   2.973   3.094   4.346
 7505TIP3   OH222457   1.472   4.521   4.303
 7505TIP3    H122458   1.387   4.488   4.270
 7505TIP3    H222459   1.467   4.614   4.274
 7506TIP3   OH222460   1.877   3.097   4.289
 7506TIP3    H122461   1.924   3.038   4.228
 7506TIP3    H222462   1.950   3.152   4.323
 7507TIP3   OH222463   2.391   3.261   4.391
 7507TIP3    H122464   2.458   3.237   4.458
 7507TIP3    H222465   2.399   3.359   4.399
 7508TIP3   OH222466   2.248   4.698   3.887
 7508TIP3    H122467   2.336   4.721   3.850
 7508TIP3    H222468   2.225   4.624   3.826
 7509TIP3   OH222469   2.965   4.827   3.981
 7509TIP3    H122470   2.954   4.729   3.972
 7509TIP3    H222471   2.920   4.857   3.900
 7510TIP3   OH222472   2.177   3.354   5.765
 7510TIP3    H122473   2.141   3.283   5.822
 7510TIP3    H222474   2.271   3.353   5.794
 7511TIP3   OH222475   2.427   3.352   5.885
 7511TIP3    H122476   2.513   3.327   5.846
 7511TIP3    H222477   2.415   3.281   5.952
 7512TIP3   OH222478   1.549   4.534   3.938
 7512TIP3    H122479   1.557   4.558   4.031
 7512TIP3    H222480   1.636   4.491   3.920
 7513TIP3   OH222481   3.256   3.415   5.670
 7513TIP3    H122482   3.275   3.387   5.762
 7513TIP3    H222483   3.346   3.412   5.630
 7514TIP3   OH222484   3.190   4.960   5.158
 7514TIP3    H122485   3.109   4.936   5.109
 7514TIP3    H222486   3.174   5.055   5.171
 7515TIP3   OH222487   4.352   5.110   4.006
 7515TIP3    H122488   4.395   5.028   3.977
 7515TIP3    H222489   4.321   5.088   4.095
 7516TIP3   OH222490   5.272   3.885   4.352
 7516TIP3    H122491   5.295   3.968   4.398
 7516TIP3    H222492   5.323   3.894   4.268
 7517TIP3   OH222493   4.011   3.726   4.358
 7517TIP3    H122494   3.994   3.801   4.297
 7517TIP3    H222495   3.960   3.655   4.313
 7518TIP3   OH222496   4.713   3.792   3.974
 7518TIP3    H122497   4.757   3.814   4.058
 7518TIP3    H222498   4.750   3.857   3.913
 7519TIP3   OH222499   5.334   4.091   4.535
 7519TIP3    H122500   5.254   4.148   4.522
 7519TIP3    H222501   5.372   4.131   4.615
 7520TIP3   OH222502   4.002   3.705   4.797
 7520TIP3    H122503   3.950   3.744   4.723
 7520TIP3    H222504   3.946   3.730   4.873
 7521TIP3   OH222505   4.377   4.584   3.775
 7521TIP3    H122506   4.313   4.526   3.731
 7521TIP3    H222507   4.317   4.655   3.808
 7522TIP3   OH222508   4.901   3.828   4.198
 7522TIP3    H122509   4.911   3.731   4.202
 7522TIP3    H222510   4.985   3.856   4.160
 7523TIP3   OH222511   3.876   3.815   4.582
 7523TIP3    H122512   3.926   3.898   4.595
 7523TIP3    H222513   3.919   3.783   4.499
 7524TIP3   OH222514   3.942   4.669   4.702
 7524TIP3    H122515   3.922   4.728   4.628
 7524TIP3    H222516   3.856   4.671   4.749
 7525TIP3   OH222517   3.335   4.384   3.918
 7525TIP3    H122518   3.295   4.412   3.834
 7525TIP3    H222519   3.369   4.468   3.954
 7526TIP3   OH222520   4.783   4.898   4.169
 7526TIP3    H122521   4.692   4.881   4.201
 7526TIP3    H222522   4.769   4.981   4.120
 7527TIP3   OH222523   5.077   3.791   4.532
 7527TIP3    H122524   4.993   3.795   4.484
 7527TIP3    H222525   5.141   3.818   4.462
 7528TIP3   OH222526   4.355   3.421   4.514
 7528TIP3    H122527   4.334   3.326   4.528
 7528TIP3    H222528   4.278   3.463   4.558
 7529TIP3   OH222529   4.471   4.927   3.824
 7529TIP3    H122530   4.527   4.849   3.802
 7529TIP3    H222531   4.530   4.999   3.791
 7530TIP3   OH222532   4.619   4.708   3.741
 7530TIP3    H122533   4.543   4.659   3.705
 7530TIP3    H222534   4.627   4.664   3.826
 7531TIP3   OH222535   5.012   4.799   4.494
 7531TIP3    H122536   4.975   4.736   4.432
 7531TIP3    H222537   4.984   4.883   4.453
 7532TIP3   OH222538   4.291   4.190   3.755
 7532TIP3    H122539   4.211   4.245   3.739
 7532TIP3    H222540   4.334   4.189   3.668
 7533TIP3   OH222541   4.245   3.980   3.471
 7533TIP3    H122542   4.311   4.026   3.527
 7533TIP3    H222543   4.304   3.917   3.424
 7534TIP3   OH222544   4.620   4.286   3.752
 7534TIP3    H122545   4.551   4.312   3.814
 7534TIP3    H222546   4.677   4.232   3.809
 7535TIP3   OH222547   4.534   4.890   4.271
 7535TIP3    H122548   4.517   4.971   4.324
 7535TIP3    H222549   4.505   4.819   4.333
 7536TIP3   OH222550   4.145   4.793   4.834
 7536TIP3    H122551   4.082   4.858   4.872
 7536TIP3    H222552   4.082   4.738   4.782
 7537TIP3   OH222553   4.480   4.133   3.558
 7537TIP3    H122554   4.535   4.199   3.606
 7537TIP3    H222555   4.505   4.153   3.464
 7538TIP3   OH222556   3.897   4.344   4.943
 7538TIP3    H122557   3.902   4.437   4.973
 7538TIP3    H222558   3.802   4.326   4.953
 7539TIP3   OH222559   4.222   4.806   3.834
 7539TIP3    H122560   4.302   4.860   3.847
 7539TIP3    H222561   4.160   4.869   3.796
 7540TIP3   OH222562   3.938   4.962   4.917
 7540TIP3    H122563   3.908   4.967   4.823
 7540TIP3    H222564   3.856   4.936   4.964
 7541TIP3   OH222565   4.991   3.370   3.610
 7541TIP3    H122566   4.910   3.394   3.658
 7541TIP3    H222567   5.007   3.451   3.557
 7542TIP3   OH222568   3.747   4.105   3.909
 7542TIP3    H122569   3.660   4.139   3.879
 7542TIP3    H222570   3.723   4.051   3.986
 7543TIP3   OH222571   4.795   4.737   3.161
 7543TIP3    H122572   4.803   4.833   3.142
 7543TIP3    H222573   4.887   4.707   3.147
 7544TIP3   OH222574   3.502   4.505   4.895
 7544TIP3    H122575   3.468   4.482   4.808
 7544TIP3    H222576   3.545   4.421   4.924
 7545TIP3   OH222577   3.365   4.715   4.483
 7545TIP3    H122578   3.456   4.685   4.495
 7545TIP3    H222579   3.358   4.784   4.551
 7546TIP3   OH222580   5.227   5.149   4.551
 7546TIP3    H122581   5.231   5.052   4.560
 7546TIP3    H222582   5.141   5.166   4.595
 7547TIP3   OH222583   4.363   4.911   4.712
 7547TIP3    H122584   4.347   5.007   4.719
 7547TIP3    H222585   4.279   4.876   4.748
 7548TIP3   OH222586   4.105   5.057   3.636
 7548TIP3    H122587   4.053   5.038   3.556
 7548TIP3    H222588   4.065   5.140   3.668
 7549TIP3   OH222589   3.545   4.905   4.029
 7549TIP3    H122590   3.594   4.901   4.114
 7549TIP3    H222591   3.494   4.822   4.031
 7550TIP3   OH222592   4.302   4.959   3.276
 7550TIP3    H122593   4.360   4.888   3.240
 7550TIP3    H222594   4.337   4.967   3.367
 7551TIP3   OH222595   4.356   5.005   3.546
 7551TIP3    H122596   4.266   5.017   3.586
 7551TIP3    H222597   4.404   4.966   3.621
 7552TIP3   OH222598   5.129   4.274   4.846
 7552TIP3    H122599   5.045   4.295   4.803
 7552TIP3    H222600   5.136   4.178   4.827
 7553TIP3   OH222601   3.709   4.681   4.849
 7553TIP3    H122602   3.765   4.670   4.929
 7553TIP3    H222603   3.633   4.623   4.869
 7554TIP3   OH222604   4.117   3.500   4.639
 7554TIP3    H122605   4.028   3.474   4.609
 7554TIP3    H222606   4.095   3.584   4.684
 7555TIP3   OH222607   4.658   3.596   4.823
 7555TIP3    H122608   4.725   3.594   4.893
 7555TIP3    H222609   4.574   3.602   4.872
 7556TIP3   OH222610   4.552   4.175   3.302
 7556TIP3    H122611   4.516   4.152   3.215
 7556TIP3    H222612   4.638   4.214   3.277
 7557TIP3   OH222613   4.263   3.550   3.608
 7557TIP3    H122614   4.229   3.547   3.700
 7557TIP3    H222615   4.223   3.468   3.574
 7558TIP3   OH222616   4.049   4.030   4.635
 7558TIP3    H122617   3.994   4.055   4.711
 7558TIP3    H222618   4.047   4.109   4.578
 7559TIP3   OH222619   3.938   3.899   4.166
 7559TIP3    H122620   3.843   3.885   4.184
 7559TIP3    H222621   3.947   3.859   4.077
 7560TIP3   OH222622   4.412   3.982   3.889
 7560TIP3    H122623   4.369   4.059   3.848
 7560TIP3    H222624   4.473   3.952   3.819
 7561TIP3   OH222625   4.600   4.286   5.004
 7561TIP3    H122626   4.575   4.198   5.039
 7561TIP3    H222627   4.696   4.276   5.000
 7562TIP3   OH222628   3.878   4.038   4.855
 7562TIP3    H122629   3.898   4.110   4.917
 7562TIP3    H222630   3.868   3.961   4.914
 7563TIP3   OH222631   3.919   3.526   3.573
 7563TIP3    H122632   3.911   3.526   3.670
 7563TIP3    H222633   3.843   3.582   3.548
 7564TIP3   OH222634   3.469   3.572   4.441
 7564TIP3    H122635   3.544   3.600   4.497
 7564TIP3    H222636   3.510   3.530   4.364
 7565TIP3   OH222637   3.428   3.544   3.963
 7565TIP3    H122638   3.473   3.584   3.886
 7565TIP3    H222639   3.364   3.616   3.982
 7566TIP3   OH222640   4.263   3.734   4.226
 7566TIP3    H122641   4.186   3.734   4.286
 7566TIP3    H222642   4.336   3.708   4.286
 7567TIP3   OH222643   3.698   3.771   4.211
 7567TIP3    H122644   3.608   3.739   4.217
 7567TIP3    H222645   3.750   3.688   4.205
 7568TIP3   OH222646   3.959   3.769   3.925
 7568TIP3    H122647   4.052   3.792   3.907
 7568TIP3    H222648   3.912   3.798   3.843
 7569TIP3   OH222649   3.814   3.807   3.698
 7569TIP3    H122650   3.742   3.767   3.646
 7569TIP3    H222651   3.866   3.851   3.627
 7570TIP3   OH222652   4.926   5.490   4.649
 7570TIP3    H122653   4.917   5.505   4.553
 7570TIP3    H222654   4.981   5.564   4.676
 7571TIP3   OH222655   3.877   4.603   5.073
 7571TIP3    H122656   3.966   4.630   5.102
 7571TIP3    H222657   3.829   4.615   5.157
 7572TIP3   OH222658   3.859   3.544   4.212
 7572TIP3    H122659   3.827   3.464   4.258
 7572TIP3    H222660   3.904   3.508   4.135
 7573TIP3   OH222661   4.312   3.936   4.643
 7573TIP3    H122662   4.223   3.974   4.625
 7573TIP3    H222663   4.371   4.012   4.634
 7574TIP3   OH222664   4.056   4.349   3.719
 7574TIP3    H122665   3.988   4.280   3.702
 7574TIP3    H222666   4.038   4.371   3.813
 7575TIP3   OH222667   4.513   3.652   3.576
 7575TIP3    H122668   4.417   3.633   3.587
 7575TIP3    H222669   4.521   3.746   3.604
 7576TIP3   OH222670   4.464   4.655   4.713
 7576TIP3    H122671   4.483   4.642   4.806
 7576TIP3    H222672   4.430   4.747   4.712
 7577TIP3   OH222673   4.583   3.902   3.679
 7577TIP3    H122674   4.680   3.904   3.691
 7577TIP3    H222675   4.566   3.983   3.626
 7578TIP3   OH222676   4.197   4.486   3.529
 7578TIP3    H122677   4.155   4.575   3.536
 7578TIP3    H222678   4.144   4.436   3.594
 7579TIP3   OH222679   3.629   4.288   5.004
 7579TIP3    H122680   3.639   4.273   5.100
 7579TIP3    H222681   3.565   4.218   4.982
 7580TIP3   OH222682   4.354   4.405   5.021
 7580TIP3    H122683   4.297   4.340   4.977
 7580TIP3    H222684   4.444   4.369   5.000
 7581TIP3   OH222685   4.618   4.968   4.590
 7581TIP3    H122686   4.530   4.930   4.605
 7581TIP3    H222687   4.641   4.994   4.682
 7582TIP3   OH222688   5.018   3.993   3.509
 7582TIP3    H122689   4.956   3.954   3.443
 7582TIP3    H222690   5.024   4.083   3.472
 7583TIP3   OH222691   5.254   4.861   4.592
 7583TIP3    H122692   5.157   4.849   4.581
 7583TIP3    H222693   5.283   4.827   4.504
 7584TIP3   OH222694   4.726   4.813   3.423
 7584TIP3    H122695   4.700   4.742   3.483
 7584TIP3    H222696   4.741   4.768   3.339
 7585TIP3   OH222697   3.834   4.661   4.016
 7585TIP3    H122698   3.856   4.746   3.974
 7585TIP3    H222699   3.739   4.657   4.001
 7586TIP3   OH222700   3.420   3.972   3.716
 7586TIP3    H122701   3.463   4.056   3.741
 7586TIP3    H222702   3.343   3.972   3.776
 7587TIP3   OH222703   3.979   4.424   3.978
 7587TIP3    H122704   3.953   4.517   3.991
 7587TIP3    H222705   3.894   4.378   3.987
 7588TIP3   OH222706   3.768   4.909   3.861
 7588TIP3    H122707   3.685   4.918   3.911
 7588TIP3    H222708   3.802   5.002   3.867
 7589TIP3   OH222709   4.486   4.678   4.439
 7589TIP3    H122710   4.471   4.664   4.534
 7589TIP3    H222711   4.511   4.591   4.408
 7590TIP3   OH222712   4.485   4.547   3.324
 7590TIP3    H122713   4.540   4.517   3.400
 7590TIP3    H222714   4.398   4.513   3.350
 7591TIP3   OH222715   4.759   5.183   4.496
 7591TIP3    H122716   4.689   5.114   4.506
 7591TIP3    H222717   4.727   5.235   4.419
 7592TIP3   OH222718   4.822   5.013   3.139
 7592TIP3    H122719   4.862   5.088   3.092
 7592TIP3    H222720   4.741   5.057   3.173
 7593TIP3   OH222721   3.840   3.792   5.010
 7593TIP3    H122722   3.743   3.797   5.019
 7593TIP3    H222723   3.865   3.732   5.081
 7594TIP3   OH222724   4.648   4.464   3.530
 7594TIP3    H122725   4.634   4.412   3.611
 7594TIP3    H222726   4.745   4.463   3.523
 7595TIP3   OH222727   3.563   4.876   4.648
 7595TIP3    H122728   3.625   4.825   4.703
 7595TIP3    H222729   3.582   4.968   4.676
 7596TIP3   OH222730   3.847   4.521   3.324
 7596TIP3    H122731   3.860   4.428   3.297
 7596TIP3    H222732   3.825   4.511   3.419
 7597TIP3   OH222733   3.790   4.527   3.596
 7597TIP3    H122734   3.870   4.498   3.642
 7597TIP3    H222735   3.796   4.625   3.605
 7598TIP3   OH222736   3.518   4.217   3.799
 7598TIP3    H122737   3.457   4.266   3.857
 7598TIP3    H222738   3.533   4.285   3.730
 7599TIP3   OH222739   4.564   3.591   3.858
 7599TIP3    H122740   4.547   3.620   3.766
 7599TIP3    H222741   4.610   3.670   3.896
 7600TIP3   OH222742   4.061   4.720   3.543
 7600TIP3    H122743   3.974   4.746   3.580
 7600TIP3    H222744   4.077   4.795   3.483
 7601TIP3   OH222745   4.239   3.784   3.957
 7601TIP3    H122746   4.303   3.856   3.939
 7601TIP3    H222747   4.246   3.778   4.055
 7602TIP3   OH222748   4.389   3.503   4.056
 7602TIP3    H122749   4.389   3.577   4.119
 7602TIP3    H222750   4.449   3.538   3.987
 7603TIP3   OH222751   3.808   4.800   3.613
 7603TIP3    H122752   3.777   4.871   3.553
 7603TIP3    H222753   3.791   4.840   3.701
 7604TIP3   OH222754   3.905   3.510   3.849
 7604TIP3    H122755   3.902   3.602   3.883
 7604TIP3    H222756   4.001   3.493   3.857
 7605TIP3   OH222757   5.130   4.011   4.755
 7605TIP3    H122758   5.060   3.954   4.791
 7605TIP3    H222759   5.151   3.967   4.671
 7606TIP3   OH222760   3.525   4.422   3.602
 7606TIP3    H122761   3.599   4.485   3.611
 7606TIP3    H222762   3.566   4.361   3.536
 7607TIP3   OH222763   3.462   3.700   3.739
 7607TIP3    H122764   3.472   3.797   3.738
 7607TIP3    H222765   3.378   3.689   3.693
 7608TIP3   OH222766   4.779   5.163   4.080
 7608TIP3    H122767   4.735   5.210   4.006
 7608TIP3    H222768   4.873   5.181   4.058
 7609TIP3   OH222769   3.849   3.425   4.609
 7609TIP3    H122770   3.821   3.392   4.521
 7609TIP3    H222771   3.840   3.346   4.665
 7610TIP3   OH222772   3.393   4.649   3.990
 7610TIP3    H122773   3.331   4.673   4.060
 7610TIP3    H222774   3.352   4.692   3.911
 7611TIP3   OH222775   3.553   5.194   5.065
 7611TIP3    H122776   3.640   5.197   5.112
 7611TIP3    H222777   3.536   5.099   5.061
 7612TIP3   OH222778   4.026   5.140   5.111
 7612TIP3    H122779   4.122   5.128   5.112
 7612TIP3    H222780   4.001   5.080   5.037
 7613TIP3   OH222781   4.011   4.721   3.232
 7613TIP3    H122782   3.956   4.649   3.271
 7613TIP3    H222783   4.087   4.670   3.199
 7614TIP3   OH222784   4.667   5.058   4.848
 7614TIP3    H122785   4.661   4.985   4.914
 7614TIP3    H222786   4.745   5.108   4.879
 7615TIP3   OH222787   4.446   4.762   3.149
 7615TIP3    H122788   4.483   4.695   3.210
 7615TIP3    H222789   4.505   4.755   3.071
 7616TIP3   OH222790   3.659   4.570   5.271
 7616TIP3    H122791   3.704   4.482   5.272
 7616TIP3    H222792   3.628   4.572   5.179
 7617TIP3   OH222793   3.660   4.235   3.460
 7617TIP3    H122794   3.718   4.205   3.533
 7617TIP3    H222795   3.727   4.241   3.388
 7618TIP3   OH222796   4.286   4.681   5.039
 7618TIP3    H122797   4.246   4.706   4.953
 7618TIP3    H222798   4.314   4.588   5.024
 7619TIP3   OH222799   4.175   4.439   3.262
 7619TIP3    H122800   4.174   4.450   3.359
 7619TIP3    H222801   4.176   4.340   3.256
 7620TIP3   OH222802   3.796   4.334   5.250
 7620TIP3    H122803   3.867   4.283   5.209
 7620TIP3    H222804   3.834   4.356   5.338
 7621TIP3   OH222805   3.867   4.154   3.671
 7621TIP3    H122806   3.831   4.124   3.757
 7621TIP3    H222807   3.901   4.071   3.633
 7622TIP3   OH222808   4.142   4.214   4.907
 7622TIP3    H122809   4.058   4.266   4.908
 7622TIP3    H222810   4.184   4.248   4.824
 7623TIP3   OH222811   3.968   3.941   3.516
 7623TIP3    H122812   3.944   3.951   3.422
 7623TIP3    H222813   4.066   3.944   3.510
 7624TIP3   OH222814   4.656   4.610   5.039
 7624TIP3    H122815   4.735   4.574   4.998
 7624TIP3    H222816   4.634   4.540   5.103
 7625TIP3   OH222817   4.784   4.268   3.186
 7625TIP3    H122818   4.766   4.223   3.100
 7625TIP3    H222819   4.751   4.358   3.164
 7626TIP3   OH222820   4.255   4.000   5.033
 7626TIP3    H122821   4.256   3.920   4.976
 7626TIP3    H222822   4.214   4.067   4.973
 7627TIP3   OH222823   4.258   3.779   4.857
 7627TIP3    H122824   4.287   3.828   4.777
 7627TIP3    H222825   4.165   3.757   4.833
 7628TIP3   OH222826   4.277   4.324   4.702
 7628TIP3    H122827   4.358   4.300   4.655
 7628TIP3    H222828   4.251   4.406   4.657
 7629TIP3   OH222829   4.875   4.290   5.102
 7629TIP3    H122830   4.899   4.198   5.084
 7629TIP3    H222831   4.948   4.339   5.062
 7630TIP3   OH222832   4.912   4.554   4.839
 7630TIP3    H122833   4.847   4.592   4.778
 7630TIP3    H222834   4.996   4.572   4.791
 7631TIP3   OH222835   4.138   4.102   5.269
 7631TIP3    H122836   4.070   4.033   5.281
 7631TIP3    H222837   4.170   4.081   5.178
 7632TIP3   OH222838   4.391   3.546   4.916
 7632TIP3    H122839   4.342   3.628   4.893
 7632TIP3    H222840   4.322   3.478   4.900
 7633TIP3   OH222841   4.520   4.045   5.114
 7633TIP3    H122842   4.505   4.035   5.210
 7633TIP3    H222843   4.431   4.024   5.081
 7634TIP3   OH222844   4.783   4.029   4.982
 7634TIP3    H122845   4.696   4.011   5.022
 7634TIP3    H222846   4.844   3.976   5.035
 7635TIP3   OH222847   5.009   3.944   5.134
 7635TIP3    H122848   5.012   3.848   5.151
 7635TIP3    H222849   4.993   3.981   5.224
 7636TIP3   OH222850   3.971   3.885   5.322
 7636TIP3    H122851   3.975   3.795   5.285
 7636TIP3    H222852   4.011   3.871   5.410
 7637TIP3   OH222853   4.483   3.553   5.172
 7637TIP3    H122854   4.550   3.482   5.161
 7637TIP3    H222855   4.444   3.554   5.083
 7638TIP3   OH222856   4.551   3.768   5.330
 7638TIP3    H122857   4.530   3.699   5.264
 7638TIP3    H222858   4.475   3.830   5.320
 7639TIP3   OH222859   3.779   5.008   3.427
 7639TIP3    H122860   3.873   4.993   3.406
 7639TIP3    H222861   3.751   5.055   3.346
 7640TIP3   OH222862   3.256   4.386   3.635
 7640TIP3    H122863   3.351   4.405   3.622
 7640TIP3    H222864   3.249   4.296   3.598
 7641TIP3   OH222865   3.172   4.994   4.058
 7641TIP3    H122866   3.105   4.933   4.019
 7641TIP3    H222867   3.216   4.933   4.121
 7642TIP3   OH222868   3.305   4.837   4.240
 7642TIP3    H122869   3.288   4.771   4.309
 7642TIP3    H222870   3.361   4.898   4.292
 7643TIP3   OH222871   5.036   5.245   4.044
 7643TIP3    H122872   5.066   5.277   4.131
 7643TIP3    H222873   5.105   5.278   3.984
 7644TIP3   OH222874   5.065   5.265   4.328
 7644TIP3    H122875   5.009   5.185   4.321
 7644TIP3    H222876   5.138   5.229   4.380
 7645TIP3   OH222877   5.104   4.936   4.897
 7645TIP3    H122878   5.033   4.946   4.964
 7645TIP3    H222879   5.149   5.023   4.904
 7646TIP3   OH222880   4.929   4.456   3.523
 7646TIP3    H122881   4.985   4.523   3.477
 7646TIP3    H222882   4.981   4.441   3.602
 7647TIP3   OH222883   5.131   4.716   4.162
 7647TIP3    H122884   5.136   4.636   4.107
 7647TIP3    H222885   5.117   4.787   4.097
 7648TIP3   OH222886   4.936   5.023   4.355
 7648TIP3    H122887   4.861   5.063   4.403
 7648TIP3    H222888   4.890   4.975   4.282
 7649TIP3   OH222889   4.988   4.234   3.365
 7649TIP3    H122890   4.917   4.231   3.297
 7649TIP3    H222891   4.957   4.311   3.417
 7650TIP3   OH222892   4.852   3.905   3.312
 7650TIP3    H122893   4.808   3.933   3.231
 7650TIP3    H222894   4.834   3.808   3.309
 7651TIP3   OH222895   5.154   4.604   4.719
 7651TIP3    H122896   5.226   4.537   4.708
 7651TIP3    H222897   5.177   4.671   4.652
 7652TIP3   OH222898   5.337   4.404   4.731
 7652TIP3    H122899   5.265   4.357   4.778
 7652TIP3    H222900   5.411   4.341   4.747
 7653TIP3   OH222901   4.803   3.637   3.299
 7653TIP3    H122902   4.876   3.605   3.357
 7653TIP3    H222903   4.729   3.578   3.322
 7654TIP3   OH222904   4.858   3.896   3.738
 7654TIP3    H122905   4.897   3.808   3.756
 7654TIP3    H222906   4.923   3.931   3.674
 7655TIP3   OH222907   5.100   4.239   4.487
 7655TIP3    H122908   5.007   4.230   4.509
 7655TIP3    H222909   5.096   4.278   4.398
 7656TIP3   OH222910   3.704   3.951   5.289
 7656TIP3    H122911   3.801   3.940   5.288
 7656TIP3    H222912   3.677   3.866   5.329
 7657TIP3   OH222913   5.541   3.808   5.039
 7657TIP3    H122914   5.604   3.744   4.999
 7657TIP3    H222915   5.513   3.860   4.961
 7658TIP3   OH222916   4.971   3.649   3.797
 7658TIP3    H122917   5.019   3.628   3.880
 7658TIP3    H222918   4.906   3.576   3.794
 7659TIP3   OH222919   3.666   3.638   4.626
 7659TIP3    H122920   3.730   3.564   4.631
 7659TIP3    H222921   3.729   3.712   4.610
 7660TIP3   OH222922   5.408   3.945   4.845
 7660TIP3    H122923   5.330   3.988   4.885
 7660TIP3    H222924   5.367   3.874   4.790
 7661TIP3   OH222925   5.044   3.577   3.432
 7661TIP3    H122926   5.087   3.510   3.375
 7661TIP3    H222927   5.111   3.649   3.434
 7662TIP3   OH222928   3.456   3.408   4.195
 7662TIP3    H122929   3.363   3.403   4.221
 7662TIP3    H222930   3.451   3.466   4.115
 7663TIP3   OH222931   4.614   5.118   3.697
 7663TIP3    H122932   4.667   5.106   3.615
 7663TIP3    H222933   4.670   5.179   3.748
 7664TIP3   OH222934   3.681   3.481   5.010
 7664TIP3    H122935   3.630   3.481   5.092
 7664TIP3    H222936   3.616   3.522   4.948
 7665TIP3   OH222937   3.719   4.904   5.088
 7665TIP3    H122938   3.622   4.893   5.077
 7665TIP3    H222939   3.727   4.918   5.183
 7666TIP3   OH222940   3.882   4.955   4.640
 7666TIP3    H122941   3.827   5.019   4.593
 7666TIP3    H222942   3.958   4.961   4.579
 7667TIP3   OH222943   4.332   5.192   4.768
 7667TIP3    H122944   4.377   5.191   4.854
 7667TIP3    H222945   4.396   5.243   4.714
 7668TIP3   OH222946   4.512   5.348   4.630
 7668TIP3    H122947   4.577   5.293   4.584
 7668TIP3    H222948   4.569   5.402   4.688
 7669TIP3   OH222949   5.310   3.703   4.731
 7669TIP3    H122950   5.222   3.685   4.692
 7669TIP3    H222951   5.352   3.614   4.721
 7670TIP3   OH222952   3.550   5.162   4.683
 7670TIP3    H122953   3.472   5.211   4.647
 7670TIP3    H222954   3.594   5.234   4.730
 7671TIP3   OH222955   4.236   5.226   4.276
 7671TIP3    H122956   4.152   5.181   4.303
 7671TIP3    H222957   4.235   5.305   4.333
 7672TIP3   OH222958   4.496   5.161   4.357
 7672TIP3    H122959   4.403   5.174   4.331
 7672TIP3    H222960   4.539   5.235   4.313
 7673TIP3   OH222961   4.713   5.345   4.275
 7673TIP3    H122962   4.696   5.427   4.224
 7673TIP3    H222963   4.736   5.282   4.204
 7674TIP3   OH222964   3.481   4.998   4.397
 7674TIP3    H122965   3.509   4.976   4.488
 7674TIP3    H222966   3.559   4.964   4.348
 7675TIP3   OH222967   3.702   4.897   4.267
 7675TIP3    H122968   3.739   4.823   4.317
 7675TIP3    H222969   3.775   4.962   4.276
 7676TIP3   OH222970   4.484   3.608   4.332
 7676TIP3    H122971   4.459   3.542   4.400
 7676TIP3    H222972   4.579   3.591   4.319
 7677TIP3   OH222973   5.046   3.516   4.253
 7677TIP3    H122974   5.081   3.559   4.172
 7677TIP3    H222975   4.950   3.512   4.237
 7678TIP3   OH222976   5.147   3.620   4.015
 7678TIP3    H122977   5.208   3.551   3.979
 7678TIP3    H222978   5.197   3.699   3.993
 7679TIP3   OH222979   3.765   3.327   4.362
 7679TIP3    H122980   3.673   3.294   4.364
 7679TIP3    H222981   3.814   3.242   4.357
 7680TIP3   OH222982   3.556   3.203   4.013
 7680TIP3    H122983   3.586   3.258   3.939
 7680TIP3    H222984   3.529   3.270   4.079
 7681TIP3   OH222985   4.216   3.358   4.244
 7681TIP3    H122986   4.267   3.407   4.177
 7681TIP3    H222987   4.239   3.406   4.325
 7682TIP3   OH222988   4.774   3.512   4.221
 7682TIP3    H122989   4.738   3.482   4.137
 7682TIP3    H222990   4.751   3.435   4.280
 7683TIP3   OH222991   4.788   3.438   3.791
 7683TIP3    H122992   4.702   3.482   3.808
 7683TIP3    H222993   4.771   3.350   3.832
 7684TIP3   OH222994   3.269   4.776   3.785
 7684TIP3    H122995   3.183   4.743   3.753
 7684TIP3    H222996   3.261   4.870   3.760
 7685TIP3   OH222997   3.674   3.356   3.774
 7685TIP3    H122998   3.723   3.295   3.715
 7685TIP3    H222999   3.747   3.411   3.808
 7686TIP3   OH223000   4.181   3.534   3.871
 7686TIP3    H123001   4.244   3.492   3.932
 7686TIP3    H223002   4.197   3.628   3.896
 7687TIP3   OH223003   4.042   4.955   3.370
 7687TIP3    H123004   4.131   4.977   3.334
 7687TIP3    H223005   4.020   4.879   3.310
 7688TIP3   OH223006   4.762   5.080   3.467
 7688TIP3    H123007   4.754   4.982   3.456
 7688TIP3    H223008   4.718   5.110   3.384
 7689TIP3   OH223009   3.972   3.608   5.252
 7689TIP3    H123010   3.937   3.538   5.310
 7689TIP3    H223011   4.066   3.610   5.280
 7690TIP3   OH223012   4.223   3.608   5.371
 7690TIP3    H123013   4.308   3.588   5.328
 7690TIP3    H223014   4.214   3.535   5.435
 7691TIP3   OH223015   3.347   4.795   3.425
 7691TIP3    H123016   3.349   4.809   3.521
 7691TIP3    H223017   3.434   4.751   3.409
 7692TIP3   OH223018   5.053   3.671   5.160
 7692TIP3    H123019   5.071   3.641   5.252
 7692TIP3    H223020   5.143   3.668   5.121
 7693TIP3   OH223021   4.983   5.220   4.657
 7693TIP3    H123022   4.906   5.189   4.604
 7693TIP3    H223023   4.962   5.315   4.660
 7694TIP3   OH223024   6.504   4.896   3.480
 7694TIP3    H123025   6.456   4.832   3.533
 7694TIP3    H223026   6.527   4.965   3.544
 7695TIP3   OH223027   5.508   4.894   3.887
 7695TIP3    H123028   5.482   4.815   3.839
 7695TIP3    H223029   5.603   4.898   3.870
 7696TIP3   OH223030   6.153   5.359   3.504
 7696TIP3    H123031   6.200   5.293   3.447
 7696TIP3    H223032   6.146   5.308   3.586
 7697TIP3   OH223033   7.083   4.160   3.844
 7697TIP3    H123034   7.047   4.247   3.815
 7697TIP3    H223035   7.116   4.130   3.756
 7698TIP3   OH223036   5.804   3.979   3.853
 7698TIP3    H123037   5.775   4.047   3.787
 7698TIP3    H223038   5.766   3.901   3.807
 7699TIP3   OH223039   6.509   4.036   3.458
 7699TIP3    H123040   6.574   4.041   3.531
 7699TIP3    H223041   6.523   4.121   3.415
 7700TIP3   OH223042   5.805   3.953   4.298
 7700TIP3    H123043   5.755   3.990   4.222
 7700TIP3    H223044   5.748   3.981   4.372
 7701TIP3   OH223045   6.181   4.843   3.248
 7701TIP3    H123046   6.127   4.762   3.249
 7701TIP3    H223047   6.115   4.913   3.269
 7702TIP3   OH223048   5.896   4.741   4.090
 7702TIP3    H123049   5.839   4.814   4.119
 7702TIP3    H223050   5.939   4.777   4.011
 7703TIP3   OH223051   6.705   4.073   3.652
 7703TIP3    H123052   6.664   4.050   3.736
 7703TIP3    H223053   6.752   4.155   3.675
 7704TIP3   OH223054   5.686   4.062   4.084
 7704TIP3    H123055   5.738   4.145   4.095
 7704TIP3    H223056   5.725   4.029   4.000
 7705TIP3   OH223057   5.730   4.946   4.169
 7705TIP3    H123058   5.707   5.035   4.137
 7705TIP3    H223059   5.652   4.928   4.226
 7706TIP3   OH223060   5.115   4.629   3.412
 7706TIP3    H123061   5.087   4.660   3.324
 7706TIP3    H223062   5.153   4.711   3.451
 7707TIP3   OH223063   6.567   5.147   3.652
 7707TIP3    H123064   6.476   5.136   3.689
 7707TIP3    H223065   6.557   5.230   3.602
 7708TIP3   OH223066   6.841   4.059   4.003
 7708TIP3    H123067   6.748   4.049   3.969
 7708TIP3    H223068   6.892   4.064   3.921
 7709TIP3   OH223069   6.158   3.679   4.006
 7709TIP3    H123070   6.132   3.585   4.009
 7709TIP3    H223071   6.078   3.721   4.044
 7710TIP3   OH223072   6.277   5.192   3.329
 7710TIP3    H123073   6.322   5.107   3.308
 7710TIP3    H223074   6.335   5.254   3.279
 7711TIP3   OH223075   6.414   4.974   3.230
 7711TIP3    H123076   6.333   4.917   3.228
 7711TIP3    H223077   6.460   4.936   3.308
 7712TIP3   OH223078   6.794   5.048   3.989
 7712TIP3    H123079   6.777   4.971   3.930
 7712TIP3    H223080   6.773   5.123   3.931
 7713TIP3   OH223081   6.100   4.502   3.215
 7713TIP3    H123082   6.013   4.528   3.182
 7713TIP3    H223083   6.142   4.459   3.139
 7714TIP3   OH223084   6.042   4.236   2.963
 7714TIP3    H123085   6.112   4.282   3.013
 7714TIP3    H223086   6.098   4.173   2.913
 7715TIP3   OH223087   6.986   4.686   3.847
 7715TIP3    H123088   6.900   4.733   3.848
 7715TIP3    H223089   7.017   4.711   3.756
 7716TIP3   OH223090   6.417   4.534   3.224
 7716TIP3    H123091   6.351   4.549   3.294
 7716TIP3    H223092   6.497   4.514   3.276
 7717TIP3   OH223093   6.672   4.569   4.125
 7717TIP3    H123094   6.661   4.653   4.174
 7717TIP3    H223095   6.582   4.559   4.086
 7718TIP3   OH223096   6.323   5.142   3.769
 7718TIP3    H123097   6.317   5.217   3.830
 7718TIP3    H223098   6.324   5.064   3.829
 7719TIP3   OH223099   5.939   5.054   4.318
 7719TIP3    H123100   5.877   5.115   4.363
 7719TIP3    H223101   5.876   5.001   4.265
 7720TIP3   OH223102   6.278   4.377   3.042
 7720TIP3    H123103   6.329   4.442   3.096
 7720TIP3    H223104   6.307   4.403   2.951
 7721TIP3   OH223105   5.694   4.606   4.424
 7721TIP3    H123106   5.697   4.695   4.464
 7721TIP3    H223107   5.599   4.588   4.426
 7722TIP3   OH223108   6.025   5.058   3.300
 7722TIP3    H123109   6.089   5.121   3.336
 7722TIP3    H223110   5.942   5.108   3.298
 7723TIP3   OH223111   5.732   5.219   4.402
 7723TIP3    H123112   5.700   5.223   4.309
 7723TIP3    H223113   5.649   5.201   4.452
 7724TIP3   OH223114   6.787   3.625   3.097
 7724TIP3    H123115   6.706   3.650   3.147
 7724TIP3    H223116   6.804   3.708   3.046
 7725TIP3   OH223117   5.542   4.333   3.396
 7725TIP3    H123118   5.485   4.409   3.372
 7725TIP3    H223119   5.488   4.291   3.464
 7726TIP3   OH223120   6.589   4.992   2.644
 7726TIP3    H123121   6.598   5.089   2.630
 7726TIP3    H223122   6.682   4.963   2.632
 7727TIP3   OH223123   5.320   4.756   4.353
 7727TIP3    H123124   5.249   4.741   4.285
 7727TIP3    H223125   5.347   4.664   4.375
 7728TIP3   OH223126   5.166   4.947   3.979
 7728TIP3    H123127   5.262   4.946   3.971
 7728TIP3    H223128   5.151   5.027   4.032
 7729TIP3   OH223129   7.031   5.404   4.042
 7729TIP3    H123130   7.029   5.307   4.053
 7729TIP3    H223131   6.946   5.429   4.087
 7730TIP3   OH223132   6.135   5.183   4.175
 7730TIP3    H123133   6.131   5.276   4.205
 7730TIP3    H223134   6.063   5.143   4.229
 7731TIP3   OH223135   5.900   5.319   3.120
 7731TIP3    H123136   5.847   5.295   3.041
 7731TIP3    H223137   5.861   5.404   3.147
 7732TIP3   OH223138   5.328   5.157   3.515
 7732TIP3    H123139   5.384   5.151   3.595
 7732TIP3    H223140   5.290   5.067   3.513
 7733TIP3   OH223141   6.098   5.215   2.763
 7733TIP3    H123142   6.156   5.144   2.728
 7733TIP3    H223143   6.131   5.225   2.854
 7734TIP3   OH223144   6.150   5.261   3.032
 7734TIP3    H123145   6.061   5.272   3.073
 7734TIP3    H223146   6.193   5.207   3.100
 7735TIP3   OH223147   5.516   4.944   4.340
 7735TIP3    H123148   5.568   4.919   4.420
 7735TIP3    H223149   5.443   4.879   4.343
 7736TIP3   OH223150   5.912   3.752   4.124
 7736TIP3    H123151   5.821   3.732   4.093
 7736TIP3    H223152   5.895   3.837   4.169
 7737TIP3   OH223153   6.449   3.876   4.315
 7737TIP3    H123154   6.517   3.848   4.380
 7737TIP3    H223155   6.365   3.854   4.361
 7738TIP3   OH223156   6.730   4.335   4.257
 7738TIP3    H123157   6.670   4.312   4.331
 7738TIP3    H223158   6.689   4.418   4.223
 7739TIP3   OH223159   6.347   4.426   2.785
 7739TIP3    H123160   6.315   4.407   2.694
 7739TIP3    H223161   6.430   4.474   2.766
 7740TIP3   OH223162   6.056   3.808   3.098
 7740TIP3    H123163   6.025   3.804   3.191
 7740TIP3    H223164   6.016   3.725   3.064
 7741TIP3   OH223165   5.840   4.286   4.124
 7741TIP3    H123166   5.792   4.311   4.206
 7741TIP3    H223167   5.845   4.369   4.075
 7742TIP3   OH223168   5.705   4.116   3.644
 7742TIP3    H123169   5.648   4.191   3.623
 7742TIP3    H223170   5.733   4.084   3.556
 7743TIP3   OH223171   6.397   4.521   4.469
 7743TIP3    H123172   6.372   4.448   4.529
 7743TIP3    H223173   6.491   4.533   4.493
 7744TIP3   OH223174   5.669   4.297   4.343
 7744TIP3    H123175   5.699   4.368   4.402
 7744TIP3    H223176   5.664   4.220   4.402
 7745TIP3   OH223177   5.715   3.781   3.059
 7745TIP3    H123178   5.705   3.781   3.156
 7745TIP3    H223179   5.639   3.838   3.033
 7746TIP3   OH223180   5.221   3.804   3.452
 7746TIP3    H123181   5.266   3.844   3.374
 7746TIP3    H223182   5.162   3.878   3.476
 7747TIP3   OH223183   6.419   4.514   4.041
 7747TIP3    H123184   6.375   4.496   3.956
 7747TIP3    H223185   6.370   4.455   4.102
 7748TIP3   OH223186   6.062   3.939   3.726
 7748TIP3    H123187   5.977   3.961   3.769
 7748TIP3    H223188   6.123   3.995   3.775
 7749TIP3   OH223189   5.779   4.031   3.388
 7749TIP3    H123190   5.839   4.101   3.358
 7749TIP3    H223191   5.706   4.043   3.322
 7750TIP3   OH223192   6.583   4.039   3.930
 7750TIP3    H123193   6.536   4.081   4.004
 7750TIP3    H223194   6.509   3.991   3.888
 7751TIP3   OH223195   5.608   4.057   3.185
 7751TIP3    H123196   5.534   4.020   3.133
 7751TIP3    H223197   5.659   4.102   3.115
 7752TIP3   OH223198   6.726   5.747   4.139
 7752TIP3    H123199   6.722   5.772   4.045
 7752TIP3    H223200   6.804   5.797   4.170
 7753TIP3   OH223201   5.677   4.860   4.558
 7753TIP3    H123202   5.759   4.886   4.605
 7753TIP3    H223203   5.615   4.854   4.633
 7754TIP3   OH223204   5.698   3.779   3.703
 7754TIP3    H123205   5.637   3.716   3.747
 7754TIP3    H223206   5.705   3.743   3.614
 7755TIP3   OH223207   6.110   4.190   4.141
 7755TIP3    H123208   6.030   4.234   4.107
 7755TIP3    H223209   6.173   4.264   4.152
 7756TIP3   OH223210   5.836   4.609   3.195
 7756TIP3    H123211   5.771   4.538   3.179
 7756TIP3    H223212   5.819   4.632   3.288
 7757TIP3   OH223213   6.748   4.828   3.822
 7757TIP3    H123214   6.771   4.881   3.743
 7757TIP3    H223215   6.661   4.792   3.798
 7758TIP3   OH223216   6.309   3.903   3.050
 7758TIP3    H123217   6.214   3.891   3.070
 7758TIP3    H223218   6.328   3.995   3.080
 7759TIP3   OH223219   6.252   4.920   4.192
 7759TIP3    H123220   6.277   4.899   4.283
 7759TIP3    H223221   6.213   5.009   4.199
 7760TIP3   OH223222   6.394   4.143   3.145
 7760TIP3    H123223   6.483   4.166   3.177
 7760TIP3    H223224   6.357   4.230   3.120
 7761TIP3   OH223225   5.986   4.741   3.003
 7761TIP3    H123226   5.953   4.833   3.016
 7761TIP3    H223227   5.937   4.696   3.074
 7762TIP3   OH223228   5.428   4.541   4.495
 7762TIP3    H123229   5.466   4.552   4.585
 7762TIP3    H223230   5.383   4.456   4.507
 7763TIP3   OH223231   6.158   4.660   4.505
 7763TIP3    H123232   6.097   4.606   4.452
 7763TIP3    H223233   6.244   4.623   4.476
 7764TIP3   OH223234   6.413   5.210   4.082
 7764TIP3    H123235   6.322   5.182   4.097
 7764TIP3    H223236   6.436   5.245   4.171
 7765TIP3   OH223237   6.821   4.253   2.999
 7765TIP3    H123238   6.760   4.209   2.935
 7765TIP3    H223239   6.816   4.344   2.960
 7766TIP3   OH223240   7.043   5.117   4.077
 7766TIP3    H123241   6.946   5.107   4.068
 7766TIP3    H223242   7.071   5.084   3.988
 7767TIP3   OH223243   6.526   5.069   2.913
 7767TIP3    H123244   6.494   5.004   2.978
 7767TIP3    H223245   6.535   5.017   2.832
 7768TIP3   OH223246   6.480   4.672   3.735
 7768TIP3    H123247   6.386   4.657   3.708
 7768TIP3    H223248   6.507   4.581   3.719
 7769TIP3   OH223249   5.214   4.230   3.205
 7769TIP3    H123250   5.261   4.313   3.228
 7769TIP3    H223251   5.137   4.235   3.266
 7770TIP3   OH223252   5.922   5.260   3.965
 7770TIP3    H123253   5.959   5.334   3.914
 7770TIP3    H223254   6.001   5.226   4.010
 7771TIP3   OH223255   5.538   5.193   3.311
 7771TIP3    H123256   5.482   5.165   3.385
 7771TIP3    H223257   5.574   5.278   3.342
 7772TIP3   OH223258   6.350   4.920   3.934
 7772TIP3    H123259   6.310   4.901   4.021
 7772TIP3    H223260   6.369   4.831   3.899
 7773TIP3   OH223261   6.279   4.803   2.810
 7773TIP3    H123262   6.338   4.774   2.884
 7773TIP3    H223263   6.194   4.775   2.846
 7774TIP3   OH223264   6.558   5.437   3.979
 7774TIP3    H123265   6.482   5.374   3.985
 7774TIP3    H223266   6.530   5.495   3.905
 7775TIP3   OH223267   6.619   5.270   2.627
 7775TIP3    H123268   6.657   5.345   2.580
 7775TIP3    H223269   6.538   5.312   2.662
 7776TIP3   OH223270   5.639   4.047   4.500
 7776TIP3    H123271   5.542   4.044   4.508
 7776TIP3    H223272   5.668   3.990   4.573
 7777TIP3   OH223273   6.446   4.717   3.006
 7777TIP3    H123274   6.425   4.672   3.090
 7777TIP3    H223275   6.543   4.717   3.009
 7778TIP3   OH223276   5.356   5.132   4.124
 7778TIP3    H123277   5.407   5.054   4.151
 7778TIP3    H223278   5.393   5.200   4.181
 7779TIP3   OH223279   5.641   4.778   2.812
 7779TIP3    H123280   5.659   4.685   2.788
 7779TIP3    H223281   5.625   4.770   2.908
 7780TIP3   OH223282   5.583   4.782   3.083
 7780TIP3    H123283   5.651   4.754   3.146
 7780TIP3    H223284   5.589   4.880   3.091
 7781TIP3   OH223285   5.316   4.476   3.288
 7781TIP3    H123286   5.255   4.524   3.347
 7781TIP3    H223287   5.336   4.546   3.222
 7782TIP3   OH223288   6.486   4.122   4.188
 7782TIP3    H123289   6.550   4.141   4.257
 7782TIP3    H223290   6.449   4.037   4.220
 7783TIP3   OH223291   6.357   3.847   3.340
 7783TIP3    H123292   6.344   3.880   3.250
 7783TIP3    H223293   6.408   3.922   3.381
 7784TIP3   OH223294   5.857   4.979   3.025
 7784TIP3    H123295   5.770   4.997   3.065
 7784TIP3    H223296   5.872   5.062   2.977
 7785TIP3   OH223297   6.313   4.360   4.242
 7785TIP3    H123298   6.340   4.411   4.321
 7785TIP3    H223299   6.367   4.279   4.248
 7786TIP3   OH223300   6.180   3.765   3.543
 7786TIP3    H123301   6.158   3.840   3.603
 7786TIP3    H223302   6.248   3.805   3.484
 7787TIP3   OH223303   5.600   5.054   3.088
 7787TIP3    H123304   5.571   5.126   3.029
 7787TIP3    H223305   5.581   5.095   3.176
 7788TIP3   OH223306   5.701   3.762   3.336
 7788TIP3    H123307   5.705   3.855   3.367
 7788TIP3    H223308   5.797   3.740   3.343
 7789TIP3   OH223309   5.320   4.682   3.088
 7789TIP3    H123310   5.396   4.743   3.101
 7789TIP3    H223311   5.362   4.622   3.023
 7790TIP3   OH223312   5.260   3.958   3.226
 7790TIP3    H123313   5.265   4.056   3.224
 7790TIP3    H223314   5.178   3.942   3.178
 7791TIP3   OH223315   6.575   5.418   3.568
 7791TIP3    H123316   6.532   5.466   3.494
 7791TIP3    H223317   6.669   5.435   3.547
 7792TIP3   OH223318   5.635   3.688   4.098
 7792TIP3    H123319   5.613   3.655   4.008
 7792TIP3    H223320   5.631   3.605   4.151
 7793TIP3   OH223321   5.179   4.895   3.480
 7793TIP3    H123322   5.101   4.938   3.515
 7793TIP3    H223323   5.179   4.931   3.389
 7794TIP3   OH223324   5.342   5.420   4.555
 7794TIP3    H123325   5.429   5.375   4.562
 7794TIP3    H223326   5.286   5.340   4.546
 7795TIP3   OH223327   5.816   5.427   4.567
 7795TIP3    H123328   5.906   5.403   4.594
 7795TIP3    H223329   5.793   5.352   4.509
 7796TIP3   OH223330   5.805   4.978   2.716
 7796TIP3    H123331   5.749   4.909   2.759
 7796TIP3    H223332   5.883   4.924   2.693
 7797TIP3   OH223333   6.457   5.317   4.336
 7797TIP3    H123334   6.456   5.244   4.401
 7797TIP3    H223335   6.538   5.366   4.361
 7798TIP3   OH223336   6.243   5.017   2.637
 7798TIP3    H123337   6.276   4.949   2.699
 7798TIP3    H223338   6.304   5.009   2.562
 7799TIP3   OH223339   5.478   4.853   4.752
 7799TIP3    H123340   5.491   4.757   4.765
 7799TIP3    H223341   5.392   4.854   4.705
 7800TIP3   OH223342   5.455   4.492   2.948
 7800TIP3    H123343   5.513   4.465   3.022
 7800TIP3    H223344   5.522   4.499   2.876
 7801TIP3   OH223345   6.081   4.934   4.525
 7801TIP3    H123346   6.042   4.955   4.438
 7801TIP3    H223347   6.113   4.843   4.513
 7802TIP3   OH223348   5.963   4.693   2.740
 7802TIP3    H123349   5.966   4.709   2.837
 7802TIP3    H223350   5.966   4.595   2.739
 7803TIP3   OH223351   6.581   4.949   4.144
 7803TIP3    H123352   6.651   4.995   4.094
 7803TIP3    H223353   6.501   4.983   4.100
 7804TIP3   OH223354   5.595   4.588   4.726
 7804TIP3    H123355   5.674   4.542   4.696
 7804TIP3    H223356   5.623   4.616   4.816
 7805TIP3   OH223357   5.655   4.404   3.156
 7805TIP3    H123358   5.622   4.367   3.241
 7805TIP3    H223359   5.694   4.325   3.114
 7806TIP3   OH223360   5.927   4.461   4.394
 7806TIP3    H123361   5.851   4.523   4.393
 7806TIP3    H223362   5.981   4.496   4.319
 7807TIP3   OH223363   5.765   4.195   3.007
 7807TIP3    H123364   5.739   4.206   2.913
 7807TIP3    H223365   5.863   4.200   2.999
 7808TIP3   OH223366   6.450   4.869   4.529
 7808TIP3    H123367   6.516   4.829   4.471
 7808TIP3    H223368   6.442   4.803   4.600
 7809TIP3   OH223369   6.582   4.524   2.672
 7809TIP3    H123370   6.562   4.481   2.586
 7809TIP3    H223371   6.548   4.615   2.653
 7810TIP3   OH223372   6.058   4.258   4.518
 7810TIP3    H123373   6.057   4.177   4.463
 7810TIP3    H223374   6.013   4.323   4.459
 7811TIP3   OH223375   6.059   4.033   4.351
 7811TIP3    H123376   6.084   4.083   4.270
 7811TIP3    H223377   5.966   4.008   4.329
 7812TIP3   OH223378   6.076   4.575   4.206
 7812TIP3    H123379   6.148   4.569   4.142
 7812TIP3    H223380   6.014   4.635   4.159
 7813TIP3   OH223381   6.656   4.541   4.582
 7813TIP3    H123382   6.709   4.461   4.597
 7813TIP3    H223383   6.722   4.604   4.548
 7814TIP3   OH223384   6.709   4.798   4.324
 7814TIP3    H123385   6.650   4.852   4.266
 7814TIP3    H223386   6.795   4.816   4.280
 7815TIP3   OH223387   5.933   4.359   4.751
 7815TIP3    H123388   5.865   4.290   4.765
 7815TIP3    H223389   5.966   4.336   4.661
 7816TIP3   OH223390   6.193   3.798   4.400
 7816TIP3    H123391   6.143   3.881   4.380
 7816TIP3    H223392   6.123   3.731   4.384
 7817TIP3   OH223393   6.319   4.301   4.606
 7817TIP3    H123394   6.300   4.288   4.701
 7817TIP3    H223395   6.229   4.281   4.570
 7818TIP3   OH223396   6.563   4.251   4.457
 7818TIP3    H123397   6.485   4.256   4.515
 7818TIP3    H223398   6.634   4.225   4.521
 7819TIP3   OH223399   6.794   4.201   4.613
 7819TIP3    H123400   6.804   4.105   4.630
 7819TIP3    H223401   6.786   4.239   4.703
 7820TIP3   OH223402   5.769   4.141   4.809
 7820TIP3    H123403   5.776   4.050   4.775
 7820TIP3    H223404   5.808   4.131   4.898
 7821TIP3   OH223405   6.280   3.811   4.658
 7821TIP3    H123406   6.346   3.740   4.649
 7821TIP3    H223407   6.241   3.810   4.568
 7822TIP3   OH223408   6.349   4.028   4.814
 7822TIP3    H123409   6.327   3.957   4.750
 7822TIP3    H223410   6.271   4.087   4.807
 7823TIP3   OH223411   5.574   5.266   2.909
 7823TIP3    H123412   5.668   5.249   2.892
 7823TIP3    H223413   5.551   5.316   2.829
 7824TIP3   OH223414   5.052   4.640   3.127
 7824TIP3    H123415   5.147   4.662   3.112
 7824TIP3    H223416   5.047   4.551   3.086
 7825TIP3   OH223417   4.965   5.254   3.544
 7825TIP3    H123418   4.901   5.190   3.504
 7825TIP3    H223419   5.010   5.196   3.609
 7826TIP3   OH223420   5.092   5.105   3.734
 7826TIP3    H123421   5.091   5.027   3.791
 7826TIP3    H223422   5.152   5.163   3.784
 7827TIP3   OH223423   6.831   5.503   3.530
 7827TIP3    H123424   6.858   5.533   3.618
 7827TIP3    H223425   6.900   5.539   3.472
 7828TIP3   OH223426   6.857   5.522   3.813
 7828TIP3    H123427   6.810   5.436   3.809
 7828TIP3    H223428   6.933   5.495   3.867
 7829TIP3   OH223429   6.908   5.198   4.390
 7829TIP3    H123430   6.834   5.209   4.452
 7829TIP3    H223431   6.948   5.287   4.391
 7830TIP3   OH223432   6.726   4.709   3.003
 7830TIP3    H123433   6.791   4.776   2.973
 7830TIP3    H223434   6.769   4.673   3.083
 7831TIP3   OH223435   6.848   4.574   3.210
 7831TIP3    H123436   6.779   4.535   3.269
 7831TIP3    H223437   6.911   4.613   3.274
 7832TIP3   OH223438   6.909   4.974   3.642
 7832TIP3    H123439   6.955   4.904   3.593
 7832TIP3    H223440   6.900   5.045   3.575
 7833TIP3   OH223441   6.733   5.272   3.836
 7833TIP3    H123442   6.660   5.314   3.886
 7833TIP3    H223443   6.683   5.227   3.764
 7834TIP3   OH223444   6.785   4.487   2.852
 7834TIP3    H123445   6.713   4.489   2.785
 7834TIP3    H223446   6.757   4.563   2.908
 7835TIP3   OH223447   6.663   4.156   2.800
 7835TIP3    H123448   6.609   4.195   2.731
 7835TIP3    H223449   6.638   4.061   2.792
 7836TIP3   OH223450   6.655   4.433   3.360
 7836TIP3    H123451   6.662   4.341   3.328
 7836TIP3    H223452   6.623   4.420   3.451
 7837TIP3   OH223453   6.954   4.859   4.211
 7837TIP3    H123454   7.017   4.788   4.186
 7837TIP3    H223455   6.965   4.924   4.139
 7838TIP3   OH223456   7.130   4.648   4.216
 7838TIP3    H123457   7.087   4.588   4.282
 7838TIP3    H223458   7.223   4.651   4.251
 7839TIP3   OH223459   6.602   3.889   2.784
 7839TIP3    H123460   6.671   3.861   2.847
 7839TIP3    H223461   6.525   3.836   2.808
 7840TIP3   OH223462   6.666   4.171   3.242
 7840TIP3    H123463   6.696   4.081   3.265
 7840TIP3    H223464   6.723   4.189   3.165
 7841TIP3   OH223465   6.840   4.296   3.758
 7841TIP3    H123466   6.912   4.339   3.707
 7841TIP3    H223467   6.796   4.373   3.797
 7842TIP3   OH223468   6.897   4.467   4.005
 7842TIP3    H123469   6.822   4.520   4.039
 7842TIP3    H223470   6.944   4.536   3.952
 7843TIP3   OH223471   5.503   4.191   4.763
 7843TIP3    H123472   5.601   4.188   4.773
 7843TIP3    H223473   5.480   4.106   4.806
 7844TIP3   OH223474   7.331   4.068   4.505
 7844TIP3    H123475   7.390   3.992   4.489
 7844TIP3    H223476   7.352   4.123   4.428
 7845TIP3   OH223477   6.771   3.907   3.281
 7845TIP3    H123478   6.812   3.892   3.368
 7845TIP3    H223479   6.704   3.836   3.279
 7846TIP3   OH223480   5.459   3.909   4.139
 7846TIP3    H123481   5.509   3.826   4.127
 7846TIP3    H223482   5.534   3.973   4.129
 7847TIP3   OH223483   6.844   3.833   2.922
 7847TIP3    H123484   6.884   3.766   2.863
 7847TIP3    H223485   6.909   3.906   2.918
 7848TIP3   OH223486   5.242   3.638   3.666
 7848TIP3    H123487   5.151   3.648   3.697
 7848TIP3    H223488   5.249   3.711   3.601
 7849TIP3   OH223489   6.412   5.378   3.183
 7849TIP3    H123490   6.461   5.360   3.099
 7849TIP3    H223491   6.474   5.435   3.230
 7850TIP3   OH223492   5.473   3.746   4.494
 7850TIP3    H123493   5.421   3.745   4.576
 7850TIP3    H223494   5.408   3.782   4.431
 7851TIP3   OH223495   5.509   5.192   4.572
 7851TIP3    H123496   5.421   5.153   4.555
 7851TIP3    H223497   5.535   5.148   4.654
 7852TIP3   OH223498   5.694   5.215   4.118
 7852TIP3    H123499   5.648   5.291   4.076
 7852TIP3    H223500   5.780   5.224   4.070
 7853TIP3   OH223501   6.127   5.454   4.256
 7853TIP3    H123502   6.172   5.451   4.343
 7853TIP3    H223503   6.193   5.504   4.203
 7854TIP3   OH223504   6.307   5.608   4.116
 7854TIP3    H123505   6.372   5.554   4.069
 7854TIP3    H223506   6.365   5.661   4.174
 7855TIP3   OH223507   7.095   3.949   4.209
 7855TIP3    H123508   7.007   3.917   4.179
 7855TIP3    H223509   7.146   3.865   4.204
 7856TIP3   OH223510   5.365   5.467   4.137
 7856TIP3    H123511   5.275   5.498   4.114
 7856TIP3    H223512   5.372   5.500   4.227
 7857TIP3   OH223513   5.604   5.447   4.003
 7857TIP3    H123514   5.515   5.458   4.043
 7857TIP3    H223515   5.587   5.472   3.910
 7858TIP3   OH223516   6.026   5.466   3.802
 7858TIP3    H123517   5.958   5.482   3.733
 7858TIP3    H223518   6.038   5.556   3.839
 7859TIP3   OH223519   6.297   5.414   3.857
 7859TIP3    H123520   6.204   5.426   3.831
 7859TIP3    H223521   6.343   5.480   3.802
 7860TIP3   OH223522   6.501   5.599   3.761
 7860TIP3    H123523   6.490   5.683   3.712
 7860TIP3    H223524   6.530   5.538   3.690
 7861TIP3   OH223525   5.277   5.255   3.887
 7861TIP3    H123526   5.306   5.226   3.976
 7861TIP3    H223527   5.350   5.216   3.834
 7862TIP3   OH223528   5.476   5.139   3.743
 7862TIP3    H123529   5.491   5.046   3.768
 7862TIP3    H223530   5.567   5.169   3.727
 7863TIP3   OH223531   5.745   5.217   3.717
 7863TIP3    H123532   5.763   5.137   3.663
 7863TIP3    H223533   5.803   5.206   3.793
 7864TIP3   OH223534   6.339   3.880   3.858
 7864TIP3    H123535   6.274   3.815   3.888
 7864TIP3    H223536   6.396   3.829   3.798
 7865TIP3   OH223537   6.836   3.766   3.744
 7865TIP3    H123538   6.870   3.815   3.666
 7865TIP3    H223539   6.740   3.781   3.735
 7866TIP3   OH223540   6.932   3.852   3.503
 7866TIP3    H123541   7.005   3.803   3.460
 7866TIP3    H223542   6.963   3.944   3.488
 7867TIP3   OH223543   5.560   3.583   3.851
 7867TIP3    H123544   5.467   3.554   3.848
 7867TIP3    H223545   5.608   3.497   3.844
 7868TIP3   OH223546   5.358   3.452   3.496
 7868TIP3    H123547   5.383   3.513   3.424
 7868TIP3    H223548   5.320   3.515   3.562
 7869TIP3   OH223549   6.016   3.611   3.731
 7869TIP3    H123550   6.062   3.665   3.665
 7869TIP3    H223551   6.014   3.672   3.806
 7870TIP3   OH223552   6.559   3.766   3.712
 7870TIP3    H123553   6.543   3.737   3.621
 7870TIP3    H223554   6.541   3.684   3.764
 7871TIP3   OH223555   6.583   3.694   3.276
 7871TIP3    H123556   6.498   3.740   3.293
 7871TIP3    H223557   6.566   3.608   3.319
 7872TIP3   OH223558   5.063   5.033   3.274
 7872TIP3    H123559   4.977   5.001   3.242
 7872TIP3    H223560   5.056   5.126   3.249
 7873TIP3   OH223561   5.470   3.613   3.259
 7873TIP3    H123562   5.518   3.552   3.200
 7873TIP3    H223563   5.543   3.667   3.295
 7874TIP3   OH223564   5.975   3.797   3.363
 7874TIP3    H123565   6.049   3.769   3.421
 7874TIP3    H223566   5.950   3.881   3.404
 7875TIP3   OH223567   5.837   5.211   2.856
 7875TIP3    H123568   5.926   5.233   2.822
 7875TIP3    H223569   5.816   5.134   2.799
 7876TIP3   OH223570   6.560   5.336   2.953
 7876TIP3    H123571   6.553   5.238   2.944
 7876TIP3    H223572   6.513   5.365   2.872
 7877TIP3   OH223573   5.768   3.864   4.738
 7877TIP3    H123574   5.734   3.793   4.797
 7877TIP3    H223575   5.863   3.865   4.766
 7878TIP3   OH223576   6.019   3.865   4.857
 7878TIP3    H123577   6.104   3.843   4.816
 7878TIP3    H223578   6.010   3.793   4.923
 7879TIP3   OH223579   5.143   5.051   2.914
 7879TIP3    H123580   5.152   5.065   3.009
 7879TIP3    H223581   5.229   5.007   2.892
 7880TIP3   OH223582   6.848   3.929   4.645
 7880TIP3    H123583   6.866   3.899   4.737
 7880TIP3    H223584   6.938   3.924   4.605
 7881TIP3   OH223585   6.781   5.477   4.141
 7881TIP3    H123586   6.704   5.448   4.088
 7881TIP3    H223587   6.762   5.573   4.146
 7882TIP3   OH223588   8.044   4.851   2.901
 7882TIP3    H123589   8.016   4.943   2.881
 7882TIP3    H223590   7.971   4.801   2.860
 7883TIP3   OH223591   8.050   4.854   3.300
 7883TIP3    H123592   8.075   4.822   3.389
 7883TIP3    H223593   8.011   4.773   3.262
 7884TIP3   OH223594   7.348   4.746   3.658
 7884TIP3    H123595   7.380   4.678   3.720
 7884TIP3    H223596   7.432   4.784   3.627
 7885TIP3   OH223597   8.300   5.150   2.970
 7885TIP3    H123598   8.274   5.089   3.040
 7885TIP3    H223599   8.328   5.228   3.020
 7886TIP3   OH223600   7.325   5.159   3.375
 7886TIP3    H123601   7.316   5.061   3.375
 7886TIP3    H223602   7.421   5.167   3.360
 7887TIP3   OH223603   7.026   4.356   3.156
 7887TIP3    H123604   6.978   4.438   3.175
 7887TIP3    H223605   6.956   4.305   3.111
 7888TIP3   OH223606   7.084   4.646   3.340
 7888TIP3    H123607   7.135   4.567   3.370
 7888TIP3    H223608   7.141   4.681   3.270
 7889TIP3   OH223609   7.949   5.618   2.989
 7889TIP3    H123610   7.985   5.546   2.932
 7889TIP3    H223611   7.951   5.576   3.076
 7890TIP3   OH223612   7.848   5.079   3.338
 7890TIP3    H123613   7.889   5.003   3.294
 7890TIP3    H223614   7.930   5.126   3.364
 7891TIP3   OH223615   8.247   4.598   3.360
 7891TIP3    H123616   8.260   4.508   3.399
 7891TIP3    H223617   8.206   4.573   3.275
 7892TIP3   OH223618   7.598   4.237   3.333
 7892TIP3    H123619   7.585   4.310   3.268
 7892TIP3    H223620   7.551   4.165   3.286
 7893TIP3   OH223621   8.289   4.331   2.963
 7893TIP3    H123622   8.361   4.274   2.995
 7893TIP3    H223623   8.335   4.379   2.893
 7894TIP3   OH223624   7.230   4.436   3.441
 7894TIP3    H123625   7.316   4.419   3.486
 7894TIP3    H223626   7.244   4.383   3.359
 7895TIP3   OH223627   7.669   4.636   3.244
 7895TIP3    H123628   7.765   4.614   3.250
 7895TIP3    H223629   7.634   4.553   3.205
 7896TIP3   OH223630   7.595   4.220   3.761
 7896TIP3    H123631   7.538   4.258   3.693
 7896TIP3    H223632   7.544   4.242   3.842
 7897TIP3   OH223633   7.956   5.085   2.786
 7897TIP3    H123634   7.913   5.060   2.701
 7897TIP3    H223635   7.894   5.156   2.814
 7898TIP3   OH223636   7.708   4.995   3.557
 7898TIP3    H123637   7.648   5.065   3.591
 7898TIP3    H223638   7.750   5.040   3.481
 7899TIP3   OH223639   7.466   4.336   3.549
 7899TIP3    H123640   7.529   4.410   3.571
 7899TIP3    H223641   7.514   4.297   3.472
 7900TIP3   OH223642   7.536   5.196   3.658
 7900TIP3    H123643   7.510   5.281   3.618
 7900TIP3    H223644   7.455   5.178   3.711
 7901TIP3   OH223645   6.922   4.885   2.893
 7901TIP3    H123646   6.882   4.911   2.808
 7901TIP3    H223647   6.955   4.971   2.926
 7902TIP3   OH223648   8.370   5.388   3.130
 7902TIP3    H123649   8.279   5.383   3.169
 7902TIP3    H223650   8.364   5.472   3.080
 7903TIP3   OH223651   7.934   3.930   3.479
 7903TIP3    H123652   7.914   3.837   3.498
 7903TIP3    H223653   7.858   3.974   3.524
 7904TIP3   OH223654   8.056   5.443   2.799
 7904TIP3    H123655   8.107   5.361   2.783
 7904TIP3    H223656   8.118   5.509   2.761
 7905TIP3   OH223657   8.200   5.223   2.717
 7905TIP3    H123658   8.130   5.157   2.708
 7905TIP3    H223659   8.245   5.192   2.799
 7906TIP3   OH223660   8.580   5.304   3.479
 7906TIP3    H123661   8.585   5.230   3.416
 7906TIP3    H223662   8.573   5.382   3.422
 7907TIP3   OH223663   7.878   4.712   2.732
 7907TIP3    H123664   7.796   4.764   2.714
 7907TIP3    H223665   7.915   4.705   2.642
 7908TIP3   OH223666   7.835   4.454   2.479
 7908TIP3    H123667   7.873   4.543   2.488
 7908TIP3    H223668   7.899   4.414   2.418
 7909TIP3   OH223669   8.222   4.792   2.704
 7909TIP3    H123670   8.164   4.818   2.779
 7909TIP3    H223671   8.293   4.744   2.752
 7910TIP3   OH223672   8.478   4.854   3.541
 7910TIP3    H123673   8.496   4.893   3.629
 7910TIP3    H223674   8.407   4.792   3.566
 7911TIP3   OH223675   7.457   4.781   3.129
 7911TIP3    H123676   7.417   4.723   3.061
 7911TIP3    H223677   7.535   4.727   3.157
 7912TIP3   OH223678   7.587   5.192   3.271
 7912TIP3    H123679   7.569   5.165   3.180
 7912TIP3    H223680   7.676   5.155   3.286
 7913TIP3   OH223681   7.586   4.758   3.482
 7913TIP3    H123682   7.621   4.727   3.395
 7913TIP3    H223683   7.637   4.841   3.497
 7914TIP3   OH223684   8.128   5.384   3.247
 7914TIP3    H123685   8.105   5.472   3.285
 7914TIP3    H223686   8.103   5.321   3.317
 7915TIP3   OH223687   7.734   5.305   3.813
 7915TIP3    H123688   7.670   5.368   3.853
 7915TIP3    H223689   7.673   5.254   3.756
 7916TIP3   OH223690   8.067   4.635   2.532
 7916TIP3    H123691   8.119   4.707   2.575
 7916TIP3    H223692   8.083   4.656   2.437
 7917TIP3   OH223693   7.495   4.864   3.918
 7917TIP3    H123694   7.495   4.955   3.952
 7917TIP3    H223695   7.399   4.847   3.913
 7918TIP3   OH223696   7.809   5.327   2.821
 7918TIP3    H123697   7.896   5.372   2.818
 7918TIP3    H223698   7.755   5.383   2.765
 7919TIP3   OH223699   7.530   5.476   3.891
 7919TIP3    H123700   7.497   5.481   3.799
 7919TIP3    H223701   7.448   5.454   3.941
 7920TIP3   OH223702   7.324   4.627   2.935
 7920TIP3    H123703   7.259   4.671   2.876
 7920TIP3    H223704   7.290   4.537   2.937
 7921TIP3   OH223705   8.377   5.255   2.136
 7921TIP3    H123706   8.381   5.349   2.114
 7921TIP3    H223707   8.458   5.221   2.096
 7922TIP3   OH223708   7.106   5.016   3.835
 7922TIP3    H123709   7.037   4.998   3.768
 7922TIP3    H223710   7.143   4.927   3.853
 7923TIP3   OH223711   6.963   5.204   3.466
 7923TIP3    H123712   7.059   5.197   3.456
 7923TIP3    H223713   6.956   5.282   3.523
 7924TIP3   OH223714   7.922   5.440   3.661
 7924TIP3    H123715   7.925   5.534   3.689
 7924TIP3    H223716   7.853   5.404   3.719
 7925TIP3   OH223717   7.696   5.565   2.613
 7925TIP3    H123718   7.649   5.546   2.529
 7925TIP3    H223719   7.661   5.652   2.638
 7926TIP3   OH223720   7.131   5.416   2.999
 7926TIP3    H123721   7.178   5.406   3.085
 7926TIP3    H223722   7.085   5.330   2.993
 7927TIP3   OH223723   7.893   5.473   2.250
 7927TIP3    H123724   7.949   5.401   2.213
 7927TIP3    H223725   7.929   5.481   2.341
 7928TIP3   OH223726   7.946   5.519   2.519
 7928TIP3    H123727   7.859   5.527   2.563
 7928TIP3    H223728   7.999   5.476   2.588
 7929TIP3   OH223729   7.314   5.194   3.819
 7929TIP3    H123730   7.360   5.177   3.903
 7929TIP3    H223731   7.238   5.133   3.825
 7930TIP3   OH223732   7.709   4.013   3.614
 7930TIP3    H123733   7.620   3.985   3.583
 7930TIP3    H223734   7.685   4.096   3.659
 7931TIP3   OH223735   8.212   4.133   3.771
 7931TIP3    H123736   8.276   4.119   3.842
 7931TIP3    H223737   8.128   4.135   3.820
 7932TIP3   OH223738   8.160   4.661   2.275
 7932TIP3    H123739   8.093   4.658   2.205
 7932TIP3    H223740   8.203   4.744   2.254
 7933TIP3   OH223741   7.866   4.057   2.583
 7933TIP3    H123742   7.827   4.058   2.673
 7933TIP3    H223743   7.823   3.977   2.547
 7934TIP3   OH223744   7.642   4.534   3.626
 7934TIP3    H123745   7.595   4.556   3.709
 7934TIP3    H223746   7.626   4.615   3.574
 7935TIP3   OH223747   7.528   4.419   3.143
 7935TIP3    H123748   7.435   4.393   3.160
 7935TIP3    H223749   7.541   4.378   3.055
 7936TIP3   OH223750   8.014   4.508   2.864
 7936TIP3    H123751   7.961   4.579   2.822
 7936TIP3    H223752   8.069   4.479   2.790
 7937TIP3   OH223753   8.207   4.808   3.987
 7937TIP3    H123754   8.172   4.726   4.031
 7937TIP3    H223755   8.251   4.765   3.909
 7938TIP3   OH223756   8.155   4.533   3.107
 7938TIP3    H123757   8.096   4.551   3.030
 7938TIP3    H223758   8.197   4.451   3.073
 7939TIP3   OH223759   7.467   4.562   3.841
 7939TIP3    H123760   7.511   4.625   3.901
 7939TIP3    H223761   7.463   4.481   3.895
 7940TIP3   OH223762   7.511   4.037   2.547
 7940TIP3    H123763   7.501   4.040   2.645
 7940TIP3    H223764   7.436   4.093   2.520
 7941TIP3   OH223765   7.059   4.075   3.423
 7941TIP3    H123766   7.134   4.113   3.472
 7941TIP3    H223767   7.095   4.053   3.336
 7942TIP3   OH223768   7.018   4.060   2.937
 7942TIP3    H123769   7.063   4.097   2.858
 7942TIP3    H223770   6.957   4.134   2.956
 7943TIP3   OH223771   8.142   4.752   3.561
 7943TIP3    H123772   8.191   4.702   3.492
 7943TIP3    H223773   8.197   4.726   3.639
 7944TIP3   OH223774   7.850   4.261   3.200
 7944TIP3    H123775   7.780   4.247   3.266
 7944TIP3    H223776   7.928   4.218   3.243
 7945TIP3   OH223777   7.288   4.298   3.211
 7945TIP3    H123778   7.194   4.305   3.180
 7945TIP3    H223779   7.313   4.207   3.185
 7946TIP3   OH223780   7.552   4.291   2.902
 7946TIP3    H123781   7.646   4.307   2.883
 7946TIP3    H223782   7.508   4.313   2.817
 7947TIP3   OH223783   8.274   4.339   3.433
 7947TIP3    H123784   8.279   4.331   3.529
 7947TIP3    H223785   8.351   4.283   3.406
 7948TIP3   OH223786   7.406   4.324   2.674
 7948TIP3    H123787   7.338   4.281   2.619
 7948TIP3    H223788   7.460   4.368   2.604
 7949TIP3   OH223789   7.473   5.114   4.047
 7949TIP3    H123790   7.554   5.144   4.093
 7949TIP3    H223791   7.408   5.119   4.119
 7950TIP3   OH223792   7.936   4.572   3.299
 7950TIP3    H123793   8.001   4.533   3.238
 7950TIP3    H223794   7.947   4.515   3.377
 7951TIP3   OH223795   7.454   4.057   3.182
 7951TIP3    H123796   7.420   3.978   3.230
 7951TIP3    H223797   7.498   4.017   3.106
 7952TIP3   OH223798   7.910   4.455   3.598
 7952TIP3    H123799   7.821   4.497   3.601
 7952TIP3    H223800   7.969   4.526   3.626
 7953TIP3   OH223801   7.638   4.841   2.694
 7953TIP3    H123802   7.560   4.785   2.679
 7953TIP3    H223803   7.618   4.883   2.781
 7954TIP3   OH223804   8.556   5.098   3.293
 7954TIP3    H123805   8.547   5.107   3.197
 7954TIP3    H223806   8.475   5.048   3.314
 7955TIP3   OH223807   8.116   4.161   2.550
 7955TIP3    H123808   8.020   4.136   2.556
 7955TIP3    H223809   8.111   4.259   2.554
 7956TIP3   OH223810   8.050   5.183   3.688
 7956TIP3    H123811   8.011   5.134   3.760
 7956TIP3    H223812   8.005   5.269   3.690
 7957TIP3   OH223813   8.207   4.427   2.635
 7957TIP3    H123814   8.288   4.478   2.635
 7957TIP3    H223815   8.146   4.491   2.591
 7958TIP3   OH223816   7.344   4.882   3.358
 7958TIP3    H123817   7.378   4.855   3.271
 7958TIP3    H223818   7.395   4.823   3.417
 7959TIP3   OH223819   7.834   5.036   2.553
 7959TIP3    H123820   7.761   5.100   2.536
 7959TIP3    H223821   7.813   4.964   2.490
 7960TIP3   OH223822   7.223   4.801   3.973
 7960TIP3    H123823   7.245   4.777   4.065
 7960TIP3    H223824   7.154   4.736   3.951
 7961TIP3   OH223825   7.955   4.919   3.987
 7961TIP3    H123826   7.905   4.852   3.939
 7961TIP3    H223827   8.047   4.886   3.974
 7962TIP3   OH223828   8.226   5.452   3.615
 7962TIP3    H123829   8.132   5.433   3.600
 7962TIP3    H223830   8.236   5.541   3.574
 7963TIP3   OH223831   8.312   5.336   2.402
 7963TIP3    H123832   8.296   5.276   2.476
 7963TIP3    H223833   8.330   5.277   2.327
 7964TIP3   OH223834   8.304   4.961   3.228
 7964TIP3    H123835   8.211   4.935   3.244
 7964TIP3    H223836   8.343   4.876   3.205
 7965TIP3   OH223837   7.448   5.189   2.997
 7965TIP3    H123838   7.449   5.265   2.936
 7965TIP3    H223839   7.355   5.162   2.992
 7966TIP3   OH223840   7.011   4.485   2.693
 7966TIP3    H123841   7.056   4.569   2.714
 7966TIP3    H223842   6.933   4.490   2.754
 7967TIP3   OH223843   7.572   4.946   2.935
 7967TIP3    H123844   7.544   5.038   2.954
 7967TIP3    H223845   7.536   4.897   3.011
 7968TIP3   OH223846   7.715   5.526   3.451
 7968TIP3    H123847   7.756   5.599   3.400
 7968TIP3    H223848   7.794   5.487   3.493
 7969TIP3   OH223849   7.360   5.425   2.837
 7969TIP3    H123850   7.276   5.433   2.885
 7969TIP3    H223851   7.392   5.518   2.841
 7970TIP3   OH223852   8.100   5.164   3.421
 7970TIP3    H123853   8.100   5.158   3.519
 7970TIP3    H223854   8.178   5.111   3.398
 7971TIP3   OH223855   8.057   5.056   2.300
 7971TIP3    H123856   8.104   5.038   2.385
 7971TIP3    H223857   7.988   4.985   2.305
 7972TIP3   OH223858   7.450   4.298   3.984
 7972TIP3    H123859   7.357   4.270   3.990
 7972TIP3    H223860   7.490   4.248   4.058
 7973TIP3   OH223861   8.238   4.988   2.509
 7973TIP3    H123862   8.215   4.919   2.574
 7973TIP3    H223863   8.312   5.030   2.553
 7974TIP3   OH223864   7.151   5.388   3.611
 7974TIP3    H123865   7.207   5.316   3.645
 7974TIP3    H223866   7.181   5.462   3.665
 7975TIP3   OH223867   7.444   5.030   2.298
 7975TIP3    H123868   7.460   4.937   2.274
 7975TIP3    H223869   7.427   5.022   2.393
 7976TIP3   OH223870   7.385   5.038   2.572
 7976TIP3    H123871   7.471   5.010   2.607
 7976TIP3    H223872   7.391   5.136   2.581
 7977TIP3   OH223873   7.118   4.728   2.775
 7977TIP3    H123874   7.052   4.776   2.828
 7977TIP3    H223875   7.136   4.795   2.706
 7978TIP3   OH223876   8.131   4.129   2.840
 7978TIP3    H123877   8.128   4.143   2.744
 7978TIP3    H223878   8.177   4.209   2.872
 7979TIP3   OH223879   7.642   5.233   2.515
 7979TIP3    H123880   7.555   5.262   2.548
 7979TIP3    H223881   7.665   5.305   2.455
 7980TIP3   OH223882   7.833   4.303   2.930
 7980TIP3    H123883   7.898   4.375   2.912
 7980TIP3    H223884   7.842   4.293   3.028
 7981TIP3   OH223885   7.978   4.007   3.029
 7981TIP3    H123886   8.007   4.059   3.107
 7981TIP3    H223887   8.033   4.051   2.959
 7982TIP3   OH223888   7.391   5.314   2.586
 7982TIP3    H123889   7.363   5.387   2.526
 7982TIP3    H223890   7.378   5.356   2.674
 7983TIP3   OH223891   7.496   4.027   2.825
 7983TIP3    H123892   7.493   4.118   2.860
 7983TIP3    H223893   7.593   4.011   2.831
 7984TIP3   OH223894   8.395   4.698   3.143
 7984TIP3    H123895   8.310   4.660   3.115
 7984TIP3    H223896   8.400   4.660   3.234
 7985TIP3   OH223897   7.119   4.936   2.577
 7985TIP3    H123898   7.196   4.996   2.587
 7985TIP3    H223899   7.158   4.874   2.512
 7986TIP3   OH223900   7.053   4.213   2.713
 7986TIP3    H123901   7.060   4.311   2.711
 7986TIP3    H223902   6.971   4.200   2.664
 7987TIP3   OH223903   8.387   5.644   3.028
 7987TIP3    H123904   8.335   5.704   2.971
 7987TIP3    H223905   8.452   5.705   3.066
 7988TIP3   OH223906   7.445   3.936   3.581
 7988TIP3    H123907   7.416   3.903   3.493
 7988TIP3    H223908   7.433   3.856   3.637
 7989TIP3   OH223909   6.983   5.159   2.961
 7989TIP3    H123910   6.918   5.185   3.027
 7989TIP3    H223911   6.947   5.201   2.879
 7990TIP3   OH223912   7.145   5.704   4.035
 7990TIP3    H123913   7.231   5.705   4.082
 7990TIP3    H223914   7.126   5.609   4.033
 7991TIP3   OH223915   7.616   5.656   4.087
 7991TIP3    H123916   7.712   5.656   4.083
 7991TIP3    H223917   7.594   5.593   4.014
 7992TIP3   OH223918   7.607   5.235   2.203
 7992TIP3    H123919   7.555   5.162   2.245
 7992TIP3    H223920   7.684   5.184   2.171
 7993TIP3   OH223921   8.268   5.548   3.881
 7993TIP3    H123922   8.271   5.512   3.787
 7993TIP3    H223923   8.334   5.622   3.871
 7994TIP3   OH223924   8.029   5.273   2.117
 7994TIP3    H123925   8.058   5.206   2.183
 7994TIP3    H223926   8.093   5.260   2.045
 7995TIP3   OH223927   7.270   5.107   4.236
 7995TIP3    H123928   7.274   5.011   4.254
 7995TIP3    H223929   7.184   5.113   4.188
 7996TIP3   OH223930   7.249   4.746   2.438
 7996TIP3    H123931   7.310   4.718   2.510
 7996TIP3    H223932   7.314   4.752   2.364
 7997TIP3   OH223933   7.886   5.191   4.009
 7997TIP3    H123934   7.836   5.213   3.928
 7997TIP3    H223935   7.908   5.096   3.996
 7998TIP3   OH223936   8.379   5.209   3.639
 7998TIP3    H123937   8.455   5.241   3.585
 7998TIP3    H223938   8.315   5.281   3.624
 7999TIP3   OH223939   7.388   4.801   4.233
 7999TIP3    H123940   7.472   4.791   4.186
 7999TIP3    H223941   7.416   4.854   4.311
 8000TIP3   OH223942   7.436   4.655   2.643
 8000TIP3    H123943   7.427   4.610   2.728
 8000TIP3    H223944   7.488   4.589   2.592
 8001TIP3   OH223945   7.726   4.717   3.874
 8001TIP3    H123946   7.653   4.783   3.879
 8001TIP3    H223947   7.781   4.753   3.801
 8002TIP3   OH223948   7.562   4.456   2.495
 8002TIP3    H123949   7.544   4.469   2.399
 8002TIP3    H223950   7.660   4.451   2.494
 8003TIP3   OH223951   7.835   4.506   4.007
 8003TIP3    H123952   7.845   4.429   3.947
 8003TIP3    H223953   7.799   4.575   3.947
 8004TIP3   OH223954   7.851   4.296   3.818
 8004TIP3    H123955   7.883   4.339   3.735
 8004TIP3    H223956   7.758   4.275   3.793
 8005TIP3   OH223957   7.888   4.823   3.688
 8005TIP3    H123958   7.976   4.819   3.645
 8005TIP3    H223959   7.840   4.887   3.632
 8006TIP3   OH223960   8.514   4.794   4.099
 8006TIP3    H123961   8.476   4.716   4.054
 8006TIP3    H223962   8.527   4.852   4.022
 8007TIP3   OH223963   8.518   5.052   3.811
 8007TIP3    H123964   8.461   5.099   3.745
 8007TIP3    H223965   8.597   5.034   3.755
 8008TIP3   OH223966   7.728   4.620   4.241
 8008TIP3    H123967   7.660   4.552   4.258
 8008TIP3    H223968   7.760   4.593   4.153
 8009TIP3   OH223969   7.972   4.062   3.893
 8009TIP3    H123970   7.922   4.143   3.868
 8009TIP3    H223971   7.905   3.992   3.877
 8010TIP3   OH223972   8.079   4.603   4.110
 8010TIP3    H123973   8.080   4.561   4.197
 8010TIP3    H223974   8.002   4.559   4.069
 8011TIP3   OH223975   8.617   4.435   4.126
 8011TIP3    H123976   8.596   4.346   4.157
 8011TIP3    H223977   8.581   4.491   4.196
 8012TIP3   OH223978   7.566   4.405   4.302
 8012TIP3    H123979   7.562   4.316   4.265
 8012TIP3    H223980   7.604   4.388   4.390
 8013TIP3   OH223981   8.073   4.066   4.147
 8013TIP3    H123982   8.133   3.990   4.139
 8013TIP3    H223983   8.035   4.068   4.056
 8014TIP3   OH223984   8.145   4.284   4.301
 8014TIP3    H123985   8.123   4.214   4.236
 8014TIP3    H223986   8.067   4.343   4.296
 8015TIP3   OH223987   7.370   5.522   2.401
 8015TIP3    H123988   7.465   5.506   2.381
 8015TIP3    H223989   7.345   5.570   2.320
 8016TIP3   OH223990   6.848   4.898   2.612
 8016TIP3    H123991   6.944   4.919   2.598
 8016TIP3    H223992   6.842   4.809   2.571
 8017TIP3   OH223993   6.762   5.509   3.032
 8017TIP3    H123994   6.698   5.446   2.992
 8017TIP3    H223995   6.808   5.449   3.095
 8018TIP3   OH223996   6.895   5.354   3.218
 8018TIP3    H123997   6.883   5.283   3.284
 8018TIP3    H223998   6.950   5.416   3.268
 8019TIP3   OH223999   8.705   5.741   3.298
 8019TIP3    H124000   8.648   5.662   3.291
 8019TIP3    H224001   8.680   5.772   3.387
 8020TIP3   OH224002   8.662   5.472   3.890
 8020TIP3    H124003   8.588   5.479   3.953
 8020TIP3    H224004   8.703   5.560   3.893
 8021TIP3   OH224005   8.517   5.538   3.316
 8021TIP3    H124006   8.438   5.571   3.363
 8021TIP3    H224007   8.475   5.481   3.248
 8022TIP3   OH224008   8.431   4.660   2.833
 8022TIP3    H124009   8.521   4.621   2.843
 8022TIP3    H224010   8.426   4.707   2.918
 8023TIP3   OH224011   7.081   4.754   3.595
 8023TIP3    H124012   7.078   4.726   3.502
 8023TIP3    H224013   7.179   4.763   3.608
 8024TIP3   OH224014   7.263   4.144   3.602
 8024TIP3    H124015   7.327   4.069   3.601
 8024TIP3    H224016   7.323   4.219   3.586
 8025TIP3   OH224017   7.070   4.420   3.674
 8025TIP3    H124018   7.117   4.409   3.589
 8025TIP3    H224019   7.089   4.513   3.692
 8026TIP3   OH224020   7.048   3.919   3.166
 8026TIP3    H124021   6.956   3.915   3.195
 8026TIP3    H224022   7.041   3.978   3.088
 8027TIP3   OH224023   8.201   5.632   2.673
 8027TIP3    H124024   8.251   5.621   2.589
 8027TIP3    H224025   8.262   5.684   2.726
 8028TIP3   OH224026   7.271   4.015   3.990
 8028TIP3    H124027   7.213   4.000   4.067
 8028TIP3    H224028   7.208   4.060   3.929
 8029TIP3   OH224029   7.309   5.429   4.054
 8029TIP3    H124030   7.216   5.407   4.038
 8029TIP3    H224031   7.316   5.417   4.150
 8030TIP3   OH224032   7.492   5.470   3.606
 8030TIP3    H124033   7.444   5.545   3.566
 8030TIP3    H224034   7.577   5.481   3.558
 8031TIP3   OH224035   7.952   5.722   3.728
 8031TIP3    H124036   7.981   5.718   3.821
 8031TIP3    H224037   8.037   5.742   3.684
 8032TIP3   OH224038   7.162   5.720   3.630
 8032TIP3    H124039   7.071   5.750   3.608
 8032TIP3    H224040   7.177   5.771   3.711
 8033TIP3   OH224041   7.399   5.700   3.489
 8033TIP3    H124042   7.310   5.711   3.531
 8033TIP3    H224043   7.381   5.729   3.397
 8034TIP3   OH224044   7.814   5.729   3.287
 8034TIP3    H124045   7.748   5.746   3.217
 8034TIP3    H224046   7.827   5.818   3.325
 8035TIP3   OH224047   8.079   5.638   3.326
 8035TIP3    H124048   7.997   5.687   3.308
 8035TIP3    H224049   8.137   5.704   3.368
 8036TIP3   OH224050   7.073   5.512   3.372
 8036TIP3    H124051   7.101   5.483   3.462
 8036TIP3    H224052   7.145   5.470   3.320
 8037TIP3   OH224053   7.270   5.386   3.234
 8037TIP3    H124054   7.285   5.302   3.282
 8037TIP3    H224055   7.361   5.421   3.228
 8038TIP3   OH224056   7.537   5.479   3.236
 8038TIP3    H124057   7.568   5.388   3.220
 8038TIP3    H224058   7.588   5.499   3.318
 8039TIP3   OH224059   8.063   4.104   3.276
 8039TIP3    H124060   8.049   4.053   3.358
 8039TIP3    H224061   8.160   4.096   3.264
 8040TIP3   OH224062   7.359   3.842   3.335
 8040TIP3    H124063   7.266   3.811   3.337
 8040TIP3    H224064   7.406   3.757   3.329
 8041TIP3   OH224065   7.153   3.715   2.987
 8041TIP3    H124066   7.179   3.772   2.912
 8041TIP3    H224067   7.122   3.781   3.052
 8042TIP3   OH224068   7.808   3.871   3.218
 8042TIP3    H124069   7.856   3.918   3.147
 8042TIP3    H224070   7.843   3.916   3.297
 8043TIP3   OH224071   8.312   4.003   3.197
 8043TIP3    H124072   8.337   3.985   3.106
 8043TIP3    H224073   8.311   3.913   3.236
 8044TIP3   OH224074   6.861   5.290   2.759
 8044TIP3    H124075   6.776   5.255   2.728
 8044TIP3    H224076   6.851   5.383   2.732
 8045TIP3   OH224077   7.267   3.869   2.749
 8045TIP3    H124078   7.315   3.809   2.688
 8045TIP3    H224079   7.339   3.925   2.783
 8046TIP3   OH224080   7.773   4.051   2.845
 8046TIP3    H124081   7.836   4.009   2.906
 8046TIP3    H224082   7.791   4.146   2.867
 8047TIP3   OH224083   7.634   5.469   2.344
 8047TIP3    H124084   7.723   5.491   2.310
 8047TIP3    H224085   7.614   5.394   2.285
 8048TIP3   OH224086   8.341   5.602   2.441
 8048TIP3    H124087   8.342   5.504   2.435
 8048TIP3    H224088   8.314   5.625   2.351
 8049TIP3   OH224089   7.561   4.120   4.231
 8049TIP3    H124090   7.534   4.043   4.284
 8049TIP3    H224091   7.656   4.126   4.257
 8050TIP3   OH224092   7.814   4.122   4.344
 8050TIP3    H124093   7.900   4.104   4.303
 8050TIP3    H224094   7.808   4.050   4.410
 8051TIP3   OH224095   6.939   5.308   2.399
 8051TIP3    H124096   6.945   5.319   2.495
 8051TIP3    H224097   7.025   5.264   2.379
 8052TIP3   OH224098   8.596   5.761   3.636
 8052TIP3    H124099   8.516   5.715   3.606
 8052TIP3    H224100   8.570   5.853   3.620
 8053TIP3   OH224101   0.506   5.644   4.593
 8053TIP3    H124102   0.469   5.734   4.591
 8053TIP3    H224103   0.436   5.596   4.543
 8054TIP3   OH224104   0.524   5.626   4.964
 8054TIP3    H124105   0.544   5.605   5.057
 8054TIP3    H224106   0.466   5.553   4.938
 8055TIP3   OH224107   0.753   5.942   4.663
 8055TIP3    H124108   0.736   5.879   4.735
 8055TIP3    H224109   0.780   6.022   4.712
 8056TIP3   OH224110   0.446   6.432   4.662
 8056TIP3    H124111   0.491   6.350   4.637
 8056TIP3    H224112   0.377   6.399   4.723
 8057TIP3   OH224113   0.326   5.834   5.036
 8057TIP3    H124114   0.357   5.767   4.974
 8057TIP3    H224115   0.409   5.883   5.053
 8058TIP3   OH224116   1.319   5.185   5.024
 8058TIP3    H124117   1.347   5.269   5.067
 8058TIP3    H224118   1.338   5.205   4.931
 8059TIP3   OH224119   0.709   5.363   5.057
 8059TIP3    H124120   0.753   5.278   5.076
 8059TIP3    H224121   0.680   5.350   4.965
 8060TIP3   OH224122   0.748   5.120   4.643
 8060TIP3    H124123   0.821   5.106   4.708
 8060TIP3    H224124   0.800   5.154   4.567
 8061TIP3   OH224125   1.389   5.394   5.194
 8061TIP3    H124126   1.305   5.441   5.176
 8061TIP3    H224127   1.413   5.433   5.280
 8062TIP3   OH224128   0.371   5.870   4.475
 8062TIP3    H124129   0.349   5.832   4.388
 8062TIP3    H224130   0.452   5.923   4.454
 8063TIP3   OH224131   0.952   5.124   4.823
 8063TIP3    H124132   0.928   5.087   4.909
 8063TIP3    H224133   1.003   5.203   4.849
 8064TIP3   OH224134   0.814   6.185   4.819
 8064TIP3    H124135   0.724   6.179   4.861
 8064TIP3    H224136   0.808   6.275   4.779
 8065TIP3   OH224137   1.110   5.080   5.186
 8065TIP3    H124138   1.023   5.110   5.154
 8065TIP3    H224139   1.171   5.115   5.118
 8066TIP3   OH224140   0.408   4.715   5.159
 8066TIP3    H124141   0.398   4.620   5.180
 8066TIP3    H224142   0.364   4.756   5.234
 8067TIP3   OH224143   0.509   6.216   4.484
 8067TIP3    H124144   0.554   6.130   4.465
 8067TIP3    H224145   0.577   6.279   4.449
 8068TIP3   OH224146   0.624   5.980   4.420
 8068TIP3    H124147   0.662   5.922   4.349
 8068TIP3    H224148   0.684   5.960   4.496
 8069TIP3   OH224149   1.040   6.095   5.169
 8069TIP3    H124150   1.027   6.020   5.108
 8069TIP3    H224151   1.020   6.172   5.111
 8070TIP3   OH224152   0.339   5.503   4.434
 8070TIP3    H124153   0.254   5.456   4.453
 8070TIP3    H224154   0.348   5.496   4.338
 8071TIP3   OH224155   0.308   5.286   4.141
 8071TIP3    H124156   0.383   5.337   4.179
 8071TIP3    H224157   0.358   5.218   4.090
 8072TIP3   OH224158   1.235   5.736   5.015
 8072TIP3    H124159   1.152   5.788   5.018
 8072TIP3    H224160   1.267   5.761   4.926
 8073TIP3   OH224161   0.683   5.568   4.397
 8073TIP3    H124162   0.629   5.595   4.475
 8073TIP3    H224163   0.768   5.546   4.440
 8074TIP3   OH224164   0.916   5.612   5.317
 8074TIP3    H124165   0.914   5.694   5.369
 8074TIP3    H224166   0.831   5.620   5.268
 8075TIP3   OH224167   0.574   6.185   4.941
 8075TIP3    H124168   0.548   6.268   4.985
 8075TIP3    H224169   0.555   6.117   5.009
 8076TIP3   OH224170   0.526   5.426   4.222
 8076TIP3    H124171   0.577   5.492   4.275
 8076TIP3    H224172   0.552   5.451   4.130
 8077TIP3   OH224173   1.036   4.669   4.273
 8077TIP3    H124174   0.955   4.693   4.323
 8077TIP3    H224175   1.051   4.752   4.223
 8078TIP3   OH224176   0.824   6.053   3.827
 8078TIP3    H124177   0.847   6.145   3.801
 8078TIP3    H224178   0.907   6.006   3.807
 8079TIP3   OH224179   1.278   6.447   5.219
 8079TIP3    H124180   1.276   6.351   5.233
 8079TIP3    H224181   1.194   6.473   5.263
 8080TIP3   OH224182   0.373   6.262   3.930
 8080TIP3    H124183   0.426   6.182   3.909
 8080TIP3    H224184   0.374   6.264   4.027
 8081TIP3   OH224185   0.394   6.310   4.216
 8081TIP3    H124186   0.328   6.314   4.287
 8081TIP3    H224187   0.474   6.288   4.267
 8082TIP3   OH224188   1.168   5.572   5.493
 8082TIP3    H124189   1.085   5.583   5.445
 8082TIP3    H224190   1.183   5.476   5.484
 8083TIP3   OH224191   0.710   4.918   5.492
 8083TIP3    H124192   0.780   4.893   5.557
 8083TIP3    H224193   0.627   4.902   5.542
 8084TIP3   OH224194   0.931   5.347   5.409
 8084TIP3    H124195   0.884   5.344   5.496
 8084TIP3    H224196   0.911   5.438   5.378
 8085TIP3   OH224197   0.592   5.459   3.963
 8085TIP3    H124198   0.561   5.442   3.872
 8085TIP3    H224199   0.661   5.526   3.942
 8086TIP3   OH224200   0.296   4.859   4.243
 8086TIP3    H124201   0.285   4.857   4.342
 8086TIP3    H224202   0.268   4.767   4.224
 8087TIP3   OH224203   0.475   5.299   4.565
 8087TIP3    H124204   0.425   5.373   4.525
 8087TIP3    H224205   0.522   5.263   4.488
 8088TIP3   OH224206   0.672   5.555   5.629
 8088TIP3    H124207   0.644   5.486   5.693
 8088TIP3    H224208   0.764   5.571   5.657
 8089TIP3   OH224209   0.623   5.318   4.800
 8089TIP3    H124210   0.562   5.348   4.729
 8089TIP3    H224211   0.659   5.239   4.753
 8090TIP3   OH224212   0.630   5.564   5.220
 8090TIP3    H124213   0.668   5.495   5.160
 8090TIP3    H224214   0.604   5.507   5.296
 8091TIP3   OH224215   0.315   5.019   4.883
 8091TIP3    H124216   0.225   5.053   4.900
 8091TIP3    H224217   0.364   5.045   4.962
 8092TIP3   OH224218   0.799   5.102   5.096
 8092TIP3    H124219   0.770   5.118   5.189
 8092TIP3    H224220   0.729   5.040   5.067
 8093TIP3   OH224221   0.978   6.788   5.317
 8093TIP3    H124222   0.971   6.814   5.223
 8093TIP3    H224223   1.054   6.842   5.347
 8094TIP3   OH224224   0.402   5.339   4.989
 8094TIP3    H124225   0.479   5.319   4.933
 8094TIP3    H224226   0.428   5.304   5.076
 8095TIP3   OH224227   0.394   5.238   5.282
 8095TIP3    H124228   0.330   5.313   5.272
 8095TIP3    H224229   0.466   5.284   5.329
 8096TIP3   OH224230   1.002   5.880   5.000
 8096TIP3    H124231   1.026   5.933   4.921
 8096TIP3    H224232   0.918   5.838   4.972
 8097TIP3   OH224233   0.556   4.953   4.243
 8097TIP3    H124234   0.459   4.938   4.244
 8097TIP3    H224235   0.565   5.046   4.270
 8098TIP3   OH224236   0.482   5.970   5.376
 8098TIP3    H124237   0.530   5.964   5.460
 8098TIP3    H224238   0.418   6.040   5.394
 8099TIP3   OH224239   0.627   5.202   4.344
 8099TIP3    H124240   0.723   5.213   4.362
 8099TIP3    H224241   0.606   5.285   4.296
 8100TIP3   OH224242   0.231   5.792   4.221
 8100TIP3    H124243   0.183   5.873   4.198
 8100TIP3    H224244   0.156   5.736   4.246
 8101TIP3   OH224245   0.455   5.669   5.754
 8101TIP3    H124246   0.385   5.650   5.689
 8101TIP3    H224247   0.536   5.652   5.702
 8102TIP3   OH224248   0.669   6.213   5.266
 8102TIP3    H124249   0.576   6.236   5.266
 8102TIP3    H224250   0.702   6.267   5.342
 8103TIP3   OH224251   1.066   5.297   4.169
 8103TIP3    H124252   1.009   5.254   4.102
 8103TIP3    H224253   1.055   5.390   4.137
 8104TIP3   OH224254   1.291   6.155   5.256
 8104TIP3    H124255   1.193   6.150   5.248
 8104TIP3    H224256   1.317   6.125   5.166
 8105TIP3   OH224257   0.775   6.108   4.089
 8105TIP3    H124258   0.747   6.025   4.130
 8105TIP3    H224259   0.788   6.080   3.996
 8106TIP3   OH224260   0.774   5.744   4.913
 8106TIP3    H124261   0.681   5.718   4.929
 8106TIP3    H224262   0.807   5.663   4.868
 8107TIP3   OH224263   0.564   5.945   5.110
 8107TIP3    H124264   0.550   5.958   5.206
 8107TIP3    H224265   0.654   5.909   5.108
 8108TIP3   OH224266   0.802   6.475   5.147
 8108TIP3    H124267   0.719   6.425   5.140
 8108TIP3    H224268   0.787   6.545   5.080
 8109TIP3   OH224269   0.876   6.324   3.799
 8109TIP3    H124270   0.912   6.404   3.757
 8109TIP3    H224271   0.793   6.363   3.836
 8110TIP3   OH224272   0.701   5.795   4.232
 8110TIP3    H124273   0.694   5.714   4.286
 8110TIP3    H224274   0.774   5.771   4.172
 8111TIP3   OH224275   0.728   5.156   5.356
 8111TIP3    H124276   0.809   5.198   5.391
 8111TIP3    H224277   0.721   5.075   5.410
 8112TIP3   OH224278   0.618   4.898   4.526
 8112TIP3    H124279   0.591   4.921   4.435
 8112TIP3    H224280   0.650   4.984   4.560
 8113TIP3   OH224281   0.295   5.095   4.618
 8113TIP3    H124282   0.358   5.169   4.607
 8113TIP3    H224283   0.296   5.082   4.715
 8114TIP3   OH224284   0.575   5.394   5.425
 8114TIP3    H124285   0.602   5.453   5.499
 8114TIP3    H224286   0.632   5.317   5.438
 8115TIP3   OH224287   0.445   4.807   4.740
 8115TIP3    H124288   0.415   4.890   4.783
 8115TIP3    H224289   0.496   4.842   4.664
 8116TIP3   OH224290   1.198   5.305   5.413
 8116TIP3    H124291   1.100   5.303   5.417
 8116TIP3    H224292   1.213   5.268   5.325
 8117TIP3   OH224293   0.854   5.497   4.799
 8117TIP3    H124294   0.775   5.442   4.812
 8117TIP3    H224295   0.923   5.449   4.848
 8118TIP3   OH224296   0.827   6.453   4.748
 8118TIP3    H124297   0.784   6.502   4.674
 8118TIP3    H224298   0.921   6.472   4.727
 8119TIP3   OH224299   0.736   6.346   5.492
 8119TIP3    H124300   0.723   6.291   5.572
 8119TIP3    H224301   0.793   6.417   5.526
 8120TIP3   OH224302   0.517   6.044   3.810
 8120TIP3    H124303   0.595   6.004   3.850
 8120TIP3    H224304   0.549   6.058   3.719
 8121TIP3   OH224305   0.221   5.746   3.931
 8121TIP3    H124306   0.248   5.757   4.024
 8121TIP3    H224307   0.220   5.649   3.923
 8122TIP3   OH224308   0.822   5.989   5.306
 8122TIP3    H124309   0.900   6.030   5.265
 8122TIP3    H224310   0.757   6.061   5.294
 8123TIP3   OH224311   0.051   5.251   4.239
 8123TIP3    H124312   0.029   5.245   4.143
 8123TIP3    H224313   0.148   5.257   4.232
 8124TIP3   OH224314   0.693   5.899   5.696
 8124TIP3    H124315   0.777   5.876   5.656
 8124TIP3    H224316   0.691   5.842   5.775
 8125TIP3   OH224317   0.264   5.034   5.421
 8125TIP3    H124318   0.318   5.099   5.368
 8125TIP3    H224319   0.226   5.096   5.489
 8126TIP3   OH224320   0.383   5.684   5.326
 8126TIP3    H124321   0.478   5.670   5.294
 8126TIP3    H224322   0.368   5.774   5.281
 8127TIP3   OH224323   0.920   5.582   5.752
 8127TIP3    H124324   0.972   5.504   5.776
 8127TIP3    H224325   0.988   5.641   5.716
 8128TIP3   OH224326   0.954   5.841   5.491
 8128TIP3    H124327   0.896   5.896   5.434
 8128TIP3    H224328   1.042   5.864   5.453
 8129TIP3   OH224329   0.448   4.851   5.560
 8129TIP3    H124330   0.387   4.921   5.528
 8129TIP3    H224331   0.392   4.773   5.549
 8130TIP3   OH224332   0.581   5.353   5.794
 8130TIP3    H124333   0.615   5.352   5.886
 8130TIP3    H224334   0.492   5.318   5.806
 8131TIP3   OH224335   0.805   5.287   5.639
 8131TIP3    H124336   0.732   5.295   5.704
 8131TIP3    H224337   0.881   5.265   5.697
 8132TIP3   OH224338   1.033   5.244   5.792
 8132TIP3    H124339   1.046   5.148   5.809
 8132TIP3    H224340   1.026   5.281   5.883
 8133TIP3   OH224341   0.537   4.860   5.821
 8133TIP3    H124342   0.601   4.786   5.819
 8133TIP3    H224343   0.499   4.855   5.732
 8134TIP3   OH224344   0.614   5.068   5.980
 8134TIP3    H124345   0.594   4.991   5.922
 8134TIP3    H224346   0.527   5.113   5.980
 8135TIP3   OH224347   1.085   6.537   4.710
 8135TIP3    H124348   1.104   6.574   4.798
 8135TIP3    H224349   1.141   6.590   4.652
 8136TIP3   OH224350   1.109   6.566   4.991
 8136TIP3    H124351   1.060   6.481   4.985
 8136TIP3    H224352   1.181   6.539   5.049
 8137TIP3   OH224353   1.159   6.244   5.560
 8137TIP3    H124354   1.086   6.254   5.624
 8137TIP3    H224355   1.200   6.333   5.564
 8138TIP3   OH224356   0.987   5.751   4.185
 8138TIP3    H124357   1.049   5.820   4.153
 8138TIP3    H224358   1.033   5.718   4.265
 8139TIP3   OH224359   1.108   5.613   4.391
 8139TIP3    H124360   1.036   5.578   4.448
 8139TIP3    H224361   1.169   5.654   4.455
 8140TIP3   OH224362   1.156   6.019   4.817
 8140TIP3    H124363   1.207   5.952   4.768
 8140TIP3    H224364   1.152   6.093   4.753
 8141TIP3   OH224365   0.981   6.315   5.009
 8141TIP3    H124366   0.910   6.361   5.059
 8141TIP3    H224367   0.930   6.272   4.937
 8142TIP3   OH224368   1.019   5.528   4.039
 8142TIP3    H124369   0.952   5.554   3.971
 8142TIP3    H224370   1.007   5.606   4.099
 8143TIP3   OH224371   0.920   5.214   3.945
 8143TIP3    H124372   0.827   5.242   3.931
 8143TIP3    H224373   0.904   5.116   3.949
 8144TIP3   OH224374   0.910   5.482   4.532
 8144TIP3    H124375   0.915   5.385   4.526
 8144TIP3    H224376   0.894   5.496   4.628
 8145TIP3   OH224377   1.201   5.907   5.388
 8145TIP3    H124378   1.272   5.841   5.374
 8145TIP3    H224379   1.224   5.976   5.323
 8146TIP3   OH224380   1.382   5.704   5.390
 8146TIP3    H124381   1.308   5.657   5.434
 8146TIP3    H224382   1.455   5.643   5.409
 8147TIP3   OH224383   0.849   4.953   3.977
 8147TIP3    H124384   0.920   4.912   4.031
 8147TIP3    H224385   0.774   4.893   3.989
 8148TIP3   OH224386   0.906   5.198   4.423
 8148TIP3    H124387   0.947   5.109   4.436
 8148TIP3    H224388   0.965   5.234   4.354
 8149TIP3   OH224389   1.066   5.364   4.921
 8149TIP3    H124390   1.150   5.389   4.877
 8149TIP3    H224391   1.080   5.405   5.008
 8150TIP3   OH224392   1.138   5.515   5.148
 8150TIP3    H124393   1.062   5.549   5.198
 8150TIP3    H224394   1.171   5.596   5.103
 8151TIP3   OH224395   1.585   5.108   5.704
 8151TIP3    H124396   1.648   5.046   5.662
 8151TIP3    H224397   1.555   5.161   5.627
 8152TIP3   OH224398   1.018   4.948   4.458
 8152TIP3    H124399   1.063   4.932   4.544
 8152TIP3    H224400   0.955   4.873   4.457
 8153TIP3   OH224401   1.456   5.244   5.508
 8153TIP3    H124402   1.372   5.288   5.533
 8153TIP3    H224403   1.420   5.172   5.452
 8154TIP3   OH224404   1.092   4.877   4.097
 8154TIP3    H124405   1.130   4.808   4.038
 8154TIP3    H224406   1.161   4.947   4.093
 8155TIP3   OH224407   0.664   6.397   4.362
 8155TIP3    H124408   0.719   6.397   4.281
 8155TIP3    H224409   0.698   6.475   4.409
 8156TIP3   OH224410   0.562   6.640   5.305
 8156TIP3    H124411   0.622   6.581   5.258
 8156TIP3    H224412   0.624   6.696   5.355
 8157TIP3   OH224413   1.358   5.008   5.389
 8157TIP3    H124414   1.268   5.000   5.354
 8157TIP3    H224415   1.390   4.915   5.380
 8158TIP3   OH224416   0.533   6.453   5.048
 8158TIP3    H124417   0.448   6.469   5.097
 8158TIP3    H224418   0.535   6.533   4.993
 8159TIP3   OH224419   0.774   6.652   4.939
 8159TIP3    H124420   0.741   6.729   4.890
 8159TIP3    H224421   0.781   6.584   4.869
 8160TIP3   OH224422   0.583   4.925   5.030
 8160TIP3    H124423   0.526   4.851   5.056
 8160TIP3    H224424   0.643   4.884   4.965
 8161TIP3   OH224425   1.082   4.800   4.911
 8161TIP3    H124426   1.118   4.854   4.837
 8161TIP3    H224427   0.987   4.822   4.908
 8162TIP3   OH224428   1.179   4.900   4.677
 8162TIP3    H124429   1.254   4.849   4.639
 8162TIP3    H224430   1.213   4.992   4.663
 8163TIP3   OH224431   0.279   4.653   4.911
 8163TIP3    H124432   0.321   4.706   4.842
 8163TIP3    H224433   0.320   4.690   4.991
 8164TIP3   OH224434   0.801   4.810   4.887
 8164TIP3    H124435   0.792   4.772   4.799
 8164TIP3    H224436   0.787   4.732   4.946
 8165TIP3   OH224437   0.834   4.737   4.454
 8165TIP3    H124438   0.751   4.786   4.474
 8165TIP3    H224439   0.815   4.651   4.496
 8166TIP3   OH224440   0.277   4.843   4.510
 8166TIP3    H124441   0.270   4.794   4.593
 8166TIP3    H224442   0.268   4.936   4.542
 8167TIP3   OH224443   0.810   6.377   4.129
 8167TIP3    H124444   0.801   6.280   4.118
 8167TIP3    H224445   0.763   6.409   4.050
 8168TIP3   OH224446   1.096   4.973   5.822
 8168TIP3    H124447   1.113   4.944   5.914
 8168TIP3    H224448   1.186   4.969   5.783
 8169TIP3   OH224449   1.029   6.519   5.316
 8169TIP3    H124450   0.950   6.490   5.265
 8169TIP3    H224451   1.011   6.615   5.322
 8170TIP3   OH224452   2.300   5.898   4.077
 8170TIP3    H124453   2.268   5.988   4.056
 8170TIP3    H224454   2.224   5.845   4.045
 8171TIP3   OH224455   2.300   5.898   4.468
 8171TIP3    H124456   2.336   5.875   4.556
 8171TIP3    H224457   2.258   5.815   4.441
 8172TIP3   OH224458   1.596   5.787   4.829
 8172TIP3    H124459   1.626   5.719   4.891
 8172TIP3    H224460   1.673   5.845   4.825
 8173TIP3   OH224461   2.545   6.202   4.148
 8173TIP3    H124462   2.528   6.134   4.215
 8173TIP3    H224463   2.576   6.277   4.201
 8174TIP3   OH224464   1.572   6.202   4.548
 8174TIP3    H124465   1.563   6.104   4.550
 8174TIP3    H224466   1.669   6.210   4.542
 8175TIP3   OH224467   1.277   5.395   4.328
 8175TIP3    H124468   1.235   5.480   4.353
 8175TIP3    H224469   1.201   5.351   4.286
 8176TIP3   OH224470   1.337   5.693   4.518
 8176TIP3    H124471   1.389   5.616   4.549
 8176TIP3    H224472   1.398   5.735   4.455
 8177TIP3   OH224473   2.197   6.662   4.164
 8177TIP3    H124474   2.237   6.590   4.111
 8177TIP3    H224475   2.185   6.619   4.250
 8178TIP3   OH224476   2.095   6.123   4.511
 8178TIP3    H124477   2.138   6.047   4.468
 8178TIP3    H224478   2.177   6.171   4.537
 8179TIP3   OH224479   3.112   5.442   4.508
 8179TIP3    H124480   3.141   5.526   4.550
 8179TIP3    H224481   3.138   5.456   4.416
 8180TIP3   OH224482   2.508   5.621   4.540
 8180TIP3    H124483   2.553   5.536   4.560
 8180TIP3    H224484   2.477   5.603   4.449
 8181TIP3   OH224485   1.852   5.282   4.506
 8181TIP3    H124486   1.833   5.355   4.444
 8181TIP3    H224487   1.801   5.210   4.463
 8182TIP3   OH224488   2.545   5.375   4.126
 8182TIP3    H124489   2.616   5.362   4.193
 8182TIP3    H224490   2.598   5.409   4.052
 8183TIP3   OH224491   1.482   5.483   4.616
 8183TIP3    H124492   1.565   5.466   4.664
 8183TIP3    H224493   1.498   5.429   4.536
 8184TIP3   OH224494   1.921   5.682   4.412
 8184TIP3    H124495   2.015   5.658   4.423
 8184TIP3    H224496   1.883   5.598   4.378
 8185TIP3   OH224497   3.185   5.650   4.681
 8185TIP3    H124498   3.100   5.696   4.662
 8185TIP3    H224499   3.209   5.690   4.766
 8186TIP3   OH224500   1.844   5.266   4.943
 8186TIP3    H124501   1.786   5.304   4.874
 8186TIP3    H224502   1.790   5.285   5.023
 8187TIP3   OH224503   2.185   6.116   3.947
 8187TIP3    H124504   2.146   6.104   3.860
 8187TIP3    H224505   2.141   6.198   3.977
 8188TIP3   OH224506   1.950   6.043   4.732
 8188TIP3    H124507   1.891   6.113   4.768
 8188TIP3    H224508   1.994   6.090   4.658
 8189TIP3   OH224509   2.746   5.383   4.308
 8189TIP3    H124510   2.733   5.340   4.393
 8189TIP3    H224511   2.799   5.461   4.333
 8190TIP3   OH224512   1.717   5.381   4.725
 8190TIP3    H124513   1.778   5.455   4.749
 8190TIP3    H224514   1.767   5.342   4.650
 8191TIP3   OH224515   1.781   6.240   4.833
 8191TIP3    H124516   1.757   6.328   4.798
 8191TIP3    H224517   1.702   6.222   4.888
 8192TIP3   OH224518   1.172   5.929   4.068
 8192TIP3    H124519   1.125   5.955   3.986
 8192TIP3    H224520   1.202   6.017   4.100
 8193TIP3   OH224521   2.610   6.445   4.308
 8193TIP3    H124522   2.521   6.436   4.348
 8193TIP3    H224523   2.602   6.532   4.264
 8194TIP3   OH224524   2.907   5.338   4.675
 8194TIP3    H124525   2.820   5.366   4.642
 8194TIP3    H224526   2.968   5.372   4.605
 8195TIP3   OH224527   2.195   4.986   4.658
 8195TIP3    H124528   2.174   4.892   4.676
 8195TIP3    H224529   2.120   5.029   4.705
 8196TIP3   OH224530   2.308   6.488   3.979
 8196TIP3    H124531   2.359   6.405   3.961
 8196TIP3    H224532   2.371   6.553   3.940
 8197TIP3   OH224533   2.454   6.272   3.897
 8197TIP3    H124534   2.417   6.191   3.860
 8197TIP3    H224535   2.494   6.240   3.981
 8198TIP3   OH224536   2.836   6.353   4.654
 8198TIP3    H124537   2.824   6.276   4.594
 8198TIP3    H224538   2.818   6.428   4.594
 8199TIP3   OH224539   2.129   5.748   3.915
 8199TIP3    H124540   2.050   5.801   3.895
 8199TIP3    H224541   2.175   5.746   3.829
 8200TIP3   OH224542   2.087   5.537   3.623
 8200TIP3    H124543   2.154   5.589   3.673
 8200TIP3    H224544   2.145   5.474   3.576
 8201TIP3   OH224545   3.032   5.994   4.503
 8201TIP3    H124546   2.947   6.045   4.505
 8201TIP3    H224547   3.063   6.017   4.412
 8202TIP3   OH224548   2.478   5.832   3.881
 8202TIP3    H124549   2.423   5.856   3.959
 8202TIP3    H224550   2.562   5.807   3.924
 8203TIP3   OH224551   2.711   5.867   4.803
 8203TIP3    H124552   2.709   5.950   4.854
 8203TIP3    H224553   2.625   5.873   4.756
 8204TIP3   OH224554   1.709   5.826   4.302
 8204TIP3    H124555   1.670   5.769   4.233
 8204TIP3    H224556   1.786   5.773   4.332
 8205TIP3   OH224557   1.840   6.241   4.446
 8205TIP3    H124558   1.820   6.207   4.357
 8205TIP3    H224559   1.928   6.204   4.464
 8206TIP3   OH224560   1.844   5.799   4.655
 8206TIP3    H124561   1.878   5.775   4.566
 8206TIP3    H224562   1.888   5.886   4.672
 8207TIP3   OH224563   2.371   6.438   4.433
 8207TIP3    H124564   2.358   6.518   4.486
 8207TIP3    H224565   2.354   6.365   4.496
 8208TIP3   OH224566   1.985   6.355   4.980
 8208TIP3    H124567   1.923   6.416   5.026
 8208TIP3    H224568   1.921   6.302   4.928
 8209TIP3   OH224569   2.314   5.690   3.710
 8209TIP3    H124570   2.374   5.751   3.759
 8209TIP3    H224571   2.341   5.710   3.617
 8210TIP3   OH224572   1.740   5.907   5.087
 8210TIP3    H124573   1.745   5.997   5.125
 8210TIP3    H224574   1.645   5.889   5.099
 8211TIP3   OH224575   2.064   6.363   3.985
 8211TIP3    H124576   2.147   6.416   3.991
 8211TIP3    H224577   2.003   6.426   3.943
 8212TIP3   OH224578   1.778   6.519   5.067
 8212TIP3    H124579   1.743   6.524   4.976
 8212TIP3    H224580   1.697   6.498   5.119
 8213TIP3   OH224581   2.832   4.927   3.759
 8213TIP3    H124582   2.751   4.950   3.809
 8213TIP3    H224583   2.847   5.009   3.708
 8214TIP3   OH224584   1.577   5.673   4.100
 8214TIP3    H124585   1.507   5.717   4.047
 8214TIP3    H224586   1.537   5.587   4.116
 8215TIP3   OH224587   2.634   6.295   3.309
 8215TIP3    H124588   2.642   6.391   3.293
 8215TIP3    H224589   2.726   6.265   3.296
 8216TIP3   OH224590   1.356   6.056   5.014
 8216TIP3    H124591   1.287   6.037   4.946
 8216TIP3    H224592   1.393   5.967   5.032
 8217TIP3   OH224593   1.210   6.247   4.647
 8217TIP3    H124594   1.306   6.250   4.640
 8217TIP3    H224595   1.192   6.328   4.698
 8218TIP3   OH224596   3.074   6.703   4.704
 8218TIP3    H124597   3.073   6.607   4.719
 8218TIP3    H224598   2.991   6.728   4.750
 8219TIP3   OH224599   2.180   6.484   4.837
 8219TIP3    H124600   2.176   6.577   4.868
 8219TIP3    H224601   2.109   6.443   4.891
 8220TIP3   OH224602   1.946   6.611   3.789
 8220TIP3    H124603   1.897   6.594   3.707
 8220TIP3    H224604   1.911   6.698   3.817
 8221TIP3   OH224605   1.381   6.461   4.174
 8221TIP3    H124606   1.426   6.452   4.261
 8221TIP3    H224607   1.330   6.378   4.171
 8222TIP3   OH224608   2.143   6.516   3.425
 8222TIP3    H124609   2.201   6.445   3.390
 8222TIP3    H224610   2.178   6.527   3.516
 8223TIP3   OH224611   2.197   6.564   3.694
 8223TIP3    H124612   2.108   6.574   3.736
 8223TIP3    H224613   2.248   6.526   3.768
 8224TIP3   OH224614   2.963   5.828   4.979
 8224TIP3    H124615   2.880   5.838   4.930
 8224TIP3    H224616   2.980   5.732   4.970
 8225TIP3   OH224617   1.561   6.237   4.995
 8225TIP3    H124618   1.609   6.223   5.079
 8225TIP3    H224619   1.486   6.175   5.004
 8226TIP3   OH224620   1.960   5.060   4.791
 8226TIP3    H124621   1.872   5.031   4.760
 8226TIP3    H224622   1.934   5.142   4.839
 8227TIP3   OH224623   2.497   5.172   4.982
 8227TIP3    H124624   2.567   5.149   5.047
 8227TIP3    H224625   2.414   5.157   5.032
 8228TIP3   OH224626   2.727   5.603   4.898
 8228TIP3    H124627   2.679   5.602   4.983
 8228TIP3    H224628   2.707   5.692   4.863
 8229TIP3   OH224629   2.393   5.729   3.455
 8229TIP3    H124630   2.357   5.709   3.366
 8229TIP3    H224631   2.478   5.772   3.431
 8230TIP3   OH224632   2.104   5.107   3.759
 8230TIP3    H124633   2.069   5.104   3.850
 8230TIP3    H224634   2.064   5.025   3.723
 8231TIP3   OH224635   1.892   5.578   4.805
 8231TIP3    H124636   1.842   5.599   4.886
 8231TIP3    H224637   1.876   5.659   4.752
 8232TIP3   OH224638   1.778   5.463   4.318
 8232TIP3    H124639   1.685   5.438   4.338
 8232TIP3    H224640   1.788   5.422   4.229
 8233TIP3   OH224641   2.265   5.546   4.049
 8233TIP3    H124642   2.216   5.618   4.004
 8233TIP3    H224643   2.321   5.513   3.976
 8234TIP3   OH224644   2.441   5.822   5.129
 8234TIP3    H124645   2.419   5.750   5.193
 8234TIP3    H224646   2.534   5.838   5.153
 8235TIP3   OH224647   2.421   5.573   4.284
 8235TIP3    H124648   2.358   5.601   4.214
 8235TIP3    H224649   2.458   5.494   4.238
 8236TIP3   OH224650   1.712   5.605   5.013
 8236TIP3    H124651   1.739   5.670   5.079
 8236TIP3    H224652   1.701   5.524   5.067
 8237TIP3   OH224653   1.765   5.082   3.725
 8237TIP3    H124654   1.752   5.084   3.822
 8237TIP3    H224655   1.688   5.135   3.696
 8238TIP3   OH224656   1.306   5.122   4.595
 8238TIP3    H124657   1.378   5.159   4.651
 8238TIP3    H224658   1.352   5.099   4.513
 8239TIP3   OH224659   1.269   5.103   4.112
 8239TIP3    H124660   1.335   5.138   4.049
 8239TIP3    H224661   1.218   5.184   4.132
 8240TIP3   OH224662   2.431   5.819   4.704
 8240TIP3    H124663   2.465   5.748   4.645
 8240TIP3    H224664   2.401   5.765   4.780
 8241TIP3   OH224665   2.109   5.279   4.378
 8241TIP3    H124666   2.029   5.282   4.434
 8241TIP3    H224667   2.181   5.278   4.444
 8242TIP3   OH224668   1.539   5.343   4.387
 8242TIP3    H124669   1.445   5.349   4.357
 8242TIP3    H224670   1.564   5.252   4.364
 8243TIP3   OH224671   1.800   5.334   4.078
 8243TIP3    H124672   1.894   5.351   4.057
 8243TIP3    H224673   1.754   5.358   3.994
 8244TIP3   OH224674   2.597   5.360   4.582
 8244TIP3    H124675   2.566   5.374   4.675
 8244TIP3    H224676   2.527   5.302   4.548
 8245TIP3   OH224677   1.654   5.371   3.852
 8245TIP3    H124678   1.585   5.324   3.801
 8245TIP3    H224679   1.706   5.411   3.779
 8246TIP3   OH224680   2.771   7.049   4.804
 8246TIP3    H124681   2.768   7.075   4.711
 8246TIP3    H224682   2.851   7.096   4.835
 8247TIP3   OH224683   1.724   6.158   5.221
 8247TIP3    H124684   1.803   6.189   5.269
 8247TIP3    H224685   1.658   6.159   5.293
 8248TIP3   OH224686   2.185   5.614   4.476
 8248TIP3    H124687   2.261   5.578   4.427
 8248TIP3    H224688   2.193   5.570   4.562
 8249TIP3   OH224689   1.701   5.101   4.361
 8249TIP3    H124690   1.667   5.023   4.409
 8249TIP3    H224691   1.747   5.059   4.286
 8250TIP3   OH224692   2.161   5.513   4.769
 8250TIP3    H124693   2.072   5.550   4.781
 8250TIP3    H224694   2.218   5.576   4.817
 8251TIP3   OH224695   1.899   5.899   3.861
 8251TIP3    H124696   1.826   5.835   3.848
 8251TIP3    H224697   1.878   5.933   3.952
 8252TIP3   OH224698   2.797   6.137   4.486
 8252TIP3    H124699   2.821   6.188   4.406
 8252TIP3    H224700   2.712   6.095   4.459
 8253TIP3   OH224701   2.356   5.208   3.733
 8253TIP3    H124702   2.259   5.190   3.739
 8253TIP3    H224703   2.363   5.303   3.755
 8254TIP3   OH224704   2.294   6.218   4.860
 8254TIP3    H124705   2.331   6.206   4.949
 8254TIP3    H224706   2.258   6.308   4.865
 8255TIP3   OH224707   2.423   5.462   3.831
 8255TIP3    H124708   2.520   5.468   3.845
 8255TIP3    H224709   2.404   5.542   3.779
 8256TIP3   OH224710   1.592   5.923   4.535
 8256TIP3    H124711   1.631   5.895   4.450
 8256TIP3    H224712   1.639   5.866   4.598
 8257TIP3   OH224713   2.044   6.050   3.686
 8257TIP3    H124714   1.995   6.136   3.688
 8257TIP3    H224715   1.990   5.995   3.746
 8258TIP3   OH224716   1.476   5.840   5.150
 8258TIP3    H124717   1.491   5.827   5.246
 8258TIP3    H224718   1.404   5.777   5.133
 8259TIP3   OH224719   2.202   5.960   5.170
 8259TIP3    H124720   2.140   5.901   5.125
 8259TIP3    H224721   2.288   5.924   5.140
 8260TIP3   OH224722   2.456   6.478   4.757
 8260TIP3    H124723   2.359   6.479   4.771
 8260TIP3    H224724   2.485   6.531   4.835
 8261TIP3   OH224725   2.864   5.556   3.664
 8261TIP3    H124726   2.802   5.512   3.600
 8261TIP3    H224727   2.861   5.645   3.624
 8262TIP3   OH224728   3.087   6.413   4.743
 8262TIP3    H124729   2.989   6.406   4.735
 8262TIP3    H224730   3.113   6.382   4.653
 8263TIP3   OH224731   2.570   6.371   3.574
 8263TIP3    H124732   2.541   6.302   3.635
 8263TIP3    H224733   2.582   6.324   3.490
 8264TIP3   OH224734   2.563   6.001   4.402
 8264TIP3    H124735   2.470   5.977   4.417
 8264TIP3    H224736   2.596   5.920   4.359
 8265TIP3   OH224737   1.694   6.230   4.163
 8265TIP3    H124738   1.690   6.310   4.108
 8265TIP3    H224739   1.601   6.211   4.177
 8266TIP3   OH224740   1.218   5.510   3.850
 8266TIP3    H124741   1.277   5.587   3.856
 8266TIP3    H224742   1.153   5.532   3.921
 8267TIP3   OH224743   1.822   5.991   4.103
 8267TIP3    H124744   1.790   6.081   4.122
 8267TIP3    H224745   1.788   5.941   4.180
 8268TIP3   OH224746   1.965   6.570   4.630
 8268TIP3    H124747   2.007   6.643   4.580
 8268TIP3    H224748   2.041   6.533   4.677
 8269TIP3   OH224749   1.610   6.467   4.014
 8269TIP3    H124750   1.525   6.475   4.061
 8269TIP3    H224751   1.642   6.560   4.017
 8270TIP3   OH224752   2.346   6.206   4.592
 8270TIP3    H124753   2.335   6.204   4.690
 8270TIP3    H224754   2.427   6.154   4.581
 8271TIP3   OH224755   2.328   6.102   3.475
 8271TIP3    H124756   2.382   6.076   3.553
 8271TIP3    H224757   2.240   6.072   3.502
 8272TIP3   OH224758   2.598   6.734   4.639
 8272TIP3    H124759   2.517   6.680   4.634
 8272TIP3    H224760   2.581   6.800   4.567
 8273TIP3   OH224761   2.663   6.571   3.291
 8273TIP3    H124762   2.700   6.645   3.241
 8273TIP3    H224763   2.583   6.614   3.327
 8274TIP3   OH224764   1.681   5.347   5.156
 8274TIP3    H124765   1.585   5.351   5.169
 8274TIP3    H224766   1.710   5.295   5.233
 8275TIP3   OH224767   2.489   6.032   3.688
 8275TIP3    H124768   2.478   5.965   3.759
 8275TIP3    H224769   2.586   6.028   3.676
 8276TIP3   OH224770   1.404   6.431   4.786
 8276TIP3    H124771   1.457   6.361   4.827
 8276TIP3    H224772   1.424   6.507   4.843
 8277TIP3   OH224773   1.690   6.079   3.473
 8277TIP3    H124774   1.702   5.985   3.448
 8277TIP3    H224775   1.669   6.070   3.568
 8278TIP3   OH224776   1.635   6.084   3.744
 8278TIP3    H124777   1.708   6.058   3.802
 8278TIP3    H224778   1.637   6.182   3.753
 8279TIP3   OH224779   1.365   5.770   3.948
 8279TIP3    H124780   1.298   5.815   4.003
 8279TIP3    H224781   1.377   5.837   3.879
 8280TIP3   OH224782   2.524   5.411   4.842
 8280TIP3    H124783   2.604   5.453   4.879
 8280TIP3    H224784   2.514   5.331   4.898
 8281TIP3   OH224785   2.403   5.159   4.013
 8281TIP3    H124786   2.390   5.180   3.918
 8281TIP3    H224787   2.444   5.241   4.047
 8282TIP3   OH224788   1.903   6.280   3.693
 8282TIP3    H124789   1.815   6.303   3.730
 8282TIP3    H224790   1.917   6.357   3.635
 8283TIP3   OH224791   2.083   5.346   4.110
 8283TIP3    H124792   2.148   5.418   4.092
 8283TIP3    H224793   2.093   5.336   4.207
 8284TIP3   OH224794   2.360   5.659   4.913
 8284TIP3    H124795   2.385   5.712   4.992
 8284TIP3    H224796   2.413   5.578   4.925
 8285TIP3   OH224797   2.230   5.061   4.208
 8285TIP3    H124798   2.222   5.139   4.266
 8285TIP3    H224799   2.294   5.095   4.141
 8286TIP3   OH224800   1.649   6.356   3.764
 8286TIP3    H124801   1.618   6.426   3.703
 8286TIP3    H224802   1.631   6.398   3.851
 8287TIP3   OH224803   1.745   5.070   4.002
 8287TIP3    H124804   1.743   5.162   4.037
 8287TIP3    H224805   1.841   5.053   4.008
 8288TIP3   OH224806   2.995   5.562   4.901
 8288TIP3    H124807   2.897   5.559   4.905
 8288TIP3    H224808   3.011   5.523   4.814
 8289TIP3   OH224809   2.649   5.755   4.284
 8289TIP3    H124810   2.573   5.696   4.297
 8289TIP3    H224811   2.720   5.709   4.333
 8290TIP3   OH224812   1.366   5.977   3.754
 8290TIP3    H124813   1.436   6.044   3.764
 8290TIP3    H224814   1.409   5.920   3.687
 8291TIP3   OH224815   1.321   5.258   3.891
 8291TIP3    H124816   1.305   5.352   3.868
 8291TIP3    H224817   1.232   5.226   3.904
 8292TIP3   OH224818   2.619   6.716   4.231
 8292TIP3    H124819   2.577   6.764   4.156
 8292TIP3    H224820   2.714   6.735   4.211
 8293TIP3   OH224821   1.696   4.981   4.757
 8293TIP3    H124822   1.665   4.948   4.670
 8293TIP3    H224823   1.683   4.903   4.814
 8294TIP3   OH224824   1.229   6.199   4.138
 8294TIP3    H124825   1.167   6.229   4.206
 8294TIP3    H224826   1.193   6.244   4.057
 8295TIP3   OH224827   1.395   6.750   5.211
 8295TIP3    H124828   1.481   6.751   5.259
 8295TIP3    H224829   1.375   6.655   5.211
 8296TIP3   OH224830   1.867   6.700   5.259
 8296TIP3    H124831   1.963   6.686   5.263
 8296TIP3    H224832   1.843   6.638   5.187
 8297TIP3   OH224833   1.852   6.280   3.381
 8297TIP3    H124834   1.797   6.208   3.420
 8297TIP3    H224835   1.928   6.229   3.348
 8298TIP3   OH224836   2.511   6.612   4.991
 8298TIP3    H124837   2.505   6.543   5.061
 8298TIP3    H224838   2.587   6.665   5.021
 8299TIP3   OH224839   2.287   6.318   3.299
 8299TIP3    H124840   2.327   6.252   3.359
 8299TIP3    H224841   2.346   6.313   3.220
 8300TIP3   OH224842   1.521   6.150   5.412
 8300TIP3    H124843   1.536   6.054   5.419
 8300TIP3    H224844   1.434   6.153   5.367
 8301TIP3   OH224845   1.503   5.792   3.609
 8301TIP3    H124846   1.561   5.766   3.683
 8301TIP3    H224847   1.570   5.798   3.537
 8302TIP3   OH224848   2.127   6.237   5.187
 8302TIP3    H124849   2.087   6.259   5.101
 8302TIP3    H224850   2.159   6.145   5.174
 8303TIP3   OH224851   2.018   5.998   3.416
 8303TIP3    H124852   2.018   6.009   3.513
 8303TIP3    H224853   2.017   5.899   3.410
 8304TIP3   OH224854   2.620   6.249   4.795
 8304TIP3    H124855   2.697   6.290   4.751
 8304TIP3    H224856   2.552   6.318   4.778
 8305TIP3   OH224857   1.641   5.886   5.399
 8305TIP3    H124858   1.720   5.839   5.369
 8305TIP3    H224859   1.670   5.919   5.486
 8306TIP3   OH224860   1.702   5.707   3.824
 8306TIP3    H124861   1.675   5.668   3.909
 8306TIP3    H224862   1.741   5.630   3.778
 8307TIP3   OH224863   1.977   5.766   5.057
 8307TIP3    H124864   1.899   5.826   5.058
 8307TIP3    H224865   2.027   5.801   4.980
 8308TIP3   OH224866   1.810   5.500   3.669
 8308TIP3    H124867   1.785   5.508   3.574
 8308TIP3    H224868   1.908   5.503   3.661
 8309TIP3   OH224869   2.493   6.169   5.189
 8309TIP3    H124870   2.571   6.138   5.142
 8309TIP3    H224871   2.487   6.106   5.263
 8310TIP3   OH224872   2.625   5.824   3.338
 8310TIP3    H124873   2.607   5.782   3.252
 8310TIP3    H224874   2.593   5.915   3.317
 8311TIP3   OH224875   2.100   5.557   5.180
 8311TIP3    H124876   2.101   5.480   5.121
 8311TIP3    H224877   2.057   5.626   5.124
 8312TIP3   OH224878   2.103   5.342   4.990
 8312TIP3    H124879   2.131   5.386   4.907
 8312TIP3    H224880   2.009   5.321   4.971
 8313TIP3   OH224881   2.124   5.877   4.863
 8313TIP3    H124882   2.211   5.894   4.824
 8313TIP3    H224883   2.068   5.942   4.817
 8314TIP3   OH224884   2.707   5.843   5.240
 8314TIP3    H124885   2.757   5.761   5.254
 8314TIP3    H224886   2.775   5.902   5.204
 8315TIP3   OH224887   2.749   6.098   4.977
 8315TIP3    H124888   2.692   6.154   4.920
 8315TIP3    H224889   2.837   6.120   4.939
 8316TIP3   OH224890   1.980   5.661   5.416
 8316TIP3    H124891   1.911   5.593   5.432
 8316TIP3    H224892   2.011   5.636   5.327
 8317TIP3   OH224893   2.232   5.104   5.062
 8317TIP3    H124894   2.185   5.186   5.037
 8317TIP3    H224895   2.162   5.037   5.050
 8318TIP3   OH224896   2.360   5.605   5.275
 8318TIP3    H124897   2.345   5.592   5.370
 8318TIP3    H224898   2.271   5.584   5.241
 8319TIP3   OH224899   2.597   5.556   5.129
 8319TIP3    H124900   2.523   5.560   5.193
 8319TIP3    H224901   2.672   5.529   5.186
 8320TIP3   OH224902   2.827   5.501   5.279
 8320TIP3    H124903   2.841   5.405   5.295
 8320TIP3    H224904   2.823   5.538   5.369
 8321TIP3   OH224905   1.815   5.441   5.471
 8321TIP3    H124906   1.822   5.349   5.439
 8321TIP3    H224907   1.854   5.432   5.560
 8322TIP3   OH224908   2.326   5.113   5.320
 8322TIP3    H124909   2.393   5.042   5.311
 8322TIP3    H224910   2.286   5.110   5.230
 8323TIP3   OH224911   2.394   5.329   5.477
 8323TIP3    H124912   2.372   5.258   5.412
 8323TIP3    H224913   2.316   5.388   5.470
 8324TIP3   OH224914   1.619   6.561   3.577
 8324TIP3    H124915   1.714   6.549   3.556
 8324TIP3    H224916   1.591   6.611   3.499
 8325TIP3   OH224917   1.092   5.954   3.793
 8325TIP3    H124918   1.188   5.969   3.777
 8325TIP3    H224919   1.080   5.865   3.755
 8326TIP3   OH224920   1.013   6.551   4.205
 8326TIP3    H124921   0.946   6.491   4.166
 8326TIP3    H224922   1.056   6.491   4.270
 8327TIP3   OH224923   1.147   6.397   4.392
 8327TIP3    H124924   1.130   6.329   4.461
 8327TIP3    H224925   1.198   6.461   4.444
 8328TIP3   OH224926   2.875   6.802   4.194
 8328TIP3    H124927   2.902   6.833   4.283
 8328TIP3    H224928   2.944   6.841   4.137
 8329TIP3   OH224929   2.902   6.822   4.477
 8329TIP3    H124930   2.857   6.736   4.473
 8329TIP3    H224931   2.977   6.798   4.534
 8330TIP3   OH224932   2.949   6.499   5.049
 8330TIP3    H124933   2.877   6.510   5.115
 8330TIP3    H224934   2.992   6.587   5.052
 8331TIP3   OH224935   2.767   6.012   3.666
 8331TIP3    H124936   2.832   6.078   3.636
 8331TIP3    H224937   2.812   5.975   3.745
 8332TIP3   OH224938   2.894   5.879   3.871
 8332TIP3    H124939   2.827   5.839   3.929
 8332TIP3    H224940   2.959   5.915   3.935
 8333TIP3   OH224941   2.951   6.275   4.302
 8333TIP3    H124942   3.004   6.207   4.256
 8333TIP3    H224943   2.947   6.347   4.235
 8334TIP3   OH224944   2.776   6.573   4.496
 8334TIP3    H124945   2.704   6.615   4.547
 8334TIP3    H224946   2.726   6.528   4.424
 8335TIP3   OH224947   2.830   5.789   3.515
 8335TIP3    H124948   2.758   5.790   3.449
 8335TIP3    H224949   2.802   5.865   3.571
 8336TIP3   OH224950   2.700   5.461   3.468
 8336TIP3    H124951   2.655   5.495   3.391
 8336TIP3    H224952   2.679   5.365   3.462
 8337TIP3   OH224953   2.704   5.740   4.015
 8337TIP3    H124954   2.713   5.643   4.007
 8337TIP3    H224955   2.690   5.752   4.112
 8338TIP3   OH224956   1.331   5.807   4.768
 8338TIP3    H124957   1.328   5.776   4.675
 8338TIP3    H224958   1.428   5.810   4.782
 8339TIP3   OH224959   2.996   6.164   4.875
 8339TIP3    H124960   3.067   6.096   4.862
 8339TIP3    H224961   3.021   6.232   4.810
 8340TIP3   OH224962   3.177   5.962   4.879
 8340TIP3    H124963   3.103   5.914   4.922
 8340TIP3    H224964   3.251   5.900   4.898
 8341TIP3   OH224965   2.644   5.195   3.452
 8341TIP3    H124966   2.717   5.162   3.509
 8341TIP3    H224967   2.570   5.135   3.473
 8342TIP3   OH224968   2.703   5.455   3.907
 8342TIP3    H124969   2.745   5.367   3.922
 8342TIP3    H224970   2.761   5.488   3.835
 8343TIP3   OH224971   2.861   5.624   4.406
 8343TIP3    H124972   2.947   5.648   4.363
 8343TIP3    H224973   2.877   5.662   4.494
 8344TIP3   OH224974   2.935   5.772   4.635
 8344TIP3    H124975   2.858   5.806   4.685
 8344TIP3    H224976   2.968   5.853   4.591
 8345TIP3   OH224977   1.549   5.493   5.431
 8345TIP3    H124978   1.647   5.490   5.441
 8345TIP3    H224979   1.526   5.407   5.473
 8346TIP3   OH224980   3.383   5.367   5.192
 8346TIP3    H124981   3.446   5.304   5.150
 8346TIP3    H224982   3.352   5.419   5.114
 8347TIP3   OH224983   2.812   5.206   3.948
 8347TIP3    H124984   2.860   5.188   4.032
 8347TIP3    H224985   2.751   5.129   3.946
 8348TIP3   OH224986   1.512   5.190   4.767
 8348TIP3    H124987   1.575   5.116   4.775
 8348TIP3    H224988   1.573   5.265   4.759
 8349TIP3   OH224989   1.310   5.460   4.840
 8349TIP3    H124990   1.361   5.460   4.757
 8349TIP3    H224991   1.333   5.546   4.877
 8350TIP3   OH224992   3.251   5.500   4.995
 8350TIP3    H124993   3.165   5.544   5.013
 8350TIP3    H224994   3.220   5.426   4.939
 8351TIP3   OH224995   2.887   5.134   3.583
 8351TIP3    H124996   2.927   5.065   3.526
 8351TIP3    H224997   2.955   5.205   3.580
 8352TIP3   OH224998   1.297   4.959   4.338
 8352TIP3    H124999   1.206   4.957   4.372
 8352TIP3    H225000   1.287   5.020   4.262
 8353TIP3   OH225001   2.456   6.673   3.848
 8353TIP3    H125002   2.508   6.662   3.766
 8353TIP3    H225003   2.509   6.737   3.897
 8354TIP3   OH225004   1.516   5.037   5.152
 8354TIP3    H125005   1.469   5.041   5.236
 8354TIP3    H225006   1.453   5.082   5.092
 8355TIP3   OH225007   1.557   6.474   5.230
 8355TIP3    H125008   1.462   6.453   5.216
 8355TIP3    H225009   1.567   6.459   5.324
 8356TIP3   OH225010   1.739   6.511   4.780
 8356TIP3    H125011   1.690   6.586   4.742
 8356TIP3    H225012   1.825   6.525   4.735
 8357TIP3   OH225013   2.176   6.750   4.915
 8357TIP3    H125014   2.217   6.749   5.004
 8357TIP3    H225015   2.241   6.804   4.865
 8358TIP3   OH225016   2.356   6.906   4.779
 8358TIP3    H125017   2.427   6.855   4.738
 8358TIP3    H225018   2.408   6.962   4.841
 8359TIP3   OH225019   3.151   5.266   4.878
 8359TIP3    H125020   3.062   5.259   4.839
 8359TIP3    H225021   3.184   5.174   4.867
 8360TIP3   OH225022   1.412   6.766   4.806
 8360TIP3    H125023   1.320   6.795   4.784
 8360TIP3    H225024   1.425   6.813   4.889
 8361TIP3   OH225025   1.648   6.744   4.665
 8361TIP3    H125026   1.560   6.755   4.708
 8361TIP3    H225027   1.628   6.775   4.574
 8362TIP3   OH225028   2.073   6.768   4.462
 8362TIP3    H125029   2.002   6.786   4.398
 8362TIP3    H225030   2.084   6.856   4.504
 8363TIP3   OH225031   2.343   6.707   4.514
 8363TIP3    H125032   2.249   6.726   4.495
 8363TIP3    H225033   2.387   6.781   4.469
 8364TIP3   OH225034   2.547   6.899   4.425
 8364TIP3    H125035   2.534   6.984   4.377
 8364TIP3    H225036   2.575   6.839   4.352
 8365TIP3   OH225037   1.324   6.558   4.546
 8365TIP3    H125038   1.349   6.529   4.637
 8365TIP3    H225039   1.397   6.514   4.496
 8366TIP3   OH225040   1.520   6.430   4.408
 8366TIP3    H125041   1.534   6.346   4.459
 8366TIP3    H225042   1.611   6.465   4.406
 8367TIP3   OH225043   1.788   6.522   4.414
 8367TIP3    H125044   1.816   6.429   4.405
 8367TIP3    H225045   1.836   6.544   4.496
 8368TIP3   OH225046   2.361   5.180   4.497
 8368TIP3    H125047   2.319   5.107   4.546
 8368TIP3    H225048   2.435   5.136   4.451
 8369TIP3   OH225049   2.877   5.061   4.402
 8369TIP3    H125050   2.915   5.110   4.326
 8369TIP3    H225051   2.782   5.082   4.395
 8370TIP3   OH225052   2.975   5.157   4.166
 8370TIP3    H125053   3.049   5.105   4.129
 8370TIP3    H225054   3.010   5.248   4.151
 8371TIP3   OH225055   1.606   4.887   4.510
 8371TIP3    H125056   1.513   4.854   4.514
 8371TIP3    H225057   1.654   4.802   4.505
 8372TIP3   OH225058   1.398   4.758   4.163
 8372TIP3    H125059   1.428   4.814   4.090
 8372TIP3    H225060   1.369   4.824   4.229
 8373TIP3   OH225061   2.056   4.916   4.395
 8373TIP3    H125062   2.108   4.962   4.327
 8373TIP3    H225063   2.083   4.964   4.475
 8374TIP3   OH225064   2.589   5.065   4.376
 8374TIP3    H125065   2.603   5.027   4.288
 8374TIP3    H225066   2.583   4.983   4.431
 8375TIP3   OH225067   2.628   4.994   3.939
 8375TIP3    H125068   2.543   5.037   3.958
 8375TIP3    H225069   2.615   4.908   3.984
 8376TIP3   OH225070   1.115   6.337   3.935
 8376TIP3    H125071   1.030   6.302   3.901
 8376TIP3    H225072   1.105   6.430   3.910
 8377TIP3   OH225073   1.515   4.916   3.924
 8377TIP3    H125074   1.561   4.853   3.864
 8377TIP3    H225075   1.590   4.969   3.957
 8378TIP3   OH225076   2.021   5.095   4.023
 8378TIP3    H125077   2.085   5.050   4.081
 8378TIP3    H225078   2.041   5.188   4.047
 8379TIP3   OH225079   1.885   6.512   3.522
 8379TIP3    H125080   1.972   6.535   3.486
 8379TIP3    H225081   1.862   6.438   3.462
 8380TIP3   OH225082   2.604   6.638   3.617
 8380TIP3    H125083   2.596   6.540   3.606
 8380TIP3    H225084   2.558   6.669   3.536
 8381TIP3   OH225085   1.815   5.164   5.399
 8381TIP3    H125086   1.778   5.095   5.459
 8381TIP3    H225087   1.908   5.165   5.430
 8382TIP3   OH225088   2.063   5.164   5.522
 8382TIP3    H125089   2.150   5.141   5.486
 8382TIP3    H225090   2.051   5.094   5.590
 8383TIP3   OH225091   1.186   6.352   3.575
 8383TIP3    H125092   1.185   6.369   3.670
 8383TIP3    H225093   1.274   6.309   3.562
 8384TIP3   OH225094   2.894   5.230   5.309
 8384TIP3    H125095   2.911   5.199   5.401
 8384TIP3    H225096   2.983   5.224   5.269
 8385TIP3   OH225097   2.825   6.779   4.802
 8385TIP3    H125098   2.747   6.749   4.751
 8385TIP3    H225099   2.806   6.874   4.810
 8386TIP3   OH225100   4.067   6.131   3.553
 8386TIP3    H125101   4.081   6.227   3.534
 8386TIP3    H225102   3.974   6.139   3.581
 8387TIP3   OH225103   4.098   6.140   3.952
 8387TIP3    H125104   4.135   6.135   4.043
 8387TIP3    H225105   4.050   6.055   3.949
 8388TIP3   OH225106   3.391   6.044   4.316
 8388TIP3    H125107   3.420   5.974   4.377
 8388TIP3    H225108   3.469   6.101   4.315
 8389TIP3   OH225109   4.336   6.447   3.639
 8389TIP3    H125110   4.332   6.392   3.719
 8389TIP3    H225111   4.367   6.532   3.676
 8390TIP3   OH225112   3.366   6.458   4.035
 8390TIP3    H125113   3.358   6.360   4.036
 8390TIP3    H225114   3.463   6.468   4.030
 8391TIP3   OH225115   3.072   5.658   3.817
 8391TIP3    H125116   3.025   5.740   3.838
 8391TIP3    H225117   3.001   5.607   3.774
 8392TIP3   OH225118   3.128   5.946   4.003
 8392TIP3    H125119   3.180   5.868   4.036
 8392TIP3    H225120   3.191   5.986   3.942
 8393TIP3   OH225121   3.992   6.912   3.650
 8393TIP3    H125122   4.034   6.850   3.588
 8393TIP3    H225123   3.999   6.864   3.733
 8394TIP3   OH225124   3.891   6.380   3.997
 8394TIP3    H125125   3.933   6.304   3.954
 8394TIP3    H225126   3.973   6.427   4.026
 8395TIP3   OH225127   4.911   5.699   3.994
 8395TIP3    H125128   4.940   5.784   4.035
 8395TIP3    H225129   4.935   5.713   3.901
 8396TIP3   OH225130   4.319   5.881   4.031
 8396TIP3    H125131   4.358   5.795   4.056
 8396TIP3    H225132   4.273   5.856   3.949
 8397TIP3   OH225133   3.643   5.550   3.985
 8397TIP3    H125134   3.619   5.617   3.919
 8397TIP3    H225135   3.596   5.471   3.951
 8398TIP3   OH225136   4.338   5.648   3.607
 8398TIP3    H125137   4.402   5.627   3.679
 8398TIP3    H225138   4.402   5.671   3.537
 8399TIP3   OH225139   3.280   5.740   4.102
 8399TIP3    H125140   3.363   5.720   4.150
 8399TIP3    H225141   3.295   5.685   4.022
 8400TIP3   OH225142   3.718   5.938   3.892
 8400TIP3    H125143   3.810   5.911   3.912
 8400TIP3    H225144   3.678   5.853   3.863
 8401TIP3   OH225145   4.984   5.913   4.162
 8401TIP3    H125146   4.898   5.954   4.142
 8401TIP3    H225147   4.994   5.939   4.255
 8402TIP3   OH225148   3.641   5.529   4.442
 8402TIP3    H125149   3.585   5.551   4.365
 8402TIP3    H225150   3.581   5.551   4.516
 8403TIP3   OH225151   3.986   6.373   3.433
 8403TIP3    H125152   3.944   6.363   3.346
 8403TIP3    H225153   3.941   6.455   3.464
 8404TIP3   OH225154   3.745   6.299   4.219
 8404TIP3    H125155   3.687   6.369   4.256
 8404TIP3    H225156   3.790   6.348   4.146
 8405TIP3   OH225157   4.536   5.641   3.792
 8405TIP3    H125158   4.523   5.592   3.874
 8405TIP3    H225159   4.592   5.716   3.822
 8406TIP3   OH225160   3.516   5.634   4.214
 8406TIP3    H125161   3.578   5.705   4.239
 8406TIP3    H225162   3.568   5.591   4.142
 8407TIP3   OH225163   3.577   6.497   4.320
 8407TIP3    H125164   3.552   6.585   4.285
 8407TIP3    H225165   3.497   6.480   4.375
 8408TIP3   OH225166   2.965   6.185   3.556
 8408TIP3    H125167   2.925   6.212   3.472
 8408TIP3    H225168   2.997   6.271   3.591
 8409TIP3   OH225169   4.407   6.697   3.793
 8409TIP3    H125170   4.318   6.690   3.835
 8409TIP3    H225171   4.399   6.782   3.746
 8410TIP3   OH225172   4.703   5.602   4.163
 8410TIP3    H125173   4.614   5.624   4.130
 8410TIP3    H225174   4.761   5.633   4.090
 8411TIP3   OH225175   4.109   6.748   3.445
 8411TIP3    H125176   4.160   6.667   3.424
 8411TIP3    H225177   4.184   6.814   3.446
 8412TIP3   OH225178   4.252   6.520   3.381
 8412TIP3    H125179   4.203   6.443   3.351
 8412TIP3    H225180   4.287   6.490   3.467
 8413TIP3   OH225181   4.636   6.608   4.139
 8413TIP3    H125182   4.617   6.533   4.078
 8413TIP3    H225183   4.613   6.686   4.084
 8414TIP3   OH225184   3.912   5.773   3.162
 8414TIP3    H125185   3.950   5.856   3.127
 8414TIP3    H225186   3.949   5.709   3.096
 8415TIP3   OH225187   4.829   6.253   3.991
 8415TIP3    H125188   4.744   6.302   3.994
 8415TIP3    H225189   4.859   6.276   3.900
 8416TIP3   OH225190   4.275   6.085   3.373
 8416TIP3    H125191   4.218   6.105   3.450
 8416TIP3    H225192   4.360   6.063   3.417
 8417TIP3   OH225193   4.506   6.125   4.287
 8417TIP3    H125194   4.505   6.208   4.339
 8417TIP3    H225195   4.420   6.132   4.242
 8418TIP3   OH225196   3.504   6.080   3.788
 8418TIP3    H125197   3.466   6.022   3.719
 8418TIP3    H225198   3.581   6.028   3.819
 8419TIP3   OH225199   3.634   6.496   3.934
 8419TIP3    H125200   3.617   6.463   3.845
 8419TIP3    H225201   3.724   6.460   3.953
 8420TIP3   OH225202   3.640   6.057   4.140
 8420TIP3    H125203   3.675   6.034   4.052
 8420TIP3    H225204   3.683   6.143   4.160
 8421TIP3   OH225205   4.168   6.691   3.919
 8421TIP3    H125206   4.153   6.775   3.967
 8421TIP3    H225207   4.150   6.623   3.986
 8422TIP3   OH225208   3.782   6.613   4.466
 8422TIP3    H125209   3.722   6.674   4.514
 8422TIP3    H225210   3.717   6.560   4.416
 8423TIP3   OH225211   4.108   5.968   3.194
 8423TIP3    H125212   4.169   6.031   3.239
 8423TIP3    H225213   4.135   5.982   3.099
 8424TIP3   OH225214   3.536   6.166   4.572
 8424TIP3    H125215   3.540   6.256   4.612
 8424TIP3    H225216   3.441   6.146   4.586
 8425TIP3   OH225217   3.865   6.621   3.472
 8425TIP3    H125218   3.947   6.673   3.470
 8425TIP3    H225219   3.801   6.682   3.433
 8426TIP3   OH225220   3.573   6.777   4.553
 8426TIP3    H125221   3.539   6.780   4.462
 8426TIP3    H225222   3.492   6.756   4.605
 8427TIP3   OH225223   4.629   5.184   3.246
 8427TIP3    H125224   4.548   5.206   3.296
 8427TIP3    H225225   4.644   5.266   3.194
 8428TIP3   OH225226   3.375   5.924   3.581
 8428TIP3    H125227   3.304   5.971   3.533
 8428TIP3    H225228   3.330   5.844   3.608
 8429TIP3   OH225229   4.429   6.550   2.794
 8429TIP3    H125230   4.436   6.646   2.779
 8429TIP3    H225231   4.522   6.522   2.782
 8430TIP3   OH225232   3.152   6.313   4.500
 8430TIP3    H125233   3.084   6.292   4.433
 8430TIP3    H225234   3.190   6.225   4.521
 8431TIP3   OH225235   3.008   6.505   4.130
 8431TIP3    H125236   3.105   6.499   4.122
 8431TIP3    H225237   2.999   6.582   4.188
 8432TIP3   OH225238   4.890   6.956   4.190
 8432TIP3    H125239   4.878   6.862   4.213
 8432TIP3    H225240   4.803   6.991   4.223
 8433TIP3   OH225241   3.973   6.743   4.320
 8433TIP3    H125242   3.973   6.835   4.356
 8433TIP3    H225243   3.905   6.701   4.376
 8434TIP3   OH225244   3.742   6.864   3.276
 8434TIP3    H125245   3.696   6.852   3.191
 8434TIP3    H225246   3.711   6.952   3.305
 8435TIP3   OH225247   3.177   6.717   3.662
 8435TIP3    H125248   3.224   6.709   3.748
 8435TIP3    H225249   3.126   6.634   3.661
 8436TIP3   OH225250   3.939   6.772   2.916
 8436TIP3    H125251   3.998   6.702   2.880
 8436TIP3    H225252   3.976   6.785   3.006
 8437TIP3   OH225253   3.997   6.823   3.188
 8437TIP3    H125254   3.908   6.832   3.229
 8437TIP3    H225255   4.050   6.796   3.265
 8438TIP3   OH225256   4.763   6.084   4.467
 8438TIP3    H125257   4.677   6.100   4.424
 8438TIP3    H225258   4.776   5.989   4.450
 8439TIP3   OH225259   3.357   6.495   4.483
 8439TIP3    H125260   3.406   6.479   4.566
 8439TIP3    H225261   3.282   6.432   4.492
 8440TIP3   OH225262   3.728   5.366   4.220
 8440TIP3    H125263   3.656   5.303   4.229
 8440TIP3    H225264   3.733   5.401   4.310
 8441TIP3   OH225265   4.291   5.433   4.469
 8441TIP3    H125266   4.358   5.398   4.531
 8441TIP3    H225267   4.207   5.410   4.514
 8442TIP3   OH225268   4.536   5.868   4.393
 8442TIP3    H125269   4.479   5.862   4.472
 8442TIP3    H225270   4.506   5.951   4.351
 8443TIP3   OH225271   4.191   5.982   2.942
 8443TIP3    H125272   4.153   5.964   2.853
 8443TIP3    H225273   4.274   6.028   2.918
 8444TIP3   OH225274   3.903   5.367   3.249
 8444TIP3    H125275   3.867   5.363   3.340
 8444TIP3    H225276   3.862   5.287   3.211
 8445TIP3   OH225277   3.690   5.835   4.291
 8445TIP3    H125278   3.639   5.853   4.373
 8445TIP3    H225279   3.672   5.916   4.239
 8446TIP3   OH225280   3.567   5.724   3.793
 8446TIP3    H125281   3.476   5.696   3.818
 8446TIP3    H225282   3.579   5.675   3.710
 8447TIP3   OH225283   4.237   6.077   4.616
 8447TIP3    H125284   4.215   6.006   4.680
 8447TIP3    H225285   4.329   6.097   4.641
 8448TIP3   OH225286   4.218   5.831   3.784
 8448TIP3    H125287   4.188   5.897   3.720
 8448TIP3    H225288   4.251   5.758   3.726
 8449TIP3   OH225289   3.507   5.861   4.499
 8449TIP3    H125290   3.541   5.923   4.565
 8449TIP3    H225291   3.496   5.779   4.551
 8450TIP3   OH225292   3.563   5.345   3.208
 8450TIP3    H125293   3.547   5.339   3.304
 8450TIP3    H225294   3.482   5.393   3.180
 8451TIP3   OH225295   3.101   5.380   4.082
 8451TIP3    H125296   3.174   5.416   4.137
 8451TIP3    H225297   3.145   5.350   4.002
 8452TIP3   OH225298   3.062   5.363   3.599
 8452TIP3    H125299   3.109   5.400   3.521
 8452TIP3    H225300   3.001   5.437   3.619
 8453TIP3   OH225301   4.227   6.078   4.190
 8453TIP3    H125302   4.264   6.007   4.133
 8453TIP3    H225303   4.196   6.025   4.266
 8454TIP3   OH225304   3.901   5.525   3.871
 8454TIP3    H125305   3.819   5.535   3.925
 8454TIP3    H225306   3.969   5.525   3.939
 8455TIP3   OH225307   3.334   5.600   3.868
 8455TIP3    H125308   3.239   5.606   3.843
 8455TIP3    H225309   3.355   5.506   3.853
 8456TIP3   OH225310   3.608   5.593   3.553
 8456TIP3    H125311   3.677   5.639   3.506
 8456TIP3    H225312   3.534   5.603   3.488
 8457TIP3   OH225313   4.396   5.616   4.071
 8457TIP3    H125314   4.365   5.628   4.164
 8457TIP3    H225315   4.326   5.557   4.036
 8458TIP3   OH225316   3.444   5.626   3.345
 8458TIP3    H125317   3.372   5.579   3.299
 8458TIP3    H225318   3.494   5.660   3.268
 8459TIP3   OH225319   4.559   7.323   4.301
 8459TIP3    H125320   4.564   7.324   4.204
 8459TIP3    H225321   4.645   7.361   4.326
 8460TIP3   OH225322   3.519   6.416   4.707
 8460TIP3    H125323   3.599   6.445   4.755
 8460TIP3    H225324   3.455   6.416   4.781
 8461TIP3   OH225325   3.980   5.875   3.969
 8461TIP3    H125326   4.050   5.822   3.930
 8461TIP3    H225327   3.974   5.836   4.060
 8462TIP3   OH225328   3.497   5.355   3.848
 8462TIP3    H125329   3.458   5.283   3.904
 8462TIP3    H225330   3.552   5.303   3.789
 8463TIP3   OH225331   3.959   5.788   4.232
 8463TIP3    H125332   3.868   5.808   4.260
 8463TIP3    H225333   4.014   5.838   4.295
 8464TIP3   OH225334   3.693   6.163   3.347
 8464TIP3    H125335   3.626   6.092   3.338
 8464TIP3    H225336   3.678   6.193   3.440
 8465TIP3   OH225337   4.592   6.390   3.972
 8465TIP3    H125338   4.618   6.444   3.895
 8465TIP3    H225339   4.506   6.352   3.944
 8466TIP3   OH225340   4.157   5.458   3.226
 8466TIP3    H125341   4.061   5.433   3.228
 8466TIP3    H225342   4.155   5.555   3.221
 8467TIP3   OH225343   4.087   6.473   4.350
 8467TIP3    H125344   4.133   6.463   4.435
 8467TIP3    H225345   4.057   6.565   4.353
 8468TIP3   OH225346   4.225   5.731   3.313
 8468TIP3    H125347   4.313   5.708   3.351
 8468TIP3    H225348   4.254   5.787   3.239
 8469TIP3   OH225349   3.387   6.180   4.022
 8469TIP3    H125350   3.427   6.150   3.937
 8469TIP3    H225351   3.434   6.124   4.086
 8470TIP3   OH225352   3.845   6.308   3.173
 8470TIP3    H125353   3.792   6.392   3.176
 8470TIP3    H225354   3.793   6.251   3.234
 8471TIP3   OH225355   3.272   6.099   4.638
 8471TIP3    H125356   3.288   6.085   4.733
 8471TIP3    H225357   3.202   6.034   4.620
 8472TIP3   OH225358   3.997   6.214   4.658
 8472TIP3    H125359   3.936   6.155   4.612
 8472TIP3    H225360   4.084   6.180   4.627
 8473TIP3   OH225361   4.248   6.724   4.248
 8473TIP3    H125362   4.152   6.735   4.261
 8473TIP3    H225363   4.281   6.783   4.318
 8474TIP3   OH225364   4.658   5.813   3.152
 8474TIP3    H125365   4.597   5.769   3.089
 8474TIP3    H225366   4.657   5.902   3.111
 8475TIP3   OH225367   4.883   6.664   4.234
 8475TIP3    H125368   4.785   6.664   4.225
 8475TIP3    H225369   4.908   6.637   4.143
 8476TIP3   OH225370   4.357   6.631   3.061
 8476TIP3    H125371   4.330   6.569   3.129
 8476TIP3    H225372   4.370   6.576   2.982
 8477TIP3   OH225373   4.357   6.260   3.881
 8477TIP3    H125374   4.266   6.234   3.903
 8477TIP3    H225375   4.392   6.176   3.844
 8478TIP3   OH225376   3.493   6.483   3.646
 8478TIP3    H125377   3.491   6.565   3.593
 8478TIP3    H225378   3.399   6.468   3.663
 8479TIP3   OH225379   3.057   5.788   3.359
 8479TIP3    H125380   3.099   5.874   3.380
 8479TIP3    H225381   2.978   5.791   3.418
 8480TIP3   OH225382   3.629   6.244   3.598
 8480TIP3    H125383   3.593   6.335   3.611
 8480TIP3    H225384   3.585   6.196   3.671
 8481TIP3   OH225385   3.761   6.825   4.117
 8481TIP3    H125386   3.803   6.898   4.067
 8481TIP3    H225387   3.838   6.791   4.166
 8482TIP3   OH225388   3.407   6.724   3.501
 8482TIP3    H125389   3.322   6.733   3.548
 8482TIP3    H225390   3.440   6.816   3.504
 8483TIP3   OH225391   4.141   6.457   4.082
 8483TIP3    H125392   4.127   6.459   4.180
 8483TIP3    H225393   4.231   6.423   4.078
 8484TIP3   OH225394   4.124   6.356   2.962
 8484TIP3    H125395   4.176   6.328   3.040
 8484TIP3    H225396   4.034   6.332   2.991
 8485TIP3   OH225397   4.374   6.987   4.121
 8485TIP3    H125398   4.290   6.939   4.103
 8485TIP3    H225399   4.371   7.058   4.054
 8486TIP3   OH225400   4.460   6.825   2.768
 8486TIP3    H125401   4.496   6.905   2.727
 8486TIP3    H225402   4.383   6.863   2.814
 8487TIP3   OH225403   3.472   5.610   4.646
 8487TIP3    H125404   3.375   5.608   4.656
 8487TIP3    H225405   3.502   5.551   4.717
 8488TIP3   OH225406   4.285   6.277   3.171
 8488TIP3    H125407   4.280   6.217   3.248
 8488TIP3    H225408   4.382   6.283   3.160
 8489TIP3   OH225409   3.197   6.688   4.275
 8489TIP3    H125410   3.252   6.618   4.313
 8489TIP3    H225411   3.223   6.764   4.329
 8490TIP3   OH225412   3.485   6.335   2.961
 8490TIP3    H125413   3.499   6.242   2.936
 8490TIP3    H225414   3.465   6.327   3.056
 8491TIP3   OH225415   3.429   6.340   3.233
 8491TIP3    H125416   3.507   6.314   3.285
 8491TIP3    H225417   3.432   6.438   3.241
 8492TIP3   OH225418   3.164   6.033   3.438
 8492TIP3    H125419   3.096   6.078   3.494
 8492TIP3    H225420   3.175   6.101   3.369
 8493TIP3   OH225421   4.324   5.666   4.330
 8493TIP3    H125422   4.400   5.701   4.378
 8493TIP3    H225423   4.304   5.584   4.381
 8494TIP3   OH225424   4.185   5.433   3.504
 8494TIP3    H125425   4.185   5.443   3.407
 8494TIP3    H225426   4.238   5.510   3.534
 8495TIP3   OH225427   3.697   6.534   3.179
 8495TIP3    H125428   3.610   6.559   3.216
 8495TIP3    H225429   3.717   6.614   3.128
 8496TIP3   OH225430   4.158   5.917   4.398
 8496TIP3    H125431   4.182   5.970   4.477
 8496TIP3    H225432   4.208   5.835   4.413
 8497TIP3   OH225433   4.022   5.323   3.698
 8497TIP3    H125434   4.014   5.397   3.763
 8497TIP3    H225435   4.086   5.362   3.634
 8498TIP3   OH225436   3.443   6.612   3.251
 8498TIP3    H125437   3.414   6.683   3.189
 8498TIP3    H225438   3.428   6.655   3.338
 8499TIP3   OH225439   3.540   5.320   3.482
 8499TIP3    H125440   3.541   5.407   3.526
 8499TIP3    H225441   3.634   5.296   3.489
 8500TIP3   OH225442   4.800   5.815   4.383
 8500TIP3    H125443   4.702   5.819   4.395
 8500TIP3    H225444   4.803   5.764   4.301
 8501TIP3   OH225445   4.448   6.008   3.776
 8501TIP3    H125446   4.380   5.951   3.814
 8501TIP3    H225447   4.528   5.970   3.819
 8502TIP3   OH225448   3.161   6.235   3.241
 8502TIP3    H125449   3.232   6.302   3.250
 8502TIP3    H225450   3.202   6.179   3.172
 8503TIP3   OH225451   3.104   5.517   3.376
 8503TIP3    H125452   3.102   5.615   3.375
 8503TIP3    H225453   3.026   5.496   3.324
 8504TIP3   OH225454   4.420   6.976   3.728
 8504TIP3    H125455   4.378   6.970   3.639
 8504TIP3    H225456   4.513   6.993   3.700
 8505TIP3   OH225457   3.474   5.236   4.250
 8505TIP3    H125458   3.454   5.199   4.162
 8505TIP3    H225459   3.473   5.157   4.307
 8506TIP3   OH225460   3.024   6.453   3.623
 8506TIP3    H125461   2.964   6.484   3.692
 8506TIP3    H225462   2.988   6.499   3.543
 8507TIP3   OH225463   3.191   7.007   4.699
 8507TIP3    H125464   3.278   7.008   4.746
 8507TIP3    H225465   3.172   6.912   4.698
 8508TIP3   OH225466   3.665   6.957   4.744
 8508TIP3    H125467   3.760   6.937   4.750
 8508TIP3    H225468   3.639   6.895   4.672
 8509TIP3   OH225469   3.647   6.537   2.867
 8509TIP3    H125470   3.593   6.466   2.908
 8509TIP3    H225471   3.724   6.486   2.836
 8510TIP3   OH225472   4.278   6.865   4.487
 8510TIP3    H125473   4.264   6.791   4.552
 8510TIP3    H225474   4.377   6.869   4.489
 8511TIP3   OH225475   4.084   6.575   2.785
 8511TIP3    H125476   4.126   6.514   2.847
 8511TIP3    H225477   4.143   6.572   2.707
 8512TIP3   OH225478   3.317   6.406   4.899
 8512TIP3    H125479   3.333   6.310   4.906
 8512TIP3    H225480   3.230   6.409   4.854
 8513TIP3   OH225481   3.296   6.052   3.094
 8513TIP3    H125482   3.354   6.026   3.168
 8513TIP3    H225483   3.362   6.058   3.022
 8514TIP3   OH225484   3.920   6.489   4.675
 8514TIP3    H125485   3.885   6.514   4.587
 8514TIP3    H225486   3.954   6.398   4.660
 8515TIP3   OH225487   3.812   6.257   2.904
 8515TIP3    H125488   3.814   6.271   3.001
 8515TIP3    H225489   3.815   6.159   2.900
 8516TIP3   OH225490   4.415   6.503   4.276
 8516TIP3    H125491   4.494   6.549   4.241
 8516TIP3    H225492   4.349   6.576   4.268
 8517TIP3   OH225493   3.437   6.143   4.885
 8517TIP3    H125494   3.517   6.097   4.854
 8517TIP3    H225495   3.467   6.175   4.973
 8518TIP3   OH225496   3.506   5.960   3.319
 8518TIP3    H125497   3.468   5.924   3.401
 8518TIP3    H225498   3.534   5.880   3.271
 8519TIP3   OH225499   3.771   6.023   4.545
 8519TIP3    H125500   3.694   6.083   4.546
 8519TIP3    H225501   3.822   6.057   4.468
 8520TIP3   OH225502   3.602   5.752   3.157
 8520TIP3    H125503   3.574   5.760   3.063
 8520TIP3    H225504   3.698   5.748   3.148
 8521TIP3   OH225505   4.284   6.422   4.674
 8521TIP3    H125506   4.370   6.406   4.634
 8521TIP3    H225507   4.283   6.360   4.749
 8522TIP3   OH225508   4.420   6.080   2.826
 8522TIP3    H125509   4.401   6.037   2.740
 8522TIP3    H225510   4.388   6.171   2.805
 8523TIP3   OH225511   3.898   5.815   4.667
 8523TIP3    H125512   3.898   5.737   4.607
 8523TIP3    H225513   3.852   5.882   4.611
 8524TIP3   OH225514   3.898   5.608   4.474
 8524TIP3    H125515   3.924   5.633   4.384
 8524TIP3    H225516   3.805   5.580   4.462
 8525TIP3   OH225517   3.920   6.133   4.351
 8525TIP3    H125518   4.007   6.150   4.313
 8525TIP3    H225519   3.864   6.199   4.305
 8526TIP3   OH225520   4.502   6.103   4.728
 8526TIP3    H125521   4.554   6.021   4.733
 8526TIP3    H225522   4.567   6.167   4.695
 8527TIP3   OH225523   4.544   6.351   4.459
 8527TIP3    H125524   4.486   6.409   4.405
 8527TIP3    H225525   4.632   6.378   4.423
 8528TIP3   OH225526   3.776   5.917   4.904
 8528TIP3    H125527   3.707   5.848   4.918
 8528TIP3    H225528   3.808   5.893   4.814
 8529TIP3   OH225529   4.036   5.361   4.547
 8529TIP3    H125530   3.974   5.432   4.518
 8529TIP3    H225531   4.003   5.284   4.495
 8530TIP3   OH225532   4.157   5.860   4.761
 8530TIP3    H125533   4.137   5.846   4.855
 8530TIP3    H225534   4.068   5.839   4.724
 8531TIP3   OH225535   4.395   5.813   4.616
 8531TIP3    H125536   4.318   5.815   4.676
 8531TIP3    H225537   4.466   5.782   4.675
 8532TIP3   OH225538   4.639   5.762   4.766
 8532TIP3    H125539   4.643   5.665   4.779
 8532TIP3    H225540   4.623   5.796   4.857
 8533TIP3   OH225541   3.611   5.699   4.959
 8533TIP3    H125542   3.615   5.607   4.924
 8533TIP3    H225543   3.650   5.686   5.048
 8534TIP3   OH225544   4.116   5.369   4.811
 8534TIP3    H125545   4.183   5.298   4.801
 8534TIP3    H225546   4.078   5.368   4.720
 8535TIP3   OH225547   4.191   5.586   4.964
 8535TIP3    H125548   4.169   5.513   4.901
 8535TIP3    H225549   4.112   5.644   4.956
 8536TIP3   OH225550   3.414   6.814   3.062
 8536TIP3    H125551   3.509   6.805   3.044
 8536TIP3    H225552   3.387   6.867   2.985
 8537TIP3   OH225553   2.891   6.198   3.275
 8537TIP3    H125554   2.986   6.218   3.261
 8537TIP3    H225555   2.884   6.109   3.233
 8538TIP3   OH225556   2.809   6.808   3.696
 8538TIP3    H125557   2.743   6.747   3.655
 8538TIP3    H225558   2.853   6.747   3.759
 8539TIP3   OH225559   2.943   6.651   3.880
 8539TIP3    H125560   2.930   6.584   3.949
 8539TIP3    H225561   2.996   6.717   3.930
 8540TIP3   OH225562   4.686   7.040   3.680
 8540TIP3    H125563   4.702   7.066   3.773
 8540TIP3    H225564   4.735   7.107   3.631
 8541TIP3   OH225565   4.701   7.076   3.953
 8541TIP3    H125566   4.651   6.992   3.954
 8541TIP3    H225567   4.748   7.066   4.038
 8542TIP3   OH225568   4.564   6.268   3.153
 8542TIP3    H125569   4.627   6.336   3.122
 8542TIP3    H225570   4.610   6.233   3.232
 8543TIP3   OH225571   4.692   6.136   3.360
 8543TIP3    H125572   4.623   6.097   3.418
 8543TIP3    H225573   4.754   6.175   3.424
 8544TIP3   OH225574   4.750   6.528   3.794
 8544TIP3    H125575   4.799   6.465   3.739
 8544TIP3    H225576   4.749   6.608   3.736
 8545TIP3   OH225577   4.568   6.834   3.988
 8545TIP3    H125578   4.499   6.877   4.043
 8545TIP3    H225579   4.515   6.792   3.917
 8546TIP3   OH225580   4.626   6.045   3.003
 8546TIP3    H125581   4.554   6.046   2.936
 8546TIP3    H225582   4.598   6.122   3.057
 8547TIP3   OH225583   4.489   5.720   2.962
 8547TIP3    H125584   4.454   5.752   2.878
 8547TIP3    H225585   4.470   5.624   2.954
 8548TIP3   OH225586   4.500   5.996   3.506
 8548TIP3    H125587   4.518   5.901   3.498
 8548TIP3    H225588   4.487   6.007   3.603
 8549TIP3   OH225589   3.126   6.067   4.253
 8549TIP3    H125590   3.123   6.032   4.161
 8549TIP3    H225591   3.224   6.068   4.268
 8550TIP3   OH225592   4.793   6.422   4.366
 8550TIP3    H125593   4.864   6.356   4.353
 8550TIP3    H225594   4.813   6.490   4.299
 8551TIP3   OH225595   4.976   6.217   4.362
 8551TIP3    H125596   4.900   6.172   4.406
 8551TIP3    H225597   5.047   6.153   4.383
 8552TIP3   OH225598   4.438   5.455   2.945
 8552TIP3    H125599   4.514   5.419   2.995
 8552TIP3    H225600   4.368   5.389   2.958
 8553TIP3   OH225601   4.497   5.706   3.387
 8553TIP3    H125602   4.541   5.618   3.402
 8553TIP3    H225603   4.556   5.741   3.317
 8554TIP3   OH225604   4.661   5.881   3.893
 8554TIP3    H125605   4.748   5.904   3.853
 8554TIP3    H225606   4.674   5.918   3.982
 8555TIP3   OH225607   4.731   6.029   4.122
 8555TIP3    H125608   4.654   6.061   4.173
 8555TIP3    H225609   4.763   6.112   4.080
 8556TIP3   OH225610   3.345   5.751   4.923
 8556TIP3    H125611   3.442   5.746   4.927
 8556TIP3    H225612   3.322   5.664   4.962
 8557TIP3   OH225613   5.232   5.639   4.684
 8557TIP3    H125614   5.275   5.558   4.646
 8557TIP3    H225615   5.179   5.668   4.606
 8558TIP3   OH225616   4.604   5.460   3.436
 8558TIP3    H125617   4.655   5.445   3.519
 8558TIP3    H225618   4.545   5.382   3.436
 8559TIP3   OH225619   3.304   5.451   4.257
 8559TIP3    H125620   3.361   5.372   4.266
 8559TIP3    H225621   3.371   5.521   4.247
 8560TIP3   OH225622   3.105   5.719   4.325
 8560TIP3    H125623   3.158   5.713   4.243
 8560TIP3    H225624   3.137   5.802   4.362
 8561TIP3   OH225625   5.050   5.743   4.503
 8561TIP3    H125626   4.967   5.794   4.520
 8561TIP3    H225627   5.016   5.679   4.437
 8562TIP3   OH225628   4.683   5.391   3.069
 8562TIP3    H125629   4.723   5.321   3.014
 8562TIP3    H225630   4.752   5.461   3.067
 8563TIP3   OH225631   3.095   5.221   3.827
 8563TIP3    H125632   3.003   5.216   3.858
 8563TIP3    H225633   3.087   5.281   3.750
 8564TIP3   OH225634   3.314   5.304   4.643
 8564TIP3    H125635   3.263   5.304   4.725
 8564TIP3    H225636   3.249   5.342   4.581
 8565TIP3   OH225637   3.352   6.734   4.716
 8565TIP3    H125638   3.258   6.710   4.704
 8565TIP3    H225639   3.365   6.714   4.810
 8566TIP3   OH225640   3.535   6.767   4.266
 8566TIP3    H125641   3.488   6.844   4.228
 8566TIP3    H225642   3.621   6.780   4.222
 8567TIP3   OH225643   3.973   7.009   4.405
 8567TIP3    H125644   4.016   7.007   4.494
 8567TIP3    H225645   4.041   7.058   4.355
 8568TIP3   OH225646   4.157   7.160   4.265
 8568TIP3    H125647   4.229   7.106   4.230
 8568TIP3    H225648   4.207   7.217   4.328
 8569TIP3   OH225649   4.948   5.516   4.364
 8569TIP3    H125650   4.858   5.503   4.328
 8569TIP3    H225651   4.984   5.424   4.354
 8570TIP3   OH225652   3.206   7.020   4.293
 8570TIP3    H125653   3.116   7.052   4.271
 8570TIP3    H225654   3.222   7.068   4.375
 8571TIP3   OH225655   3.444   7.000   4.152
 8571TIP3    H125656   3.356   7.012   4.194
 8571TIP3    H225657   3.426   7.032   4.061
 8572TIP3   OH225658   3.866   7.025   3.952
 8572TIP3    H125659   3.801   7.042   3.882
 8572TIP3    H225660   3.877   7.114   3.992
 8573TIP3   OH225661   4.132   6.958   3.993
 8573TIP3    H125662   4.038   6.980   3.978
 8573TIP3    H225663   4.177   7.033   3.950
 8574TIP3   OH225664   4.346   7.163   3.914
 8574TIP3    H125665   4.328   7.245   3.863
 8574TIP3    H225666   4.371   7.100   3.842
 8575TIP3   OH225667   3.118   6.812   4.035
 8575TIP3    H125668   3.146   6.784   4.125
 8575TIP3    H225669   3.191   6.771   3.983
 8576TIP3   OH225670   3.315   6.687   3.896
 8576TIP3    H125671   3.330   6.603   3.945
 8576TIP3    H225672   3.406   6.723   3.894
 8577TIP3   OH225673   3.582   6.778   3.903
 8577TIP3    H125674   3.612   6.685   3.893
 8577TIP3    H225675   3.632   6.802   3.983
 8578TIP3   OH225676   4.168   5.438   3.980
 8578TIP3    H125677   4.151   5.375   4.051
 8578TIP3    H225678   4.240   5.393   3.930
 8579TIP3   OH225679   4.674   5.321   3.887
 8579TIP3    H125680   4.709   5.371   3.810
 8579TIP3    H225681   4.578   5.337   3.879
 8580TIP3   OH225682   4.770   5.417   3.651
 8580TIP3    H125683   4.844   5.363   3.614
 8580TIP3    H225684   4.807   5.507   3.636
 8581TIP3   OH225685   3.402   5.142   3.995
 8581TIP3    H125686   3.310   5.108   4.001
 8581TIP3    H225687   3.452   5.058   3.993
 8582TIP3   OH225688   3.192   5.016   3.650
 8582TIP3    H125689   3.220   5.072   3.576
 8582TIP3    H225690   3.165   5.083   3.717
 8583TIP3   OH225691   3.838   5.175   3.882
 8583TIP3    H125692   3.903   5.229   3.834
 8583TIP3    H225693   3.838   5.217   3.970
 8584TIP3   OH225694   4.395   5.325   3.856
 8584TIP3    H125695   4.399   5.277   3.772
 8584TIP3    H225696   4.382   5.250   3.919
 8585TIP3   OH225697   4.425   5.246   3.427
 8585TIP3    H125698   4.333   5.275   3.433
 8585TIP3    H225699   4.419   5.160   3.474
 8586TIP3   OH225700   2.906   6.592   3.423
 8586TIP3    H125701   2.820   6.559   3.391
 8586TIP3    H225702   2.899   6.685   3.396
 8587TIP3   OH225703   3.309   5.171   3.408
 8587TIP3    H125704   3.356   5.106   3.351
 8587TIP3    H225705   3.384   5.223   3.444
 8588TIP3   OH225706   3.816   5.360   3.516
 8588TIP3    H125707   3.887   5.314   3.565
 8588TIP3    H225708   3.794   5.430   3.580
 8589TIP3   OH225709   3.680   6.769   3.010
 8589TIP3    H125710   3.769   6.792   2.974
 8589TIP3    H225711   3.658   6.694   2.949
 8590TIP3   OH225712   4.442   6.897   3.064
 8590TIP3    H125713   4.413   6.806   3.087
 8590TIP3    H225714   4.365   6.928   3.014
 8591TIP3   OH225715   3.611   5.426   4.890
 8591TIP3    H125716   3.575   5.352   4.942
 8591TIP3    H225717   3.705   5.424   4.917
 8592TIP3   OH225718   3.862   5.422   5.008
 8592TIP3    H125719   3.945   5.400   4.962
 8592TIP3    H225720   3.855   5.348   5.071
 8593TIP3   OH225721   2.982   6.608   3.062
 8593TIP3    H125722   2.988   6.627   3.157
 8593TIP3    H225723   3.069   6.564   3.045
 8594TIP3   OH225724   4.688   5.488   4.797
 8594TIP3    H125725   4.703   5.456   4.888
 8594TIP3    H225726   4.775   5.473   4.756
 8595TIP3   OH225727   4.648   7.057   4.245
 8595TIP3    H125728   4.597   6.983   4.285
 8595TIP3    H225729   4.612   7.130   4.299
 8596TIP3   OH225730   5.892   6.413   3.053
 8596TIP3    H125731   5.858   6.502   3.028
 8596TIP3    H225732   5.819   6.358   3.018
 8597TIP3   OH225733   5.888   6.410   3.438
 8597TIP3    H125734   5.923   6.373   3.520
 8597TIP3    H225735   5.848   6.331   3.398
 8598TIP3   OH225736   5.201   6.304   3.789
 8598TIP3    H125737   5.228   6.234   3.851
 8598TIP3    H225738   5.248   6.380   3.829
 8599TIP3   OH225739   6.136   6.720   3.119
 8599TIP3    H125740   6.122   6.647   3.181
 8599TIP3    H225741   6.170   6.790   3.176
 8600TIP3   OH225742   5.167   6.718   3.520
 8600TIP3    H125743   5.162   6.620   3.525
 8600TIP3    H225744   5.263   6.730   3.520
 8601TIP3   OH225745   4.868   5.916   3.305
 8601TIP3    H125746   4.817   5.997   3.324
 8601TIP3    H225747   4.799   5.863   3.261
 8602TIP3   OH225748   4.929   6.205   3.488
 8602TIP3    H125749   4.977   6.125   3.520
 8602TIP3    H225750   4.978   6.228   3.408
 8603TIP3   OH225751   5.792   7.179   3.140
 8603TIP3    H125752   5.829   7.106   3.086
 8603TIP3    H225753   5.775   7.134   3.224
 8604TIP3   OH225754   5.691   6.625   3.482
 8604TIP3    H125755   5.734   6.549   3.438
 8604TIP3    H225756   5.770   6.676   3.506
 8605TIP3   OH225757   6.705   5.955   3.482
 8605TIP3    H125758   6.735   6.038   3.525
 8605TIP3    H225759   6.732   5.970   3.390
 8606TIP3   OH225760   6.097   6.148   3.519
 8606TIP3    H125761   6.142   6.064   3.541
 8606TIP3    H225762   6.066   6.126   3.429
 8607TIP3   OH225763   5.443   5.796   3.480
 8607TIP3    H125764   5.423   5.866   3.414
 8607TIP3    H225765   5.397   5.720   3.438
 8608TIP3   OH225766   6.136   5.892   3.099
 8608TIP3    H125767   6.207   5.876   3.167
 8608TIP3    H225768   6.191   5.923   3.025
 8609TIP3   OH225769   5.075   5.997   3.588
 8609TIP3    H125770   5.158   5.976   3.636
 8609TIP3    H225771   5.087   5.941   3.509
 8610TIP3   OH225772   5.509   6.191   3.394
 8610TIP3    H125773   5.604   6.168   3.400
 8610TIP3    H225774   5.470   6.108   3.358
 8611TIP3   OH225775   6.779   6.164   3.656
 8611TIP3    H125776   6.694   6.209   3.641
 8611TIP3    H225777   6.811   6.210   3.736
 8612TIP3   OH225778   5.436   5.782   3.918
 8612TIP3    H125779   5.377   5.816   3.848
 8612TIP3    H225780   5.381   5.799   3.997
 8613TIP3   OH225781   5.778   6.629   2.921
 8613TIP3    H125782   5.738   6.614   2.834
 8613TIP3    H225783   5.732   6.711   2.949
 8614TIP3   OH225784   6.337   5.898   3.279
 8614TIP3    H125785   6.342   5.839   3.356
 8614TIP3    H225786   6.392   5.974   3.308
 8615TIP3   OH225787   5.312   5.897   3.699
 8615TIP3    H125788   5.376   5.969   3.720
 8615TIP3    H225789   5.359   5.855   3.623
 8616TIP3   OH225790   5.379   6.751   3.811
 8616TIP3    H125791   5.352   6.836   3.772
 8616TIP3    H225792   5.299   6.730   3.863
 8617TIP3   OH225793   4.760   6.441   3.042
 8617TIP3    H125794   4.720   6.469   2.958
 8617TIP3    H225795   4.791   6.528   3.078
 8618TIP3   OH225796   6.200   6.958   3.283
 8618TIP3    H125797   6.110   6.949   3.322
 8618TIP3    H225798   6.194   7.045   3.239
 8619TIP3   OH225799   6.497   5.854   3.647
 8619TIP3    H125800   6.411   5.883   3.613
 8619TIP3    H225801   6.559   5.886   3.578
 8620TIP3   OH225802   5.786   5.492   3.629
 8620TIP3    H125803   5.772   5.397   3.650
 8620TIP3    H225804   5.709   5.531   3.676
 8621TIP3   OH225805   5.897   7.002   2.955
 8621TIP3    H125806   5.948   6.919   2.939
 8621TIP3    H225807   5.959   7.066   2.913
 8622TIP3   OH225808   6.046   6.790   2.869
 8622TIP3    H125809   6.014   6.708   2.830
 8622TIP3    H225810   6.085   6.757   2.953
 8623TIP3   OH225811   6.422   6.864   3.628
 8623TIP3    H125812   6.417   6.789   3.565
 8623TIP3    H225813   6.416   6.941   3.567
 8624TIP3   OH225814   5.724   6.264   2.889
 8624TIP3    H125815   5.643   6.315   2.867
 8624TIP3    H225816   5.768   6.258   2.802
 8625TIP3   OH225817   5.679   6.051   2.596
 8625TIP3    H125818   5.748   6.102   2.645
 8625TIP3    H225819   5.736   5.986   2.550
 8626TIP3   OH225820   6.623   6.505   3.474
 8626TIP3    H125821   6.540   6.558   3.478
 8626TIP3    H225822   6.656   6.530   3.385
 8627TIP3   OH225823   6.070   6.347   2.854
 8627TIP3    H125824   6.016   6.370   2.934
 8627TIP3    H225825   6.154   6.320   2.897
 8628TIP3   OH225826   6.309   6.380   3.780
 8628TIP3    H125827   6.311   6.460   3.838
 8628TIP3    H225828   6.233   6.401   3.723
 8629TIP3   OH225829   5.299   6.337   3.277
 8629TIP3    H125830   5.258   6.281   3.208
 8629TIP3    H225831   5.375   6.282   3.306
 8630TIP3   OH225832   5.436   6.762   3.418
 8630TIP3    H125833   5.417   6.720   3.333
 8630TIP3    H225834   5.518   6.716   3.445
 8631TIP3   OH225835   5.491   6.330   3.631
 8631TIP3    H125836   5.498   6.285   3.543
 8631TIP3    H225837   5.443   6.411   3.606
 8632TIP3   OH225838   5.961   6.948   3.408
 8632TIP3    H125839   5.947   7.032   3.455
 8632TIP3    H225840   5.938   6.881   3.475
 8633TIP3   OH225841   5.580   6.864   3.955
 8633TIP3    H125842   5.516   6.925   3.999
 8633TIP3    H225843   5.516   6.811   3.902
 8634TIP3   OH225844   5.905   6.205   2.683
 8634TIP3    H125845   5.966   6.264   2.733
 8634TIP3    H225846   5.933   6.225   2.590
 8635TIP3   OH225847   5.312   6.427   4.042
 8635TIP3    H125848   5.330   6.513   4.084
 8635TIP3    H225849   5.221   6.409   4.075
 8636TIP3   OH225850   5.656   6.876   2.958
 8636TIP3    H125851   5.737   6.929   2.965
 8636TIP3    H225852   5.595   6.936   2.914
 8637TIP3   OH225853   5.373   7.029   4.042
 8637TIP3    H125854   5.336   7.030   3.952
 8637TIP3    H225855   5.294   7.008   4.097
 8638TIP3   OH225856   6.425   5.440   2.733
 8638TIP3    H125857   6.343   5.461   2.783
 8638TIP3    H225858   6.438   5.523   2.683
 8639TIP3   OH225859   5.166   6.186   3.080
 8639TIP3    H125860   5.096   6.228   3.026
 8639TIP3    H225861   5.135   6.095   3.085
 8640TIP3   OH225862   6.228   6.807   2.285
 8640TIP3    H125863   6.239   6.903   2.267
 8640TIP3    H225864   6.320   6.775   2.271
 8641TIP3   OH225865   4.949   6.568   3.989
 8641TIP3    H125866   4.877   6.553   3.923
 8641TIP3    H225867   4.981   6.478   4.007
 8642TIP3   OH225868   4.802   6.754   3.640
 8642TIP3    H125869   4.894   6.773   3.617
 8642TIP3    H225870   4.770   6.840   3.670
 8643TIP3   OH225871   6.663   7.190   3.672
 8643TIP3    H125872   6.679   7.100   3.702
 8643TIP3    H225873   6.584   7.215   3.723
 8644TIP3   OH225874   5.769   6.994   3.809
 8644TIP3    H125875   5.767   7.087   3.841
 8644TIP3    H225876   5.699   6.954   3.865
 8645TIP3   OH225877   5.539   7.126   2.761
 8645TIP3    H125878   5.489   7.103   2.680
 8645TIP3    H225879   5.501   7.212   2.786
 8646TIP3   OH225880   4.973   6.982   3.149
 8646TIP3    H125881   5.019   6.969   3.235
 8646TIP3    H225882   4.911   6.907   3.151
 8647TIP3   OH225883   5.738   7.031   2.398
 8647TIP3    H125884   5.794   6.957   2.364
 8647TIP3    H225885   5.769   7.038   2.491
 8648TIP3   OH225886   5.788   7.075   2.668
 8648TIP3    H125887   5.699   7.086   2.709
 8648TIP3    H225888   5.834   7.030   2.740
 8649TIP3   OH225889   6.549   6.339   3.944
 8649TIP3    H125890   6.470   6.348   3.889
 8649TIP3    H225891   6.569   6.244   3.934
 8650TIP3   OH225892   5.155   6.749   3.967
 8650TIP3    H125893   5.202   6.737   4.052
 8650TIP3    H225894   5.078   6.688   3.978
 8651TIP3   OH225895   5.552   5.574   3.763
 8651TIP3    H125896   5.466   5.541   3.729
 8651TIP3    H225897   5.520   5.652   3.813
 8652TIP3   OH225898   6.089   5.694   3.953
 8652TIP3    H125899   6.161   5.663   4.012
 8652TIP3    H225900   6.008   5.668   4.002
 8653TIP3   OH225901   6.317   6.113   3.867
 8653TIP3    H125902   6.270   6.114   3.954
 8653TIP3    H225903   6.304   6.205   3.836
 8654TIP3   OH225904   5.985   6.247   2.429
 8654TIP3    H125905   5.949   6.223   2.341
 8654TIP3    H225906   6.072   6.284   2.404
 8655TIP3   OH225907   5.697   5.622   2.732
 8655TIP3    H125908   5.662   5.618   2.823
 8655TIP3    H225909   5.658   5.540   2.696
 8656TIP3   OH225910   5.492   6.101   3.783
 8656TIP3    H125911   5.431   6.117   3.859
 8656TIP3    H225912   5.485   6.187   3.735
 8657TIP3   OH225913   5.367   5.978   3.293
 8657TIP3    H125914   5.275   5.949   3.311
 8657TIP3    H225915   5.380   5.937   3.204
 8658TIP3   OH225916   5.860   6.063   3.025
 8658TIP3    H125917   5.810   6.133   2.978
 8658TIP3    H225918   5.915   6.027   2.953
 8659TIP3   OH225919   6.034   6.342   4.110
 8659TIP3    H125920   6.018   6.267   4.171
 8659TIP3    H225921   6.129   6.358   4.128
 8660TIP3   OH225922   6.014   6.088   3.258
 8660TIP3    H125923   5.951   6.110   3.186
 8660TIP3    H225924   6.054   6.009   3.217
 8661TIP3   OH225925   5.318   6.122   3.992
 8661TIP3    H125926   5.304   6.196   4.054
 8661TIP3    H225927   5.298   6.044   4.047
 8662TIP3   OH225928   5.354   5.598   2.696
 8662TIP3    H125929   5.344   5.595   2.793
 8662TIP3    H225930   5.275   5.650   2.671
 8663TIP3   OH225931   4.896   5.640   3.569
 8663TIP3    H125932   4.973   5.671   3.621
 8663TIP3    H225933   4.937   5.606   3.487
 8664TIP3   OH225934   4.858   5.618   3.086
 8664TIP3    H125935   4.905   5.654   3.008
 8664TIP3    H225936   4.798   5.693   3.104
 8665TIP3   OH225937   5.992   6.337   3.688
 8665TIP3    H125938   6.041   6.278   3.625
 8665TIP3    H225939   5.983   6.272   3.762
 8666TIP3   OH225940   5.706   5.807   3.354
 8666TIP3    H125941   5.625   5.796   3.409
 8666TIP3    H225942   5.776   5.784   3.417
 8667TIP3   OH225943   5.130   5.854   3.360
 8667TIP3    H125944   5.037   5.859   3.330
 8667TIP3    H225945   5.155   5.762   3.337
 8668TIP3   OH225946   5.393   5.851   3.053
 8668TIP3    H125947   5.487   5.861   3.030
 8668TIP3    H225948   5.347   5.871   2.968
 8669TIP3   OH225949   6.182   5.884   3.566
 8669TIP3    H125950   6.142   5.891   3.655
 8669TIP3    H225951   6.125   5.817   3.524
 8670TIP3   OH225952   5.245   5.889   2.826
 8670TIP3    H125953   5.176   5.840   2.778
 8670TIP3    H225954   5.298   5.924   2.752
 8671TIP3   OH225955   5.319   6.670   4.193
 8671TIP3    H125956   5.397   6.702   4.244
 8671TIP3    H225957   5.251   6.670   4.263
 8672TIP3   OH225958   5.778   6.130   3.452
 8672TIP3    H125959   5.845   6.085   3.398
 8672TIP3    H225960   5.779   6.077   3.534
 8673TIP3   OH225961   5.297   5.611   3.336
 8673TIP3    H125962   5.260   5.535   3.386
 8673TIP3    H225963   5.353   5.565   3.272
 8674TIP3   OH225964   5.752   6.022   3.730
 8674TIP3    H125965   5.661   6.053   3.746
 8674TIP3    H225966   5.807   6.079   3.787
 8675TIP3   OH225967   5.490   6.413   2.835
 8675TIP3    H125968   5.419   6.347   2.822
 8675TIP3    H225969   5.470   6.446   2.926
 8676TIP3   OH225970   6.388   6.650   3.458
 8676TIP3    H125971   6.416   6.700   3.378
 8676TIP3    H225972   6.305   6.607   3.428
 8677TIP3   OH225973   5.948   5.724   2.704
 8677TIP3    H125974   5.852   5.702   2.713
 8677TIP3    H225975   5.952   5.818   2.730
 8678TIP3   OH225976   5.872   6.705   3.862
 8678TIP3    H125977   5.932   6.728   3.937
 8678TIP3    H225978   5.834   6.792   3.842
 8679TIP3   OH225979   6.015   5.976   2.807
 8679TIP3    H125980   6.112   5.979   2.820
 8679TIP3    H225981   5.998   6.055   2.753
 8680TIP3   OH225982   5.210   6.445   3.518
 8680TIP3    H125983   5.233   6.405   3.431
 8680TIP3    H225984   5.203   6.369   3.577
 8681TIP3   OH225985   5.637   6.564   2.660
 8681TIP3    H125986   5.588   6.649   2.664
 8681TIP3    H225987   5.582   6.508   2.720
 8682TIP3   OH225988   5.065   6.345   4.124
 8682TIP3    H125989   5.072   6.331   4.220
 8682TIP3    H225990   4.988   6.289   4.103
 8683TIP3   OH225991   5.792   6.463   4.079
 8683TIP3    H125992   5.743   6.391   4.125
 8683TIP3    H225993   5.886   6.432   4.092
 8684TIP3   OH225994   6.040   6.981   3.740
 8684TIP3    H125995   5.944   6.992   3.755
 8684TIP3    H225996   6.075   7.039   3.811
 8685TIP3   OH225997   6.455   6.069   2.638
 8685TIP3    H125998   6.393   6.024   2.574
 8685TIP3    H225999   6.453   6.158   2.597
 8686TIP3   OH226000   6.674   6.912   3.723
 8686TIP3    H126001   6.576   6.913   3.711
 8686TIP3    H226002   6.701   6.889   3.631
 8687TIP3   OH226003   6.162   6.879   2.549
 8687TIP3    H126004   6.135   6.808   2.608
 8687TIP3    H226005   6.176   6.832   2.464
 8688TIP3   OH226006   6.152   6.513   3.380
 8688TIP3    H126007   6.058   6.486   3.387
 8688TIP3    H226008   6.189   6.434   3.336
 8689TIP3   OH226009   5.285   6.742   3.134
 8689TIP3    H126010   5.278   6.823   3.080
 8689TIP3    H226011   5.192   6.722   3.152
 8690TIP3   OH226012   4.851   6.044   2.844
 8690TIP3    H126013   4.895   6.130   2.866
 8690TIP3    H226014   4.774   6.048   2.904
 8691TIP3   OH226015   5.415   6.503   3.078
 8691TIP3    H126016   5.382   6.593   3.098
 8691TIP3    H226017   5.380   6.453   3.154
 8692TIP3   OH226018   5.557   7.084   3.603
 8692TIP3    H126019   5.602   7.156   3.554
 8692TIP3    H226020   5.631   7.045   3.653
 8693TIP3   OH226021   5.200   6.983   2.987
 8693TIP3    H126022   5.115   6.987   3.035
 8693TIP3    H226023   5.228   7.077   2.991
 8694TIP3   OH226024   5.942   6.707   3.575
 8694TIP3    H126025   5.975   6.730   3.664
 8694TIP3    H226026   6.022   6.673   3.532
 8695TIP3   OH226027   5.921   6.618   2.448
 8695TIP3    H126028   5.974   6.592   2.527
 8695TIP3    H226029   5.834   6.582   2.473
 8696TIP3   OH226030   6.174   7.264   3.618
 8696TIP3    H126031   6.098   7.206   3.603
 8696TIP3    H226032   6.165   7.326   3.543
 8697TIP3   OH226033   6.256   7.087   2.267
 8697TIP3    H126034   6.283   7.144   2.193
 8697TIP3    H226035   6.176   7.132   2.296
 8698TIP3   OH226036   5.270   5.865   4.129
 8698TIP3    H126037   5.173   5.868   4.137
 8698TIP3    H226038   5.294   5.803   4.199
 8699TIP3   OH226039   6.082   6.550   2.663
 8699TIP3    H126040   6.069   6.482   2.732
 8699TIP3    H226041   6.179   6.543   2.650
 8700TIP3   OH226042   5.004   6.949   3.757
 8700TIP3    H126043   5.051   6.873   3.793
 8700TIP3    H226044   5.005   7.009   3.832
 8701TIP3   OH226045   5.281   6.592   2.447
 8701TIP3    H126046   5.293   6.498   2.421
 8701TIP3    H226047   5.260   6.582   2.542
 8702TIP3   OH226048   5.226   6.597   2.718
 8702TIP3    H126049   5.298   6.568   2.775
 8702TIP3    H226050   5.230   6.695   2.728
 8703TIP3   OH226051   4.958   6.289   2.925
 8703TIP3    H126052   4.891   6.335   2.981
 8703TIP3    H226053   4.971   6.356   2.856
 8704TIP3   OH226054   6.095   5.942   3.828
 8704TIP3    H126055   6.185   5.975   3.849
 8704TIP3    H226056   6.093   5.857   3.877
 8705TIP3   OH226057   5.994   5.675   2.986
 8705TIP3    H126058   5.983   5.695   2.891
 8705TIP3    H226059   6.036   5.757   3.019
 8706TIP3   OH226060   5.496   6.795   2.668
 8706TIP3    H126061   5.409   6.817   2.705
 8706TIP3    H226062   5.506   6.867   2.603
 8707TIP3   OH226063   5.677   5.861   3.085
 8707TIP3    H126064   5.743   5.932   3.067
 8707TIP3    H226065   5.686   5.852   3.182
 8708TIP3   OH226066   5.943   6.173   3.894
 8708TIP3    H126067   5.981   6.210   3.976
 8708TIP3    H226068   5.994   6.089   3.887
 8709TIP3   OH226069   5.822   5.581   3.182
 8709TIP3    H126070   5.821   5.659   3.239
 8709TIP3    H226071   5.885   5.611   3.112
 8710TIP3   OH226072   5.243   6.870   2.738
 8710TIP3    H126073   5.211   6.940   2.677
 8710TIP3    H226074   5.223   6.911   2.825
 8711TIP3   OH226075   5.336   5.585   2.971
 8711TIP3    H126076   5.335   5.672   3.014
 8711TIP3    H226077   5.432   5.564   2.979
 8712TIP3   OH226078   6.587   6.074   3.877
 8712TIP3    H126079   6.489   6.066   3.879
 8712TIP3    H226080   6.606   6.034   3.790
 8713TIP3   OH226081   6.240   6.271   3.260
 8713TIP3    H126082   6.166   6.208   3.268
 8713TIP3    H226083   6.313   6.223   3.306
 8714TIP3   OH226084   4.958   6.491   2.727
 8714TIP3    H126085   5.028   6.558   2.736
 8714TIP3    H226086   5.000   6.433   2.660
 8715TIP3   OH226087   4.896   5.773   2.864
 8715TIP3    H126088   4.898   5.871   2.861
 8715TIP3    H226089   4.821   5.753   2.807
 8716TIP3   OH226090   6.213   7.228   3.204
 8716TIP3    H126091   6.174   7.272   3.125
 8716TIP3    H226092   6.308   7.251   3.190
 8717TIP3   OH226093   5.286   5.494   3.732
 8717TIP3    H126094   5.258   5.459   3.645
 8717TIP3    H226095   5.276   5.415   3.789
 8718TIP3   OH226096   4.818   6.705   3.111
 8718TIP3    H126097   4.763   6.742   3.182
 8718TIP3    H226098   4.781   6.751   3.032
 8719TIP3   OH226099   4.986   7.264   4.181
 8719TIP3    H126100   5.070   7.263   4.232
 8719TIP3    H226101   4.961   7.170   4.186
 8720TIP3   OH226102   5.462   7.214   4.230
 8720TIP3    H126103   5.557   7.196   4.234
 8720TIP3    H226104   5.435   7.151   4.160
 8721TIP3   OH226105   5.446   6.792   2.357
 8721TIP3    H126106   5.389   6.721   2.395
 8721TIP3    H226107   5.520   6.740   2.324
 8722TIP3   OH226108   6.105   7.125   3.964
 8722TIP3    H126109   6.100   7.057   4.035
 8722TIP3    H226110   6.184   7.177   3.990
 8723TIP3   OH226111   5.882   6.832   2.275
 8723TIP3    H126112   5.916   6.762   2.334
 8723TIP3    H226113   5.938   6.822   2.195
 8724TIP3   OH226114   5.118   6.657   4.381
 8724TIP3    H126115   5.126   6.561   4.390
 8724TIP3    H226116   5.028   6.665   4.340
 8725TIP3   OH226117   5.094   6.307   2.583
 8725TIP3    H126118   5.150   6.277   2.656
 8725TIP3    H226119   5.161   6.312   2.511
 8726TIP3   OH226120   5.722   6.751   4.157
 8726TIP3    H126121   5.675   6.785   4.078
 8726TIP3    H226122   5.751   6.663   4.127
 8727TIP3   OH226123   5.612   6.512   2.390
 8727TIP3    H126124   5.610   6.522   2.488
 8727TIP3    H226125   5.611   6.414   2.383
 8728TIP3   OH226126   6.203   6.762   3.760
 8728TIP3    H126127   6.287   6.795   3.720
 8728TIP3    H226128   6.149   6.844   3.752
 8729TIP3   OH226129   5.235   6.395   4.375
 8729TIP3    H126130   5.313   6.345   4.349
 8729TIP3    H226131   5.263   6.434   4.461
 8730TIP3   OH226132   5.297   6.218   2.799
 8730TIP3    H126133   5.270   6.176   2.882
 8730TIP3    H226134   5.336   6.143   2.749
 8731TIP3   OH226135   5.402   6.015   2.640
 8731TIP3    H126136   5.378   6.021   2.546
 8731TIP3    H226137   5.500   6.015   2.633
 8732TIP3   OH226138   6.083   6.675   4.155
 8732TIP3    H126139   6.173   6.665   4.122
 8732TIP3    H226140   6.083   6.617   4.233
 8733TIP3   OH226141   6.217   6.339   2.311
 8733TIP3    H126142   6.199   6.294   2.226
 8733TIP3    H226143   6.183   6.429   2.288
 8734TIP3   OH226144   5.682   6.063   4.148
 8734TIP3    H126145   5.706   5.974   4.114
 8734TIP3    H226146   5.626   6.093   4.074
 8735TIP3   OH226147   5.696   5.854   3.963
 8735TIP3    H126148   5.724   5.886   3.875
 8735TIP3    H226149   5.602   5.830   3.945
 8736TIP3   OH226150   6.304   6.358   4.216
 8736TIP3    H126151   6.346   6.272   4.226
 8736TIP3    H226152   6.378   6.412   4.185
 8737TIP3   OH226153   6.337   6.609   3.942
 8737TIP3    H126154   6.283   6.669   3.886
 8737TIP3    H226155   6.428   6.630   3.908
 8738TIP3   OH226156   5.570   6.175   4.380
 8738TIP3    H126157   5.501   6.110   4.404
 8738TIP3    H226158   5.604   6.137   4.297
 8739TIP3   OH226159   5.827   5.618   4.035
 8739TIP3    H126160   5.776   5.698   4.009
 8739TIP3    H226161   5.760   5.547   4.022
 8740TIP3   OH226162   5.949   6.125   4.252
 8740TIP3    H126163   5.953   6.108   4.348
 8740TIP3    H226164   5.859   6.095   4.231
 8741TIP3   OH226165   6.183   6.084   4.100
 8741TIP3    H126166   6.110   6.075   4.164
 8741TIP3    H226167   6.258   6.049   4.153
 8742TIP3   OH226168   6.390   6.008   4.253
 8742TIP3    H126169   6.423   5.916   4.263
 8742TIP3    H226170   6.416   6.047   4.339
 8743TIP3   OH226171   5.409   5.957   4.446
 8743TIP3    H126172   5.413   5.866   4.411
 8743TIP3    H226173   5.452   5.943   4.534
 8744TIP3   OH226174   5.912   5.631   4.294
 8744TIP3    H126175   5.980   5.561   4.292
 8744TIP3    H226176   5.878   5.624   4.202
 8745TIP3   OH226177   5.986   5.843   4.451
 8745TIP3    H126178   5.967   5.770   4.388
 8745TIP3    H226179   5.906   5.898   4.445
 8746TIP3   OH226180   5.213   7.077   2.553
 8746TIP3    H126181   5.307   7.065   2.529
 8746TIP3    H226182   5.182   7.125   2.474
 8747TIP3   OH226183   4.688   6.454   2.761
 8747TIP3    H126184   4.783   6.474   2.748
 8747TIP3    H226185   4.681   6.365   2.720
 8748TIP3   OH226186   4.609   7.078   3.182
 8748TIP3    H126187   4.542   7.020   3.139
 8748TIP3    H226188   4.642   7.015   3.250
 8749TIP3   OH226189   4.742   6.911   3.359
 8749TIP3    H126190   4.677   6.863   3.412
 8749TIP3    H226191   4.786   6.964   3.427
 8750TIP3   OH226192   6.463   7.326   3.169
 8750TIP3    H126193   6.491   7.348   3.261
 8750TIP3    H226194   6.539   7.357   3.118
 8751TIP3   OH226195   6.508   7.325   3.448
 8751TIP3    H126196   6.466   7.237   3.452
 8751TIP3    H226197   6.576   7.315   3.516
 8752TIP3   OH226198   6.541   7.016   4.020
 8752TIP3    H126199   6.472   7.031   4.087
 8752TIP3    H226200   6.586   7.102   4.016
 8753TIP3   OH226201   6.358   6.527   2.640
 8753TIP3    H126202   6.426   6.590   2.609
 8753TIP3    H226203   6.402   6.488   2.719
 8754TIP3   OH226204   6.485   6.395   2.845
 8754TIP3    H126205   6.419   6.352   2.904
 8754TIP3    H226206   6.553   6.427   2.907
 8755TIP3   OH226207   6.539   6.786   3.272
 8755TIP3    H126208   6.596   6.719   3.230
 8755TIP3    H226209   6.541   6.859   3.207
 8756TIP3   OH226210   6.368   7.085   3.472
 8756TIP3    H126211   6.299   7.121   3.530
 8756TIP3    H226212   6.317   7.041   3.401
 8757TIP3   OH226213   6.422   6.303   2.489
 8757TIP3    H126214   6.350   6.304   2.423
 8757TIP3    H226215   6.393   6.378   2.545
 8758TIP3   OH226216   6.290   5.975   2.443
 8758TIP3    H126217   6.248   6.004   2.361
 8758TIP3    H226218   6.270   5.879   2.439
 8759TIP3   OH226219   6.295   6.253   2.989
 8759TIP3    H126220   6.305   6.156   2.980
 8759TIP3    H226221   6.282   6.263   3.086
 8760TIP3   OH226222   4.929   6.314   3.741
 8760TIP3    H126223   4.921   6.284   3.648
 8760TIP3    H226224   5.026   6.318   3.751
 8761TIP3   OH226225   6.584   6.673   3.844
 8761TIP3    H126226   6.655   6.606   3.834
 8761TIP3    H226227   6.619   6.747   3.792
 8762TIP3   OH226228   6.767   6.474   3.851
 8762TIP3    H126229   6.697   6.431   3.904
 8762TIP3    H226230   6.842   6.413   3.868
 8763TIP3   OH226231   6.236   5.709   2.426
 8763TIP3    H126232   6.310   5.675   2.481
 8763TIP3    H226233   6.163   5.649   2.446
 8764TIP3   OH226234   6.296   5.969   2.879
 8764TIP3    H126235   6.336   5.880   2.895
 8764TIP3    H226236   6.354   6.000   2.808
 8765TIP3   OH226237   6.453   6.139   3.378
 8765TIP3    H126238   6.539   6.162   3.335
 8765TIP3    H226239   6.471   6.175   3.467
 8766TIP3   OH226240   6.528   6.284   3.608
 8766TIP3    H126241   6.454   6.320   3.659
 8766TIP3    H226242   6.563   6.364   3.564
 8767TIP3   OH226243   5.140   6.002   4.416
 8767TIP3    H126244   5.238   6.000   4.418
 8767TIP3    H226245   5.119   5.916   4.455
 8768TIP3   OH226246   6.976   5.879   4.163
 8768TIP3    H126247   7.036   5.816   4.119
 8768TIP3    H226248   6.943   5.932   4.087
 8769TIP3   OH226249   6.401   5.718   2.922
 8769TIP3    H126250   6.450   5.700   3.005
 8769TIP3    H226251   6.341   5.641   2.920
 8770TIP3   OH226252   5.104   5.704   3.743
 8770TIP3    H126253   5.164   5.626   3.749
 8770TIP3    H226254   5.169   5.776   3.733
 8771TIP3   OH226255   4.905   5.976   3.813
 8771TIP3    H126256   4.956   5.972   3.730
 8771TIP3    H226257   4.927   6.064   3.845
 8772TIP3   OH226258   6.839   6.010   3.966
 8772TIP3    H126259   6.749   6.051   3.966
 8772TIP3    H226260   6.819   5.931   3.911
 8773TIP3   OH226261   6.479   5.648   2.556
 8773TIP3    H126262   6.519   5.578   2.501
 8773TIP3    H226263   6.548   5.718   2.554
 8774TIP3   OH226264   4.892   5.483   3.318
 8774TIP3    H126265   4.799   5.473   3.343
 8774TIP3    H226266   4.885   5.539   3.238
 8775TIP3   OH226267   6.046   7.183   2.823
 8775TIP3    H126268   6.104   7.166   2.747
 8775TIP3    H226269   6.100   7.242   2.879
 8776TIP3   OH226270   5.111   5.567   4.134
 8776TIP3    H126271   5.055   5.555   4.212
 8776TIP3    H226272   5.046   5.600   4.069
 8777TIP3   OH226273   5.159   6.984   4.210
 8777TIP3    H126274   5.064   6.967   4.190
 8777TIP3    H226275   5.159   6.970   4.306
 8778TIP3   OH226276   5.333   7.022   3.755
 8778TIP3    H126277   5.279   7.093   3.718
 8778TIP3    H226278   5.417   7.039   3.708
 8779TIP3   OH226279   5.771   7.262   3.885
 8779TIP3    H126280   5.810   7.261   3.975
 8779TIP3    H226281   5.838   7.317   3.838
 8780TIP3   OH226282   5.954   7.422   3.752
 8780TIP3    H126283   6.026   7.367   3.716
 8780TIP3    H226284   6.006   7.479   3.814
 8781TIP3   OH226285   6.747   5.774   3.849
 8781TIP3    H126286   6.656   5.761   3.816
 8781TIP3    H226287   6.782   5.682   3.841
 8782TIP3   OH226288   5.008   7.289   3.774
 8782TIP3    H126289   4.915   7.315   3.757
 8782TIP3    H226290   5.017   7.316   3.866
 8783TIP3   OH226291   5.242   7.259   3.637
 8783TIP3    H126292   5.156   7.270   3.684
 8783TIP3    H226293   5.218   7.283   3.546
 8784TIP3   OH226294   5.665   7.282   3.434
 8784TIP3    H126295   5.591   7.299   3.372
 8784TIP3    H226296   5.674   7.369   3.478
 8785TIP3   OH226297   5.931   7.216   3.483
 8785TIP3    H126298   5.837   7.236   3.464
 8785TIP3    H226299   5.976   7.292   3.442
 8786TIP3   OH226300   6.127   7.408   3.389
 8786TIP3    H126301   6.133   7.484   3.330
 8786TIP3    H226302   6.167   7.338   3.332
 8787TIP3   OH226303   4.925   7.079   3.522
 8787TIP3    H126304   4.949   7.049   3.612
 8787TIP3    H226305   4.993   7.030   3.471
 8788TIP3   OH226306   5.114   6.944   3.380
 8788TIP3    H126307   5.125   6.860   3.430
 8788TIP3    H226308   5.206   6.977   3.379
 8789TIP3   OH226309   5.385   7.038   3.386
 8789TIP3    H126310   5.409   6.944   3.376
 8789TIP3    H226311   5.431   7.057   3.470
 8790TIP3   OH226312   5.945   5.689   3.469
 8790TIP3    H126313   5.907   5.615   3.521
 8790TIP3    H226314   6.021   5.646   3.425
 8791TIP3   OH226315   6.469   5.582   3.378
 8791TIP3    H126316   6.505   5.627   3.298
 8791TIP3    H226317   6.373   5.590   3.365
 8792TIP3   OH226318   6.567   5.672   3.139
 8792TIP3    H126319   6.640   5.618   3.102
 8792TIP3    H226320   6.602   5.762   3.124
 8793TIP3   OH226321   5.199   5.399   3.486
 8793TIP3    H126322   5.107   5.366   3.490
 8793TIP3    H226323   5.247   5.313   3.482
 8794TIP3   OH226324   4.983   5.273   3.135
 8794TIP3    H126325   5.018   5.327   3.062
 8794TIP3    H226326   4.963   5.340   3.203
 8795TIP3   OH226327   5.642   5.455   3.374
 8795TIP3    H126328   5.701   5.489   3.306
 8795TIP3    H226329   5.690   5.475   3.456
 8796TIP3   OH226330   6.184   5.578   3.350
 8796TIP3    H126331   6.191   5.534   3.264
 8796TIP3    H226332   6.174   5.501   3.411
 8797TIP3   OH226333   6.221   5.504   2.916
 8797TIP3    H126334   6.133   5.544   2.932
 8797TIP3    H226335   6.209   5.418   2.961
 8798TIP3   OH226336   4.706   6.841   2.904
 8798TIP3    H126337   4.617   6.808   2.880
 8798TIP3    H226338   4.690   6.936   2.895
 8799TIP3   OH226339   5.108   5.429   2.895
 8799TIP3    H126340   5.155   5.364   2.839
 8799TIP3    H226341   5.182   5.482   2.931
 8800TIP3   OH226342   5.612   5.611   2.994
 8800TIP3    H126343   5.668   5.558   3.054
 8800TIP3    H226344   5.639   5.701   3.022
 8801TIP3   OH226345   5.478   7.026   2.495
 8801TIP3    H126346   5.565   7.050   2.457
 8801TIP3    H226347   5.455   6.952   2.434
 8802TIP3   OH226348   6.199   7.140   2.596
 8802TIP3    H126349   6.194   7.041   2.591
 8802TIP3    H226350   6.141   7.163   2.521
 8803TIP3   OH226351   5.417   5.686   4.387
 8803TIP3    H126352   5.374   5.615   4.437
 8803TIP3    H226353   5.510   5.674   4.415
 8804TIP3   OH226354   5.679   5.655   4.500
 8804TIP3    H126355   5.747   5.666   4.431
 8804TIP3    H226356   5.719   5.576   4.545
 8805TIP3   OH226357   4.779   6.867   2.550
 8805TIP3    H126358   4.773   6.878   2.646
 8805TIP3    H226359   4.866   6.823   2.539
 8806TIP3   OH226360   6.486   5.745   4.280
 8806TIP3    H126361   6.504   5.715   4.372
 8806TIP3    H226362   6.575   5.740   4.240
 8807TIP3   OH226363   6.417   7.268   3.782
 8807TIP3    H126364   6.337   7.276   3.727
 8807TIP3    H226365   6.457   7.358   3.773
 8808TIP3   OH226366   7.683   6.665   2.545
 8808TIP3    H126367   7.649   6.754   2.524
 8808TIP3    H226368   7.610   6.610   2.510
 8809TIP3   OH226369   7.675   6.663   2.933
 8809TIP3    H126370   7.717   6.640   3.018
 8809TIP3    H226371   7.638   6.577   2.906
 8810TIP3   OH226372   6.981   6.557   3.291
 8810TIP3    H126373   7.011   6.489   3.354
 8810TIP3    H226374   7.062   6.609   3.281
 8811TIP3   OH226375   7.911   6.956   2.617
 8811TIP3    H126376   7.909   6.884   2.683
 8811TIP3    H226377   7.916   7.034   2.674
 8812TIP3   OH226378   6.958   6.970   3.006
 8812TIP3    H126379   6.951   6.872   3.009
 8812TIP3    H226380   7.055   6.980   3.002
 8813TIP3   OH226381   6.664   6.171   2.790
 8813TIP3    H126382   6.616   6.253   2.810
 8813TIP3    H226383   6.593   6.119   2.748
 8814TIP3   OH226384   6.720   6.459   2.975
 8814TIP3    H126385   6.770   6.381   3.009
 8814TIP3    H226386   6.784   6.498   2.914
 8815TIP3   OH226387   7.600   7.390   2.620
 8815TIP3    H126388   7.669   7.322   2.626
 8815TIP3    H226389   7.561   7.385   2.708
 8816TIP3   OH226390   7.483   6.893   2.971
 8816TIP3    H126391   7.526   6.814   2.933
 8816TIP3    H226392   7.563   6.943   2.995
 8817TIP3   OH226393   8.485   6.220   2.950
 8817TIP3    H126394   8.505   6.267   3.031
 8817TIP3    H226395   8.544   6.260   2.885
 8818TIP3   OH226396   7.897   6.396   2.997
 8818TIP3    H126397   7.939   6.311   3.021
 8818TIP3    H226398   7.864   6.375   2.908
 8819TIP3   OH226399   7.240   6.053   2.966
 8819TIP3    H126400   7.220   6.125   2.903
 8819TIP3    H226401   7.191   5.979   2.924
 8820TIP3   OH226402   7.934   6.145   2.593
 8820TIP3    H126403   8.007   6.126   2.656
 8820TIP3    H226404   7.986   6.179   2.517
 8821TIP3   OH226405   6.870   6.253   3.075
 8821TIP3    H126406   6.953   6.235   3.123
 8821TIP3    H226407   6.884   6.198   2.995
 8822TIP3   OH226408   7.308   6.452   2.874
 8822TIP3    H126409   7.403   6.428   2.885
 8822TIP3    H226410   7.271   6.368   2.840
 8823TIP3   OH226411   7.233   6.037   3.402
 8823TIP3    H126412   7.174   6.073   3.334
 8823TIP3    H226413   7.179   6.054   3.483
 8824TIP3   OH226414   7.568   6.888   2.407
 8824TIP3    H126415   7.516   6.871   2.326
 8824TIP3    H226416   7.527   6.972   2.437
 8825TIP3   OH226417   7.339   6.813   3.192
 8825TIP3    H126418   7.279   6.882   3.228
 8825TIP3    H226419   7.383   6.860   3.118
 8826TIP3   OH226420   8.142   6.147   2.770
 8826TIP3    H126421   8.114   6.106   2.854
 8826TIP3    H226422   8.184   6.229   2.802
 8827TIP3   OH226423   7.105   6.151   3.185
 8827TIP3    H126424   7.167   6.223   3.209
 8827TIP3    H226425   7.155   6.111   3.110
 8828TIP3   OH226426   7.169   7.009   3.294
 8828TIP3    H126427   7.144   7.097   3.258
 8828TIP3    H226428   7.090   6.993   3.350
 8829TIP3   OH226429   6.557   6.698   2.530
 8829TIP3    H126430   6.520   6.725   2.444
 8829TIP3    H226431   6.593   6.782   2.564
 8830TIP3   OH226432   8.290   6.138   3.149
 8830TIP3    H126433   8.200   6.138   3.112
 8830TIP3    H226434   8.346   6.142   3.069
 8831TIP3   OH226435   7.579   5.750   3.113
 8831TIP3    H126436   7.568   5.656   3.135
 8831TIP3    H226437   7.503   5.789   3.162
 8832TIP3   OH226438   7.815   7.017   2.366
 8832TIP3    H126439   7.736   6.959   2.364
 8832TIP3    H226440   7.850   6.996   2.455
 8833TIP3   OH226441   7.518   6.518   2.377
 8833TIP3    H126442   7.438   6.571   2.354
 8833TIP3    H226443   7.562   6.511   2.290
 8834TIP3   OH226444   7.475   6.306   2.082
 8834TIP3    H126445   7.542   6.358   2.130
 8834TIP3    H226446   7.533   6.242   2.035
 8835TIP3   OH226447   8.460   6.748   2.998
 8835TIP3    H126448   8.365   6.770   3.003
 8835TIP3    H226449   8.480   6.786   2.912
 8836TIP3   OH226450   7.860   6.582   2.353
 8836TIP3    H126451   7.808   6.608   2.433
 8836TIP3    H226452   7.947   6.561   2.394
 8837TIP3   OH226453   8.098   6.636   3.268
 8837TIP3    H126454   8.092   6.717   3.321
 8837TIP3    H226455   8.012   6.638   3.222
 8838TIP3   OH226456   7.098   6.597   2.762
 8838TIP3    H126457   7.058   6.538   2.695
 8838TIP3    H226458   7.174   6.543   2.794
 8839TIP3   OH226459   7.226   7.007   2.908
 8839TIP3    H126460   7.210   6.973   2.818
 8839TIP3    H226461   7.316   6.973   2.927
 8840TIP3   OH226462   7.227   6.571   3.116
 8840TIP3    H126463   7.263   6.544   3.029
 8840TIP3    H226464   7.274   6.655   3.133
 8841TIP3   OH226465   7.729   7.190   2.858
 8841TIP3    H126466   7.755   7.271   2.907
 8841TIP3    H226467   7.730   7.122   2.928
 8842TIP3   OH226468   7.372   7.122   3.445
 8842TIP3    H126469   7.308   7.179   3.492
 8842TIP3    H226470   7.310   7.069   3.390
 8843TIP3   OH226471   7.697   6.458   2.170
 8843TIP3    H126472   7.759   6.511   2.224
 8843TIP3    H226473   7.728   6.480   2.079
 8844TIP3   OH226474   7.130   6.679   3.545
 8844TIP3    H126475   7.135   6.768   3.586
 8844TIP3    H226476   7.035   6.659   3.559
 8845TIP3   OH226477   7.453   7.154   2.435
 8845TIP3    H126478   7.480   7.228   2.492
 8845TIP3    H226479   7.392   7.198   2.375
 8846TIP3   OH226480   7.156   7.299   3.513
 8846TIP3    H126481   7.151   7.295   3.415
 8846TIP3    H226482   7.062   7.311   3.534
 8847TIP3   OH226483   8.211   5.705   2.211
 8847TIP3    H126484   8.133   5.706   2.271
 8847TIP3    H226485   8.234   5.798   2.207
 8848TIP3   OH226486   6.965   6.441   2.565
 8848TIP3    H126487   6.894   6.482   2.511
 8848TIP3    H226488   6.933   6.351   2.576
 8849TIP3   OH226489   6.745   6.827   3.475
 8849TIP3    H126490   6.682   6.802   3.405
 8849TIP3    H226491   6.787   6.742   3.499
 8850TIP3   OH226492   6.604   7.017   3.104
 8850TIP3    H126493   6.699   7.005   3.090
 8850TIP3    H226494   6.604   7.092   3.167
 8851TIP3   OH226495   7.560   7.258   3.295
 8851TIP3    H126496   7.562   7.352   3.324
 8851TIP3    H226497   7.494   7.219   3.356
 8852TIP3   OH226498   7.280   7.368   2.272
 8852TIP3    H126499   7.282   7.329   2.181
 8852TIP3    H226500   7.330   7.448   2.260
 8853TIP3   OH226501   6.770   7.226   2.637
 8853TIP3    H126502   6.819   7.221   2.722
 8853TIP3    H226503   6.728   7.137   2.634
 8854TIP3   OH226504   8.365   6.612   3.441
 8854TIP3    H126505   8.290   6.624   3.382
 8854TIP3    H226506   8.393   6.520   3.417
 8855TIP3   OH226507   6.952   7.010   3.461
 8855TIP3    H126508   7.002   6.988   3.542
 8855TIP3    H226509   6.874   6.951   3.470
 8856TIP3   OH226510   7.347   5.830   3.250
 8856TIP3    H126511   7.259   5.800   3.219
 8856TIP3    H226512   7.320   5.910   3.299
 8857TIP3   OH226513   7.874   5.952   3.441
 8857TIP3    H126514   7.937   5.935   3.512
 8857TIP3    H226515   7.788   5.931   3.483
 8858TIP3   OH226516   8.110   6.369   3.354
 8858TIP3    H126517   8.067   6.369   3.442
 8858TIP3    H226518   8.100   6.462   3.326
 8859TIP3   OH226519   7.783   6.507   1.919
 8859TIP3    H126520   7.741   6.480   1.835
 8859TIP3    H226521   7.860   6.557   1.887
 8860TIP3   OH226522   7.490   5.879   2.218
 8860TIP3    H126523   7.457   5.875   2.310
 8860TIP3    H226524   7.453   5.796   2.183
 8861TIP3   OH226525   7.280   6.349   3.265
 8861TIP3    H126526   7.230   6.369   3.347
 8861TIP3    H226527   7.262   6.430   3.213
 8862TIP3   OH226528   7.164   6.234   2.779
 8862TIP3    H126529   7.072   6.206   2.799
 8862TIP3    H226530   7.176   6.193   2.691
 8863TIP3   OH226531   7.655   6.318   2.511
 8863TIP3    H126532   7.604   6.388   2.465
 8863TIP3    H226533   7.710   6.283   2.438
 8864TIP3   OH226534   7.830   6.593   3.591
 8864TIP3    H126535   7.808   6.520   3.654
 8864TIP3    H226536   7.924   6.606   3.611
 8865TIP3   OH226537   7.811   6.344   2.742
 8865TIP3    H126538   7.746   6.366   2.672
 8865TIP3    H226539   7.849   6.264   2.700
 8866TIP3   OH226540   7.099   6.374   3.474
 8866TIP3    H126541   7.133   6.437   3.540
 8866TIP3    H226542   7.089   6.292   3.526
 8867TIP3   OH226543   7.149   5.854   2.183
 8867TIP3    H126544   7.140   5.852   2.281
 8867TIP3    H226545   7.070   5.907   2.159
 8868TIP3   OH226546   6.693   5.895   3.056
 8868TIP3    H126547   6.768   5.928   3.110
 8868TIP3    H226548   6.734   5.864   2.975
 8869TIP3   OH226549   6.655   5.874   2.573
 8869TIP3    H126550   6.702   5.910   2.495
 8869TIP3    H226551   6.595   5.949   2.592
 8870TIP3   OH226552   7.821   6.591   3.166
 8870TIP3    H126553   7.856   6.521   3.106
 8870TIP3    H226554   7.792   6.536   3.241
 8871TIP3   OH226555   7.499   6.058   2.840
 8871TIP3    H126556   7.419   6.054   2.897
 8871TIP3    H226557   7.571   6.043   2.904
 8872TIP3   OH226558   6.926   6.112   2.846
 8872TIP3    H126559   6.832   6.117   2.817
 8872TIP3    H226560   6.951   6.020   2.825
 8873TIP3   OH226561   7.188   6.106   2.539
 8873TIP3    H126562   7.283   6.119   2.519
 8873TIP3    H226563   7.144   6.127   2.454
 8874TIP3   OH226564   7.979   6.132   3.035
 8874TIP3    H126565   7.952   6.146   3.129
 8874TIP3    H226566   7.910   6.070   3.006
 8875TIP3   OH226567   7.041   6.145   2.312
 8875TIP3    H126568   6.972   6.097   2.262
 8875TIP3    H226569   7.094   6.181   2.238
 8876TIP3   OH226570   7.118   6.930   3.679
 8876TIP3    H126571   7.195   6.957   3.732
 8876TIP3    H226572   7.049   6.926   3.748
 8877TIP3   OH226573   7.573   6.387   2.939
 8877TIP3    H126574   7.644   6.343   2.890
 8877TIP3    H226575   7.576   6.341   3.025
 8878TIP3   OH226576   7.090   5.870   2.822
 8878TIP3    H126577   7.054   5.793   2.872
 8878TIP3    H226578   7.140   5.825   2.752
 8879TIP3   OH226579   7.550   6.286   3.224
 8879TIP3    H126580   7.460   6.321   3.242
 8879TIP3    H226581   7.608   6.346   3.276
 8880TIP3   OH226582   7.287   6.671   2.318
 8880TIP3    H126583   7.215   6.606   2.306
 8880TIP3    H226584   7.267   6.704   2.409
 8881TIP3   OH226585   8.198   6.809   2.924
 8881TIP3    H126586   8.183   6.906   2.918
 8881TIP3    H226587   8.105   6.777   2.923
 8882TIP3   OH226588   7.743   5.977   2.193
 8882TIP3    H126589   7.647   5.957   2.200
 8882TIP3    H226590   7.749   6.072   2.215
 8883TIP3   OH226591   7.685   6.978   3.322
 8883TIP3    H126592   7.714   6.961   3.413
 8883TIP3    H226593   7.649   7.068   3.329
 8884TIP3   OH226594   7.809   6.231   2.294
 8884TIP3    H126595   7.905   6.236   2.308
 8884TIP3    H226596   7.791   6.307   2.236
 8885TIP3   OH226597   6.979   6.692   2.994
 8885TIP3    H126598   7.019   6.665   2.909
 8885TIP3    H226599   7.029   6.638   3.057
 8886TIP3   OH226600   7.431   6.817   2.135
 8886TIP3    H126601   7.383   6.903   2.143
 8886TIP3    H226602   7.380   6.761   2.198
 8887TIP3   OH226603   6.864   6.614   3.610
 8887TIP3    H126604   6.884   6.605   3.706
 8887TIP3    H226605   6.796   6.547   3.598
 8888TIP3   OH226606   7.591   6.730   3.630
 8888TIP3    H126607   7.530   6.670   3.584
 8888TIP3    H226608   7.678   6.692   3.603
 8889TIP3   OH226609   7.833   7.229   3.243
 8889TIP3    H126610   7.737   7.239   3.230
 8889TIP3    H226611   7.845   7.280   3.326
 8890TIP3   OH226612   7.928   6.760   2.858
 8890TIP3    H126613   7.835   6.737   2.874
 8890TIP3    H226614   7.960   6.680   2.812
 8891TIP3   OH226615   7.087   6.999   2.624
 8891TIP3    H126616   7.083   7.080   2.570
 8891TIP3    H226617   6.994   6.980   2.636
 8892TIP3   OH226618   6.646   6.300   2.329
 8892TIP3    H126619   6.692   6.384   2.352
 8892TIP3    H226620   6.570   6.304   2.391
 8893TIP3   OH226621   7.211   6.759   2.561
 8893TIP3    H126622   7.180   6.849   2.584
 8893TIP3    H226623   7.179   6.708   2.638
 8894TIP3   OH226624   7.353   7.316   3.104
 8894TIP3    H126625   7.392   7.386   3.046
 8894TIP3    H226626   7.433   7.286   3.151
 8895TIP3   OH226627   6.995   7.230   2.477
 8895TIP3    H126628   6.911   7.238   2.525
 8895TIP3    H226629   7.026   7.324   2.479
 8896TIP3   OH226630   7.736   6.971   3.051
 8896TIP3    H126631   7.722   6.967   3.148
 8896TIP3    H226632   7.809   6.910   3.040
 8897TIP3   OH226633   7.629   6.861   1.925
 8897TIP3    H126634   7.712   6.847   1.972
 8897TIP3    H226635   7.564   6.834   1.991
 8898TIP3   OH226636   7.070   6.119   3.615
 8898TIP3    H126637   6.974   6.119   3.628
 8898TIP3    H226638   7.100   6.065   3.690
 8899TIP3   OH226639   7.895   6.776   2.158
 8899TIP3    H126640   7.854   6.727   2.233
 8899TIP3    H226641   7.978   6.726   2.149
 8900TIP3   OH226642   6.784   7.202   3.247
 8900TIP3    H126643   6.844   7.137   3.288
 8900TIP3    H226644   6.795   7.277   3.308
 8901TIP3   OH226645   7.067   6.848   1.936
 8901TIP3    H126646   7.094   6.758   1.910
 8901TIP3    H226647   7.050   6.837   2.031
 8902TIP3   OH226648   7.018   6.852   2.209
 8902TIP3    H126649   7.097   6.827   2.259
 8902TIP3    H226650   7.021   6.951   2.217
 8903TIP3   OH226651   6.755   6.543   2.411
 8903TIP3    H126652   6.689   6.589   2.467
 8903TIP3    H226653   6.771   6.611   2.343
 8904TIP3   OH226654   7.910   6.186   3.294
 8904TIP3    H126655   7.993   6.228   3.325
 8904TIP3    H226656   7.903   6.107   3.352
 8905TIP3   OH226657   7.790   5.930   2.473
 8905TIP3    H126658   7.778   5.951   2.379
 8905TIP3    H226659   7.831   6.012   2.508
 8906TIP3   OH226660   7.288   7.044   2.164
 8906TIP3    H126661   7.200   7.067   2.199
 8906TIP3    H226662   7.302   7.121   2.105
 8907TIP3   OH226663   7.471   6.118   2.571
 8907TIP3    H126664   7.538   6.188   2.554
 8907TIP3    H226665   7.481   6.106   2.668
 8908TIP3   OH226666   7.750   6.428   3.372
 8908TIP3    H126667   7.777   6.477   3.453
 8908TIP3    H226668   7.805   6.348   3.378
 8909TIP3   OH226669   7.618   5.832   2.668
 8909TIP3    H126670   7.618   5.908   2.729
 8909TIP3    H226671   7.681   5.865   2.600
 8910TIP3   OH226672   7.031   7.122   2.226
 8910TIP3    H126673   7.003   7.194   2.165
 8910TIP3    H226674   7.021   7.167   2.313
 8911TIP3   OH226675   7.134   5.841   2.459
 8911TIP3    H126676   7.132   5.930   2.499
 8911TIP3    H226677   7.230   5.822   2.467
 8912TIP3   OH226678   8.387   6.354   3.339
 8912TIP3    H126679   8.290   6.345   3.334
 8912TIP3    H226680   8.414   6.269   3.300
 8913TIP3   OH226681   8.030   6.528   2.741
 8913TIP3    H126682   7.955   6.466   2.753
 8913TIP3    H226683   8.102   6.482   2.789
 8914TIP3   OH226684   6.754   6.750   2.213
 8914TIP3    H126685   6.830   6.811   2.223
 8914TIP3    H226686   6.794   6.689   2.147
 8915TIP3   OH226687   6.693   6.029   2.350
 8915TIP3    H126688   6.695   6.127   2.347
 8915TIP3    H226689   6.615   6.009   2.297
 8916TIP3   OH226690   7.082   5.751   3.219
 8916TIP3    H126691   7.053   5.715   3.132
 8916TIP3    H226692   7.072   5.672   3.276
 8917TIP3   OH226693   6.622   6.974   2.596
 8917TIP3    H126694   6.554   6.997   2.660
 8917TIP3    H226695   6.589   7.018   2.514
 8918TIP3   OH226696   6.840   7.440   3.678
 8918TIP3    H126697   6.868   7.520   3.724
 8918TIP3    H226698   6.742   7.450   3.685
 8919TIP3   OH226699   7.255   7.472   3.720
 8919TIP3    H126700   7.351   7.469   3.733
 8919TIP3    H226701   7.244   7.412   3.644
 8920TIP3   OH226702   7.238   7.045   1.843
 8920TIP3    H126703   7.181   6.973   1.880
 8920TIP3    H226704   7.312   6.992   1.807
 8921TIP3   OH226705   7.895   7.373   3.464
 8921TIP3    H126706   7.895   7.307   3.537
 8921TIP3    H226707   7.975   7.425   3.484
 8922TIP3   OH226708   6.914   6.926   3.859
 8922TIP3    H126709   6.922   6.834   3.889
 8922TIP3    H226710   6.822   6.928   3.825
 8923TIP3   OH226711   6.888   6.563   2.072
 8923TIP3    H126712   6.946   6.533   2.144
 8923TIP3    H226713   6.954   6.569   1.999
 8924TIP3   OH226714   7.512   7.003   3.653
 8924TIP3    H126715   7.475   7.027   3.565
 8924TIP3    H226716   7.545   6.911   3.638
 8925TIP3   OH226717   7.358   6.751   1.875
 8925TIP3    H126718   7.375   6.768   1.969
 8925TIP3    H226719   7.384   6.657   1.868
 8926TIP3   OH226720   8.005   7.013   3.249
 8926TIP3    H126721   8.063   7.083   3.219
 8926TIP3    H226722   7.920   7.060   3.249
 8927TIP3   OH226723   7.030   6.653   3.856
 8927TIP3    H126724   7.105   6.597   3.833
 8927TIP3    H226725   7.059   6.688   3.943
 8928TIP3   OH226726   7.090   6.476   2.284
 8928TIP3    H126727   7.067   6.435   2.369
 8928TIP3    H226728   7.130   6.400   2.235
 8929TIP3   OH226729   7.362   6.534   3.517
 8929TIP3    H126730   7.286   6.595   3.519
 8929TIP3    H226731   7.414   6.570   3.441
 8930TIP3   OH226732   7.199   6.272   2.127
 8930TIP3    H126733   7.174   6.278   2.033
 8930TIP3    H226734   7.297   6.272   2.121
 8931TIP3   OH226735   7.887   6.935   3.645
 8931TIP3    H126736   7.962   6.901   3.594
 8931TIP3    H226737   7.881   6.870   3.718
 8932TIP3   OH226738   7.488   6.327   3.641
 8932TIP3    H126739   7.489   6.249   3.582
 8932TIP3    H226740   7.444   6.394   3.585
 8933TIP3   OH226741   7.491   6.115   3.451
 8933TIP3    H126742   7.520   6.155   3.366
 8933TIP3    H226743   7.398   6.092   3.430
 8934TIP3   OH226744   7.512   6.646   3.325
 8934TIP3    H126745   7.599   6.660   3.286
 8934TIP3    H226746   7.457   6.712   3.277
 8935TIP3   OH226747   8.101   6.609   3.703
 8935TIP3    H126748   8.144   6.522   3.708
 8935TIP3    H226749   8.173   6.664   3.667
 8936TIP3   OH226750   8.109   6.871   3.456
 8936TIP3    H126751   8.057   6.923   3.390
 8936TIP3    H226752   8.198   6.878   3.414
 8937TIP3   OH226753   7.370   6.430   3.878
 8937TIP3    H126754   7.298   6.365   3.894
 8937TIP3    H226755   7.400   6.404   3.788
 8938TIP3   OH226756   7.619   5.877   3.525
 8938TIP3    H126757   7.569   5.958   3.500
 8938TIP3    H226758   7.552   5.807   3.511
 8939TIP3   OH226759   7.747   6.377   3.737
 8939TIP3    H126760   7.731   6.362   3.832
 8939TIP3    H226761   7.658   6.354   3.702
 8940TIP3   OH226762   7.985   6.333   3.591
 8940TIP3    H126763   7.912   6.332   3.656
 8940TIP3    H226764   8.062   6.305   3.646
 8941TIP3   OH226765   8.215   6.286   3.738
 8941TIP3    H126766   8.235   6.189   3.747
 8941TIP3    H226767   8.216   6.315   3.832
 8942TIP3   OH226768   7.202   6.213   3.930
 8942TIP3    H126769   7.207   6.120   3.900
 8942TIP3    H226770   7.238   6.204   4.021
 8943TIP3   OH226771   7.718   5.880   3.781
 8943TIP3    H126772   7.791   5.817   3.766
 8943TIP3    H226773   7.675   5.878   3.693
 8944TIP3   OH226774   7.780   6.096   3.941
 8944TIP3    H126775   7.760   6.026   3.875
 8944TIP3    H226776   7.703   6.156   3.932
 8945TIP3   OH226777   6.997   7.326   2.044
 8945TIP3    H126778   7.092   7.312   2.031
 8945TIP3    H226779   6.977   7.377   1.962
 8946TIP3   OH226780   6.485   6.712   2.249
 8946TIP3    H126781   6.580   6.732   2.234
 8946TIP3    H226782   6.478   6.623   2.209
 8947TIP3   OH226783   6.386   7.324   2.655
 8947TIP3    H126784   6.335   7.240   2.643
 8947TIP3    H226785   6.436   7.295   2.735
 8948TIP3   OH226786   6.521   7.193   2.851
 8948TIP3    H126787   6.512   7.116   2.909
 8948TIP3    H226788   6.583   7.246   2.905
 8949TIP3   OH226789   8.062   6.242   1.934
 8949TIP3    H126790   8.036   6.256   1.843
 8949TIP3    H226791   8.050   6.145   1.942
 8950TIP3   OH226792   8.094   6.504   2.473
 8950TIP3    H126793   8.099   6.407   2.465
 8950TIP3    H226794   8.080   6.516   2.570
 8951TIP3   OH226795   6.718   6.584   3.225
 8951TIP3    H126796   6.716   6.547   3.134
 8951TIP3    H226797   6.815   6.583   3.242
 8952TIP3   OH226798   8.336   6.910   3.314
 8952TIP3    H126799   8.422   6.871   3.338
 8952TIP3    H226800   8.364   6.970   3.242
 8953TIP3   OH226801   8.021   5.970   1.941
 8953TIP3    H126802   8.080   5.901   1.974
 8953TIP3    H226803   7.939   5.920   1.924
 8954TIP3   OH226804   8.087   6.226   2.375
 8954TIP3    H126805   8.122   6.135   2.392
 8954TIP3    H226806   8.136   6.248   2.294
 8955TIP3   OH226807   8.244   6.394   2.850
 8955TIP3    H126808   8.337   6.403   2.826
 8955TIP3    H226809   8.247   6.432   2.941
 8956TIP3   OH226810   8.289   6.531   3.078
 8956TIP3    H126811   8.227   6.566   3.144
 8956TIP3    H226812   8.361   6.596   3.080
 8957TIP3   OH226813   6.935   6.259   3.885
 8957TIP3    H126814   7.032   6.262   3.897
 8957TIP3    H226815   6.913   6.177   3.932
 8958TIP3   OH226816   8.178   5.975   2.422
 8958TIP3    H126817   8.242   5.950   2.492
 8958TIP3    H226818   8.122   5.895   2.418
 8959TIP3   OH226819   6.899   5.961   3.232
 8959TIP3    H126820   6.960   5.884   3.238
 8959TIP3    H226821   6.963   6.033   3.221
 8960TIP3   OH226822   6.698   6.232   3.298
 8960TIP3    H126823   6.750   6.227   3.215
 8960TIP3    H226824   6.733   6.313   3.338
 8961TIP3   OH226825   6.687   5.737   2.804
 8961TIP3    H126826   6.594   5.729   2.831
 8961TIP3    H226827   6.680   5.795   2.725
 8962TIP3   OH226828   6.907   5.817   3.617
 8962TIP3    H126829   6.854   5.810   3.697
 8962TIP3    H226830   6.841   5.853   3.554
 8963TIP3   OH226831   7.125   7.279   3.243
 8963TIP3    H126832   7.078   7.354   3.201
 8963TIP3    H226833   7.211   7.288   3.195
 8964TIP3   OH226834   7.582   7.535   3.370
 8964TIP3    H126835   7.617   7.529   3.462
 8964TIP3    H226836   7.649   7.596   3.331
 8965TIP3   OH226837   8.539   6.040   3.306
 8965TIP3    H126838   8.443   6.037   3.319
 8965TIP3    H226839   8.562   5.948   3.289
 8966TIP3   OH226840   6.795   7.530   3.267
 8966TIP3    H126841   6.706   7.569   3.248
 8966TIP3    H226842   6.815   7.575   3.351
 8967TIP3   OH226843   7.027   7.505   3.125
 8967TIP3    H126844   6.939   7.516   3.168
 8967TIP3    H226845   7.009   7.539   3.035
 8968TIP3   OH226846   7.441   7.510   2.937
 8968TIP3    H126847   7.436   7.563   2.853
 8968TIP3    H226848   7.474   7.580   2.997
 8969TIP3   OH226849   6.709   7.324   3.007
 8969TIP3    H126850   6.737   7.298   3.098
 8969TIP3    H226851   6.783   7.283   2.957
 8970TIP3   OH226852   6.907   7.199   2.870
 8970TIP3    H126853   6.922   7.115   2.919
 8970TIP3    H226854   6.999   7.235   2.870
 8971TIP3   OH226855   7.172   7.285   2.883
 8971TIP3    H126856   7.203   7.192   2.875
 8971TIP3    H226857   7.227   7.314   2.957
 8972TIP3   OH226858   7.743   5.945   2.952
 8972TIP3    H126859   7.704   5.873   3.005
 8972TIP3    H226860   7.820   5.902   2.911
 8973TIP3   OH226861   8.272   5.830   2.859
 8973TIP3    H126862   8.300   5.882   2.781
 8973TIP3    H226863   8.176   5.846   2.860
 8974TIP3   OH226864   8.375   5.923   2.614
 8974TIP3    H126865   8.442   5.859   2.587
 8974TIP3    H226866   8.425   6.005   2.622
 8975TIP3   OH226867   6.994   5.656   2.972
 8975TIP3    H126868   6.902   5.622   2.976
 8975TIP3    H226869   7.043   5.570   2.968
 8976TIP3   OH226870   6.782   5.530   2.624
 8976TIP3    H126871   6.814   5.585   2.550
 8976TIP3    H226872   6.759   5.597   2.691
 8977TIP3   OH226873   7.441   5.692   2.855
 8977TIP3    H126874   7.497   5.735   2.789
 8977TIP3    H226875   7.479   5.725   2.938
 8978TIP3   OH226876   7.983   5.836   2.836
 8978TIP3    H126877   7.993   5.791   2.752
 8978TIP3    H226878   7.973   5.759   2.897
 8979TIP3   OH226879   8.012   5.758   2.401
 8979TIP3    H126880   7.925   5.798   2.418
 8979TIP3    H226881   8.001   5.671   2.446
 8980TIP3   OH226882   6.496   7.112   2.399
 8980TIP3    H126883   6.412   7.075   2.366
 8980TIP3    H226884   6.494   7.201   2.359
 8981TIP3   OH226885   6.904   5.687   2.382
 8981TIP3    H126886   6.951   5.622   2.326
 8981TIP3    H226887   6.979   5.739   2.417
 8982TIP3   OH226888   7.410   5.867   2.482
 8982TIP3    H126889   7.469   5.818   2.541
 8982TIP3    H226890   7.433   5.959   2.508
 8983TIP3   OH226891   7.265   7.271   2.003
 8983TIP3    H126892   7.329   7.331   1.959
 8983TIP3    H226893   7.253   7.202   1.934
 8984TIP3   OH226894   7.202   5.937   3.864
 8984TIP3    H126895   7.168   5.865   3.921
 8984TIP3    H226896   7.296   5.937   3.892
 8985TIP3   OH226897   7.454   5.935   3.981
 8985TIP3    H126898   7.539   5.911   3.941
 8985TIP3    H226899   7.442   5.863   4.046
 8986TIP3   OH226900   6.576   7.119   2.044
 8986TIP3    H126901   6.602   7.135   2.135
 8986TIP3    H226902   6.657   7.072   2.011
 8987TIP3   OH226903   8.277   6.019   3.773
 8987TIP3    H126904   8.298   5.973   3.857
 8987TIP3    H226905   8.281   5.944   3.708
 8988TIP3   OH226906   0.957   6.999   4.660
 8988TIP3    H126907   0.982   7.084   4.701
 8988TIP3    H226908   0.975   7.017   4.566
 8989TIP3   OH226909   0.387   6.889   4.268
 8989TIP3    H126910   0.449   6.910   4.341
 8989TIP3    H226911   0.416   6.952   4.201
 8990TIP3   OH226912   1.022   7.212   4.832
 8990TIP3    H126913   0.935   7.256   4.818
 8990TIP3    H226914   1.047   7.249   4.919
 8991TIP3   OH226915   0.582   6.950   4.450
 8991TIP3    H126916   0.596   6.869   4.500
 8991TIP3    H226917   0.641   7.016   4.492
 8992TIP3   OH226918   0.753   6.914   4.830
 8992TIP3    H126919   0.671   6.944   4.790
 8992TIP3    H226920   0.819   6.935   4.760
 8993TIP3   OH226921   0.674   7.933   4.807
 8993TIP3    H126922   0.647   7.842   4.782
 8993TIP3    H226923   0.697   7.973   4.721
 8994TIP3   OH226924   0.878   7.554   4.654
 8994TIP3    H126925   0.794   7.604   4.663
 8994TIP3    H226926   0.903   7.577   4.562
 8995TIP3   OH226927   0.680   6.484   3.908
 8995TIP3    H126928   0.598   6.502   3.958
 8995TIP3    H226929   0.691   6.569   3.860
 8996TIP3   OH226930   0.822   7.389   5.129
 8996TIP3    H126931   0.738   7.412   5.087
 8996TIP3    H226932   0.822   7.291   5.118
 8997TIP3   OH226933   0.645   7.699   4.654
 8997TIP3    H126934   0.671   7.746   4.571
 8997TIP3    H226935   0.555   7.670   4.636
 8998TIP3   OH226936   0.713   7.110   3.805
 8998TIP3    H126937   0.646   7.069   3.744
 8998TIP3    H226938   0.707   7.201   3.771
 8999TIP3   OH226939   0.924   7.961   4.900
 8999TIP3    H126940   0.827   7.963   4.884
 8999TIP3    H226941   0.956   7.938   4.810
 9000TIP3   OH226942   0.816   7.121   5.052
 9000TIP3    H126943   0.735   7.075   5.077
 9000TIP3    H226944   0.833   7.083   4.965
 9001TIP3   OH226945   0.488   7.294   4.428
 9001TIP3    H126946   0.416   7.238   4.460
 9001TIP3    H226947   0.565   7.255   4.474
 9002TIP3   OH226948   0.487   7.386   3.475
 9002TIP3    H126949   0.440   7.335   3.406
 9002TIP3    H226950   0.453   7.475   3.460
 9003TIP3   OH226951   0.743   7.045   5.473
 9003TIP3    H126952   0.744   6.947   5.467
 9003TIP3    H226953   0.646   7.059   5.477
 9004TIP3   OH226954   0.615   7.563   3.816
 9004TIP3    H126955   0.690   7.622   3.798
 9004TIP3    H226956   0.644   7.520   3.899
 9005TIP3   OH226957   0.741   7.440   4.023
 9005TIP3    H126958   0.676   7.388   4.077
 9005TIP3    H226959   0.803   7.472   4.091
 9006TIP3   OH226960   0.774   7.826   4.451
 9006TIP3    H126961   0.837   7.763   4.411
 9006TIP3    H226962   0.785   7.906   4.397
 9007TIP3   OH226963   0.676   7.345   3.664
 9007TIP3    H126964   0.604   7.344   3.596
 9007TIP3    H226965   0.643   7.418   3.721
 9008TIP3   OH226966   0.542   7.021   3.610
 9008TIP3    H126967   0.485   7.052   3.538
 9008TIP3    H226968   0.528   6.924   3.603
 9009TIP3   OH226969   0.575   7.288   4.167
 9009TIP3    H126970   0.557   7.194   4.144
 9009TIP3    H226971   0.540   7.291   4.259
 9010TIP3   OH226972   0.836   7.717   5.028
 9010TIP3    H126973   0.906   7.651   5.016
 9010TIP3    H226974   0.855   7.783   4.960
 9011TIP3   OH226975   1.030   7.524   5.024
 9011TIP3    H126976   0.955   7.478   5.070
 9011TIP3    H226977   1.101   7.459   5.043
 9012TIP3   OH226978   0.503   6.752   3.598
 9012TIP3    H126979   0.576   6.727   3.658
 9012TIP3    H226980   0.430   6.694   3.630
 9013TIP3   OH226981   0.558   7.022   4.077
 9013TIP3    H126982   0.592   6.931   4.092
 9013TIP3    H226983   0.591   7.040   3.988
 9014TIP3   OH226984   0.706   7.182   4.563
 9014TIP3    H126985   0.789   7.206   4.517
 9014TIP3    H226986   0.722   7.226   4.649
 9015TIP3   OH226987   0.769   7.332   4.788
 9015TIP3    H126988   0.685   7.358   4.833
 9015TIP3    H226989   0.799   7.416   4.750
 9016TIP3   OH226990   1.227   6.926   5.339
 9016TIP3    H126991   1.287   6.861   5.297
 9016TIP3    H226992   1.195   6.976   5.261
 9017TIP3   OH226993   0.662   6.759   4.092
 9017TIP3    H126994   0.700   6.748   4.181
 9017TIP3    H226995   0.593   6.690   4.093
 9018TIP3   OH226996   1.089   7.059   5.144
 9018TIP3    H126997   1.007   7.102   5.177
 9018TIP3    H226998   1.050   6.987   5.089
 9019TIP3   OH226999   0.736   6.695   3.734
 9019TIP3    H127000   0.773   6.625   3.676
 9019TIP3    H227001   0.805   6.764   3.731
 9020TIP3   OH227002   0.994   6.818   5.029
 9020TIP3    H127003   0.904   6.798   4.995
 9020TIP3    H227004   1.034   6.729   5.021
 9021TIP3   OH227005   0.743   6.614   4.550
 9021TIP3    H127006   0.779   6.663   4.472
 9021TIP3    H227007   0.648   6.636   4.543
 9022TIP3   OH227008   0.821   6.719   4.315
 9022TIP3    H127009   0.892   6.666   4.274
 9022TIP3    H227010   0.853   6.810   4.298
 9023TIP3   OH227011   0.483   6.662   4.518
 9023TIP3    H127012   0.406   6.674   4.459
 9023TIP3    H227013   0.458   6.581   4.568
 9024TIP3   OH227014   0.476   6.543   4.083
 9024TIP3    H127015   0.387   6.569   4.056
 9024TIP3    H227016   0.456   6.462   4.134
 9025TIP3   OH227017   0.742   6.773   5.460
 9025TIP3    H127018   0.756   6.745   5.553
 9025TIP3    H227019   0.832   6.765   5.422
 9026TIP3   OH227020   1.936   7.701   3.722
 9026TIP3    H127021   1.891   7.785   3.701
 9026TIP3    H227022   1.869   7.639   3.688
 9027TIP3   OH227023   1.937   7.713   4.107
 9027TIP3    H127024   1.975   7.685   4.193
 9027TIP3    H227025   1.897   7.629   4.076
 9028TIP3   OH227026   1.230   7.601   4.464
 9028TIP3    H127027   1.257   7.530   4.525
 9028TIP3    H227028   1.308   7.659   4.468
 9029TIP3   OH227029   2.151   8.012   3.793
 9029TIP3    H127030   2.150   7.938   3.856
 9029TIP3    H227031   2.214   8.073   3.835
 9030TIP3   OH227032   1.261   7.970   4.261
 9030TIP3    H127033   1.237   7.876   4.238
 9030TIP3    H227034   1.347   7.977   4.210
 9031TIP3   OH227035   0.915   7.221   3.968
 9031TIP3    H127036   0.862   7.300   3.987
 9031TIP3    H227037   0.845   7.162   3.934
 9032TIP3   OH227038   0.970   7.507   4.160
 9032TIP3    H127039   1.016   7.426   4.191
 9032TIP3    H227040   1.028   7.537   4.090
 9033TIP3   OH227041   1.750   7.929   4.143
 9033TIP3    H127042   1.797   7.850   4.112
 9033TIP3    H227043   1.827   7.985   4.167
 9034TIP3   OH227044   2.750   7.256   4.145
 9034TIP3    H127045   2.781   7.340   4.186
 9034TIP3    H227046   2.777   7.270   4.052
 9035TIP3   OH227047   2.147   7.438   4.176
 9035TIP3    H127048   2.189   7.353   4.198
 9035TIP3    H227049   2.114   7.419   4.086
 9036TIP3   OH227050   1.490   7.098   4.141
 9036TIP3    H127051   1.467   7.170   4.078
 9036TIP3    H227052   1.441   7.023   4.100
 9037TIP3   OH227053   2.183   7.190   3.762
 9037TIP3    H127054   2.253   7.175   3.829
 9037TIP3    H227055   2.237   7.224   3.688
 9038TIP3   OH227056   1.119   7.298   4.253
 9038TIP3    H127057   1.201   7.276   4.300
 9038TIP3    H227058   1.130   7.242   4.173
 9039TIP3   OH227059   1.557   7.497   4.048
 9039TIP3    H127060   1.651   7.472   4.061
 9039TIP3    H227061   1.518   7.412   4.017
 9040TIP3   OH227062   2.825   7.466   4.314
 9040TIP3    H127063   2.739   7.509   4.295
 9040TIP3    H227064   2.835   7.488   4.408
 9041TIP3   OH227065   1.482   7.081   4.579
 9041TIP3    H127066   1.422   7.117   4.512
 9041TIP3    H227067   1.428   7.096   4.660
 9042TIP3   OH227068   1.801   7.908   3.592
 9042TIP3    H127069   1.780   7.902   3.498
 9042TIP3    H227070   1.849   7.993   3.598
 9043TIP3   OH227071   1.586   7.863   4.369
 9043TIP3    H127072   1.521   7.929   4.401
 9043TIP3    H227073   1.621   7.908   4.289
 9044TIP3   OH227074   2.383   7.197   3.944
 9044TIP3    H127075   2.369   7.152   4.028
 9044TIP3    H227076   2.437   7.274   3.971
 9045TIP3   OH227077   1.355   7.196   4.361
 9045TIP3    H127078   1.417   7.268   4.385
 9045TIP3    H227079   1.405   7.155   4.286
 9046TIP3   OH227080   1.414   8.071   4.475
 9046TIP3    H127081   1.365   8.064   4.391
 9046TIP3    H227082   1.338   8.066   4.538
 9047TIP3   OH227083   0.816   7.721   3.710
 9047TIP3    H127084   0.768   7.705   3.625
 9047TIP3    H227085   0.818   7.817   3.709
 9048TIP3   OH227086   2.544   7.156   4.312
 9048TIP3    H127087   2.456   7.183   4.279
 9048TIP3    H227088   2.604   7.188   4.242
 9049TIP3   OH227089   1.832   6.795   4.296
 9049TIP3    H127090   1.817   6.701   4.315
 9049TIP3    H227091   1.756   6.835   4.343
 9050TIP3   OH227092   2.188   8.030   3.507
 9050TIP3    H127093   2.166   7.948   3.457
 9050TIP3    H227094   2.199   7.996   3.599
 9051TIP3   OH227095   2.487   8.162   4.302
 9051TIP3    H127096   2.467   8.088   4.241
 9051TIP3    H227097   2.525   8.229   4.241
 9052TIP3   OH227098   1.769   7.557   3.556
 9052TIP3    H127099   1.688   7.608   3.538
 9052TIP3    H227100   1.811   7.553   3.468
 9053TIP3   OH227101   1.725   7.350   3.261
 9053TIP3    H127102   1.793   7.402   3.309
 9053TIP3    H227103   1.782   7.286   3.214
 9054TIP3   OH227104   2.668   7.806   4.138
 9054TIP3    H127105   2.585   7.858   4.140
 9054TIP3    H227106   2.703   7.832   4.050
 9055TIP3   OH227107   2.116   7.635   3.525
 9055TIP3    H127108   2.062   7.658   3.604
 9055TIP3    H227109   2.201   7.610   3.567
 9056TIP3   OH227110   2.347   7.683   4.439
 9056TIP3    H127111   2.343   7.766   4.489
 9056TIP3    H227112   2.261   7.684   4.393
 9057TIP3   OH227113   1.353   7.640   3.929
 9057TIP3    H127114   1.310   7.578   3.865
 9057TIP3    H227115   1.427   7.586   3.963
 9058TIP3   OH227116   1.486   8.007   4.122
 9058TIP3    H127117   1.457   7.996   4.029
 9058TIP3    H227118   1.584   7.998   4.114
 9059TIP3   OH227119   1.483   7.615   4.291
 9059TIP3    H127120   1.516   7.589   4.202
 9059TIP3    H227121   1.525   7.702   4.306
 9060TIP3   OH227122   1.672   8.076   4.607
 9060TIP3    H127123   1.628   8.160   4.631
 9060TIP3    H227124   1.598   8.034   4.558
 9061TIP3   OH227125   1.947   7.504   3.348
 9061TIP3    H127126   2.010   7.561   3.398
 9061TIP3    H227127   1.978   7.518   3.255
 9062TIP3   OH227128   1.376   7.726   4.715
 9062TIP3    H127129   1.382   7.812   4.762
 9062TIP3    H227130   1.284   7.701   4.738
 9063TIP3   OH227131   2.470   6.741   3.397
 9063TIP3    H127132   2.388   6.764   3.446
 9063TIP3    H227133   2.485   6.823   3.346
 9064TIP3   OH227134   1.216   7.483   3.744
 9064TIP3    H127135   1.146   7.521   3.686
 9064TIP3    H227136   1.180   7.395   3.761
 9065TIP3   OH227137   1.011   7.872   4.658
 9065TIP3    H127138   0.940   7.851   4.595
 9065TIP3    H227139   1.046   7.783   4.682
 9066TIP3   OH227140   2.597   7.643   4.611
 9066TIP3    H127141   2.510   7.646   4.567
 9066TIP3    H227142   2.617   7.548   4.608
 9067TIP3   OH227143   1.202   8.072   4.649
 9067TIP3    H127144   1.254   8.036   4.723
 9067TIP3    H227145   1.128   8.008   4.644
 9068TIP3   OH227146   1.597   6.876   4.426
 9068TIP3    H127147   1.509   6.844   4.396
 9068TIP3    H227148   1.569   6.955   4.476
 9069TIP3   OH227149   2.133   6.989   4.619
 9069TIP3    H127150   2.203   6.962   4.682
 9069TIP3    H227151   2.051   6.970   4.668
 9070TIP3   OH227152   2.368   7.420   4.538
 9070TIP3    H127153   2.319   7.415   4.623
 9070TIP3    H227154   2.342   7.507   4.503
 9071TIP3   OH227155   2.032   7.528   3.094
 9071TIP3    H127156   1.997   7.510   3.005
 9071TIP3    H227157   2.100   7.596   3.073
 9072TIP3   OH227158   1.742   6.922   3.396
 9072TIP3    H127159   1.707   6.919   3.487
 9072TIP3    H227160   1.702   6.840   3.360
 9073TIP3   OH227161   1.530   7.394   4.442
 9073TIP3    H127162   1.478   7.412   4.524
 9073TIP3    H227163   1.512   7.476   4.390
 9074TIP3   OH227164   1.411   7.280   3.956
 9074TIP3    H127165   1.319   7.251   3.976
 9074TIP3    H227166   1.423   7.238   3.868
 9075TIP3   OH227167   1.906   7.360   3.689
 9075TIP3    H127168   1.854   7.428   3.641
 9075TIP3    H227169   1.962   7.325   3.616
 9076TIP3   OH227170   2.083   7.636   4.765
 9076TIP3    H127171   2.058   7.564   4.828
 9076TIP3    H227172   2.177   7.646   4.789
 9077TIP3   OH227173   2.061   7.388   3.920
 9077TIP3    H127174   1.996   7.411   3.850
 9077TIP3    H227175   2.099   7.308   3.877
 9078TIP3   OH227176   1.349   7.417   4.649
 9078TIP3    H127177   1.373   7.480   4.719
 9078TIP3    H227178   1.336   7.334   4.699
 9079TIP3   OH227179   1.400   6.900   3.360
 9079TIP3    H127180   1.389   6.897   3.457
 9079TIP3    H227181   1.321   6.951   3.334
 9080TIP3   OH227182   0.945   6.940   4.231
 9080TIP3    H127183   1.021   6.971   4.284
 9080TIP3    H227184   0.983   6.908   4.149
 9081TIP3   OH227185   0.909   6.920   3.749
 9081TIP3    H127186   0.954   6.958   3.671
 9081TIP3    H227187   0.845   6.992   3.769
 9082TIP3   OH227188   2.073   7.636   4.342
 9082TIP3    H127189   2.105   7.564   4.283
 9082TIP3    H227190   2.042   7.581   4.418
 9083TIP3   OH227191   1.748   7.101   4.016
 9083TIP3    H127192   1.666   7.098   4.070
 9083TIP3    H227193   1.817   7.088   4.083
 9084TIP3   OH227194   1.175   7.158   4.021
 9084TIP3    H127195   1.080   7.167   3.994
 9084TIP3    H227196   1.194   7.065   4.001
 9085TIP3   OH227197   1.438   7.151   3.716
 9085TIP3    H127198   1.532   7.164   3.694
 9085TIP3    H227199   1.391   7.172   3.632
 9086TIP3   OH227200   2.232   7.177   4.220
 9086TIP3    H127201   2.202   7.189   4.313
 9086TIP3    H227202   2.165   7.116   4.187
 9087TIP3   OH227203   1.290   7.190   3.491
 9087TIP3    H127204   1.219   7.142   3.445
 9087TIP3    H227205   1.341   7.224   3.415
 9088TIP3   OH227206   1.365   7.976   4.856
 9088TIP3    H127207   1.443   8.002   4.911
 9088TIP3    H227208   1.300   7.959   4.927
 9089TIP3   OH227209   1.821   7.433   4.117
 9089TIP3    H127210   1.892   7.387   4.069
 9089TIP3    H227211   1.822   7.387   4.203
 9090TIP3   OH227212   1.342   6.912   4.000
 9090TIP3    H127213   1.303   6.838   4.051
 9090TIP3    H227214   1.384   6.866   3.927
 9091TIP3   OH227215   1.798   7.335   4.395
 9091TIP3    H127216   1.707   7.364   4.416
 9091TIP3    H227217   1.854   7.391   4.451
 9092TIP3   OH227218   1.536   7.701   3.507
 9092TIP3    H127219   1.460   7.641   3.494
 9092TIP3    H227220   1.510   7.746   3.591
 9093TIP3   OH227221   2.434   7.952   4.132
 9093TIP3    H127222   2.463   8.000   4.051
 9093TIP3    H227223   2.351   7.909   4.102
 9094TIP3   OH227224   1.993   7.023   3.370
 9094TIP3    H127225   1.897   7.002   3.377
 9094TIP3    H227226   1.998   7.118   3.393
 9095TIP3   OH227227   1.947   8.058   4.496
 9095TIP3    H127228   1.981   8.002   4.567
 9095TIP3    H227229   1.858   8.081   4.532
 9096TIP3   OH227230   2.061   7.276   3.470
 9096TIP3    H127231   2.158   7.280   3.483
 9096TIP3    H227232   2.043   7.355   3.416
 9097TIP3   OH227233   1.225   7.713   4.165
 9097TIP3    H127234   1.271   7.686   4.083
 9097TIP3    H227235   1.264   7.652   4.230
 9098TIP3   OH227236   1.645   7.892   3.344
 9098TIP3    H127237   1.596   7.960   3.395
 9098TIP3    H227238   1.614   7.811   3.391
 9099TIP3   OH227239   1.116   7.648   4.787
 9099TIP3    H127240   1.123   7.630   4.883
 9099TIP3    H227241   1.043   7.588   4.763
 9100TIP3   OH227242   1.843   7.764   4.810
 9100TIP3    H127243   1.778   7.707   4.766
 9100TIP3    H227244   1.927   7.725   4.778
 9101TIP3   OH227245   2.499   7.371   3.301
 9101TIP3    H127246   2.438   7.326   3.237
 9101TIP3    H227247   2.496   7.460   3.260
 9102TIP3   OH227248   2.199   7.820   4.030
 9102TIP3    H127249   2.108   7.791   4.051
 9102TIP3    H227250   2.236   7.737   3.994
 9103TIP3   OH227251   0.898   7.343   3.507
 9103TIP3    H127252   0.942   7.427   3.530
 9103TIP3    H227253   0.819   7.346   3.567
 9104TIP3   OH227254   1.457   7.824   3.745
 9104TIP3    H127255   1.410   7.897   3.789
 9104TIP3    H227256   1.438   7.753   3.809
 9105TIP3   OH227257   1.992   8.024   4.225
 9105TIP3    H127258   1.979   8.032   4.322
 9105TIP3    H227259   2.069   7.966   4.218
 9106TIP3   OH227260   1.999   7.848   3.081
 9106TIP3    H127261   2.030   7.837   3.173
 9106TIP3    H227262   1.919   7.903   3.094
 9107TIP3   OH227263   1.317   7.162   4.791
 9107TIP3    H127264   1.221   7.163   4.805
 9107TIP3    H227265   1.347   7.109   4.867
 9108TIP3   OH227266   2.122   7.823   3.331
 9108TIP3    H127267   2.118   7.751   3.396
 9108TIP3    H227268   2.218   7.822   3.308
 9109TIP3   OH227269   1.310   7.839   3.173
 9109TIP3    H127270   1.343   7.755   3.133
 9109TIP3    H227271   1.364   7.843   3.252
 9110TIP3   OH227272   1.016   7.584   3.585
 9110TIP3    H127273   0.949   7.622   3.646
 9110TIP3    H227274   1.023   7.655   3.519
 9111TIP3   OH227275   2.161   7.226   4.481
 9111TIP3    H127276   2.240   7.265   4.521
 9111TIP3    H227277   2.147   7.145   4.534
 9112TIP3   OH227278   2.041   6.973   3.649
 9112TIP3    H127279   2.028   6.995   3.555
 9112TIP3    H227280   2.082   7.056   3.683
 9113TIP3   OH227281   1.723   7.161   3.748
 9113TIP3    H127282   1.788   7.232   3.732
 9113TIP3    H227283   1.730   7.151   3.845
 9114TIP3   OH227284   1.999   7.475   4.549
 9114TIP3    H127285   2.024   7.524   4.630
 9114TIP3    H227286   2.049   7.391   4.559
 9115TIP3   OH227287   1.867   6.878   3.846
 9115TIP3    H127288   1.862   6.956   3.904
 9115TIP3    H227289   1.931   6.910   3.778
 9116TIP3   OH227290   1.383   6.886   3.636
 9116TIP3    H127291   1.379   6.974   3.677
 9116TIP3    H227292   1.479   6.868   3.644
 9117TIP3   OH227293   2.635   7.376   4.533
 9117TIP3    H127294   2.537   7.377   4.544
 9117TIP3    H227295   2.641   7.323   4.453
 9118TIP3   OH227296   2.286   7.572   3.925
 9118TIP3    H127297   2.210   7.511   3.935
 9118TIP3    H227298   2.357   7.524   3.972
 9119TIP3   OH227299   1.015   7.803   3.394
 9119TIP3    H127300   1.025   7.883   3.341
 9119TIP3    H227301   1.062   7.737   3.336
 9120TIP3   OH227302   0.944   7.073   3.522
 9120TIP3    H127303   0.943   7.171   3.524
 9120TIP3    H227304   0.856   7.053   3.488
 9121TIP3   OH227305   1.334   6.795   4.394
 9121TIP3    H127306   1.302   6.760   4.308
 9121TIP3    H227307   1.322   6.717   4.452
 9122TIP3   OH227308   1.161   7.943   5.036
 9122TIP3    H127309   1.183   7.849   5.049
 9122TIP3    H227310   1.070   7.937   5.000
 9123TIP3   OH227311   1.131   7.600   3.256
 9123TIP3    H127312   1.183   7.560   3.328
 9123TIP3    H227313   1.202   7.605   3.187
 9124TIP3   OH227314   1.784   8.028   4.853
 9124TIP3    H127315   1.751   8.039   4.761
 9124TIP3    H227316   1.818   7.936   4.847
 9125TIP3   OH227317   1.578   7.782   3.067
 9125TIP3    H127318   1.621   7.801   3.151
 9125TIP3    H227319   1.613   7.692   3.047
 9126TIP3   OH227320   2.261   8.051   4.433
 9126TIP3    H127321   2.323   8.111   4.386
 9126TIP3    H227322   2.177   8.099   4.425
 9127TIP3   OH227323   1.293   7.697   5.033
 9127TIP3    H127324   1.362   7.633   5.017
 9127TIP3    H227325   1.316   7.728   5.124
 9128TIP3   OH227326   1.333   7.515   3.462
 9128TIP3    H127327   1.307   7.470   3.543
 9128TIP3    H227328   1.375   7.442   3.411
 9129TIP3   OH227329   1.615   7.584   4.695
 9129TIP3    H127330   1.534   7.641   4.695
 9129TIP3    H227331   1.664   7.620   4.618
 9130TIP3   OH227332   1.448   7.316   3.306
 9130TIP3    H127333   1.424   7.315   3.211
 9130TIP3    H227334   1.546   7.317   3.299
 9131TIP3   OH227335   2.141   7.973   4.826
 9131TIP3    H127336   2.210   7.929   4.775
 9131TIP3    H227337   2.131   7.912   4.902
 9132TIP3   OH227338   2.262   7.649   2.970
 9132TIP3    H127339   2.239   7.598   2.890
 9132TIP3    H227340   2.243   7.739   2.937
 9133TIP3   OH227341   1.737   7.372   4.817
 9133TIP3    H127342   1.738   7.294   4.759
 9133TIP3    H227343   1.692   7.439   4.761
 9134TIP3   OH227344   1.740   7.160   4.626
 9134TIP3    H127345   1.767   7.197   4.540
 9134TIP3    H227346   1.647   7.135   4.609
 9135TIP3   OH227347   1.760   7.697   4.501
 9135TIP3    H127348   1.842   7.699   4.451
 9135TIP3    H227349   1.704   7.761   4.452
 9136TIP3   OH227350   2.341   7.658   4.873
 9136TIP3    H127351   2.375   7.586   4.933
 9136TIP3    H227352   2.424   7.696   4.842
 9137TIP3   OH227353   2.403   7.922   4.621
 9137TIP3    H127354   2.344   7.969   4.559
 9137TIP3    H227355   2.491   7.947   4.586
 9138TIP3   OH227356   1.614   7.477   5.050
 9138TIP3    H127357   1.547   7.408   5.069
 9138TIP3    H227358   1.649   7.447   4.964
 9139TIP3   OH227359   1.870   6.919   4.698
 9139TIP3    H127360   1.820   7.001   4.675
 9139TIP3    H227361   1.802   6.850   4.687
 9140TIP3   OH227362   1.996   7.424   4.911
 9140TIP3    H127363   1.988   7.406   5.007
 9140TIP3    H227364   1.906   7.399   4.882
 9141TIP3   OH227365   2.233   7.369   4.765
 9141TIP3    H127366   2.162   7.371   4.832
 9141TIP3    H227367   2.311   7.341   4.818
 9142TIP3   OH227368   2.474   7.308   4.898
 9142TIP3    H127369   2.482   7.215   4.927
 9142TIP3    H227370   2.457   7.356   4.981
 9143TIP3   OH227371   1.454   7.256   5.108
 9143TIP3    H127372   1.457   7.164   5.077
 9143TIP3    H227373   1.492   7.247   5.198
 9144TIP3   OH227374   1.964   6.930   4.956
 9144TIP3    H127375   2.030   6.859   4.950
 9144TIP3    H227376   1.924   6.925   4.867
 9145TIP3   OH227377   2.030   7.144   5.120
 9145TIP3    H127378   2.010   7.075   5.053
 9145TIP3    H227379   1.953   7.204   5.110
 9146TIP3   OH227380   0.753   7.714   3.441
 9146TIP3    H127381   0.838   7.741   3.403
 9146TIP3    H227382   0.728   7.640   3.381
 9147TIP3   OH227383   2.393   7.818   3.310
 9147TIP3    H127384   2.462   7.877   3.274
 9147TIP3    H227385   2.441   7.780   3.387
 9148TIP3   OH227386   2.529   7.692   3.509
 9148TIP3    H127387   2.468   7.650   3.573
 9148TIP3    H227388   2.602   7.726   3.566
 9149TIP3   OH227389   2.568   8.078   3.934
 9149TIP3    H127390   2.635   8.017   3.896
 9149TIP3    H227391   2.583   8.159   3.884
 9150TIP3   OH227392   2.464   7.603   3.150
 9150TIP3    H127393   2.393   7.608   3.082
 9150TIP3    H227394   2.437   7.678   3.208
 9151TIP3   OH227395   2.337   7.275   3.106
 9151TIP3    H127396   2.290   7.310   3.030
 9151TIP3    H227397   2.316   7.179   3.099
 9152TIP3   OH227398   2.342   7.550   3.656
 9152TIP3    H127399   2.353   7.454   3.646
 9152TIP3    H227400   2.329   7.560   3.753
 9153TIP3   OH227401   0.966   7.637   4.402
 9153TIP3    H127402   0.961   7.596   4.313
 9153TIP3    H227403   1.063   7.632   4.418
 9154TIP3   OH227404   2.653   8.029   4.529
 9154TIP3    H127405   2.718   7.954   4.530
 9154TIP3    H227406   2.635   8.036   4.432
 9155TIP3   OH227407   2.809   7.792   4.533
 9155TIP3    H127408   2.732   7.737   4.560
 9155TIP3    H227409   2.881   7.728   4.545
 9156TIP3   OH227410   2.281   7.009   3.089
 9156TIP3    H127411   2.353   6.976   3.146
 9156TIP3    H227412   2.207   6.950   3.110
 9157TIP3   OH227413   2.341   7.271   3.543
 9157TIP3    H127414   2.382   7.182   3.558
 9157TIP3    H227415   2.399   7.303   3.471
 9158TIP3   OH227416   2.499   7.439   4.041
 9158TIP3    H127417   2.584   7.463   3.999
 9158TIP3    H227418   2.515   7.475   4.131
 9159TIP3   OH227419   2.573   7.584   4.271
 9159TIP3    H127420   2.497   7.619   4.322
 9159TIP3    H227421   2.606   7.665   4.226
 9160TIP3   OH227422   1.189   7.308   5.069
 9160TIP3    H127423   1.286   7.303   5.079
 9160TIP3    H227424   1.162   7.222   5.109
 9161TIP3   OH227425   3.021   7.182   4.826
 9161TIP3    H127426   3.083   7.117   4.786
 9161TIP3    H227427   2.992   7.233   4.748
 9162TIP3   OH227428   2.447   7.021   3.585
 9162TIP3    H127429   2.496   7.003   3.669
 9162TIP3    H227430   2.387   6.944   3.583
 9163TIP3   OH227431   1.151   7.004   4.404
 9163TIP3    H127432   1.212   6.928   4.413
 9163TIP3    H227433   1.215   7.078   4.397
 9164TIP3   OH227434   0.950   7.274   4.479
 9164TIP3    H127435   0.997   7.270   4.393
 9164TIP3    H227436   0.981   7.357   4.516
 9165TIP3   OH227437   2.890   7.316   4.627
 9165TIP3    H127438   2.803   7.357   4.647
 9165TIP3    H227439   2.860   7.240   4.574
 9166TIP3   OH227440   2.524   6.949   3.221
 9166TIP3    H127441   2.565   6.880   3.164
 9166TIP3    H227442   2.591   7.020   3.218
 9167TIP3   OH227443   0.935   6.781   3.981
 9167TIP3    H127444   0.843   6.773   4.011
 9167TIP3    H227445   0.925   6.840   3.903
 9168TIP3   OH227446   1.155   6.858   4.793
 9168TIP3    H127447   1.103   6.855   4.875
 9168TIP3    H227448   1.090   6.898   4.732
 9169TIP3   OH227449   2.792   7.076   4.514
 9169TIP3    H127450   2.701   7.063   4.481
 9169TIP3    H227451   2.828   6.985   4.506
 9170TIP3   OH227452   1.993   6.992   4.134
 9170TIP3    H127453   1.953   6.920   4.187
 9170TIP3    H227454   2.069   6.947   4.091
 9171TIP3   OH227455   2.514   6.876   4.038
 9171TIP3    H127456   2.551   6.926   3.962
 9171TIP3    H227457   2.419   6.895   4.031
 9172TIP3   OH227458   2.612   6.971   3.801
 9172TIP3    H127459   2.686   6.919   3.764
 9172TIP3    H227460   2.647   7.062   3.787
 9173TIP3   OH227461   1.243   6.700   4.148
 9173TIP3    H127462   1.150   6.668   4.151
 9173TIP3    H227463   1.291   6.615   4.144
 9174TIP3   OH227464   1.037   6.578   3.801
 9174TIP3    H127465   1.063   6.635   3.727
 9174TIP3    H227466   1.007   6.643   3.867
 9175TIP3   OH227467   1.692   6.732   4.030
 9175TIP3    H127468   1.749   6.780   3.967
 9175TIP3    H227469   1.719   6.771   4.115
 9176TIP3   OH227470   2.230   6.883   4.013
 9176TIP3    H127471   2.234   6.840   3.926
 9176TIP3    H227472   2.220   6.804   4.072
 9177TIP3   OH227473   2.265   6.808   3.578
 9177TIP3    H127474   2.179   6.850   3.596
 9177TIP3    H227475   2.252   6.721   3.621
 9178TIP3   OH227476   1.152   6.732   3.558
 9178TIP3    H127477   1.199   6.667   3.501
 9178TIP3    H227478   1.227   6.784   3.594
 9179TIP3   OH227479   1.659   6.911   3.659
 9179TIP3    H127480   1.718   6.862   3.719
 9179TIP3    H227481   1.682   7.003   3.685
 9180TIP3   OH227482   1.451   6.983   5.041
 9180TIP3    H127483   1.415   6.912   5.097
 9180TIP3    H227484   1.545   6.982   5.070
 9181TIP3   OH227485   1.702   6.979   5.159
 9181TIP3    H127486   1.788   6.956   5.122
 9181TIP3    H227487   1.689   6.909   5.226
 9182TIP3   OH227488   2.529   7.039   4.947
 9182TIP3    H127489   2.546   7.011   5.039
 9182TIP3    H227490   2.619   7.037   4.908
 9183TIP3   OH227491   3.735   7.947   3.209
 9183TIP3    H127492   3.699   8.036   3.191
 9183TIP3    H227493   3.660   7.893   3.177
 9184TIP3   OH227494   3.754   7.956   3.579
 9184TIP3    H127495   3.772   7.943   3.674
 9184TIP3    H227496   3.698   7.879   3.558
 9185TIP3   OH227497   3.025   7.859   3.965
 9185TIP3    H127498   3.060   7.791   4.024
 9185TIP3    H227499   3.107   7.898   3.929
 9186TIP3   OH227500   3.973   8.260   3.270
 9186TIP3    H127501   3.957   8.215   3.355
 9186TIP3    H227502   3.972   8.355   3.296
 9187TIP3   OH227503   2.709   7.467   3.454
 9187TIP3    H127504   2.668   7.553   3.474
 9187TIP3    H227505   2.635   7.422   3.410
 9188TIP3   OH227506   2.765   7.762   3.635
 9188TIP3    H127507   2.816   7.684   3.668
 9188TIP3    H227508   2.839   7.822   3.611
 9189TIP3   OH227509   3.543   8.158   3.663
 9189TIP3    H127510   3.578   8.112   3.585
 9189TIP3    H227511   3.617   8.221   3.679
 9190TIP3   OH227512   4.555   7.520   3.626
 9190TIP3    H127513   4.582   7.595   3.684
 9190TIP3    H227514   4.516   7.569   3.552
 9191TIP3   OH227515   3.949   7.694   3.664
 9191TIP3    H127516   3.989   7.607   3.684
 9191TIP3    H227517   3.910   7.677   3.576
 9192TIP3   OH227518   3.283   7.353   3.631
 9192TIP3    H127519   3.266   7.426   3.567
 9192TIP3    H227520   3.235   7.280   3.587
 9193TIP3   OH227521   3.970   7.446   3.245
 9193TIP3    H127522   4.037   7.434   3.317
 9193TIP3    H227523   4.028   7.480   3.174
 9194TIP3   OH227524   2.913   7.553   3.740
 9194TIP3    H127525   2.997   7.537   3.786
 9194TIP3    H227526   2.928   7.502   3.658
 9195TIP3   OH227527   3.351   7.750   3.544
 9195TIP3    H127528   3.446   7.729   3.551
 9195TIP3    H227529   3.314   7.667   3.506
 9196TIP3   OH227530   4.617   7.724   3.798
 9196TIP3    H127531   4.532   7.770   3.783
 9196TIP3    H227532   4.625   7.735   3.895
 9197TIP3   OH227533   3.278   7.338   4.067
 9197TIP3    H127534   3.219   7.375   3.997
 9197TIP3    H227535   3.224   7.356   4.146
 9198TIP3   OH227536   3.610   8.154   3.075
 9198TIP3    H127537   3.572   8.169   2.987
 9198TIP3    H227538   3.655   8.241   3.092
 9199TIP3   OH227539   3.373   8.118   3.863
 9199TIP3    H127540   3.318   8.197   3.874
 9199TIP3    H227541   3.427   8.143   3.783
 9200TIP3   OH227542   4.171   7.458   3.423
 9200TIP3    H127543   4.202   7.374   3.460
 9200TIP3    H227544   4.223   7.525   3.471
 9201TIP3   OH227545   3.150   7.452   3.849
 9201TIP3    H127546   3.212   7.525   3.871
 9201TIP3    H227547   3.199   7.412   3.773
 9202TIP3   OH227548   3.206   8.342   3.960
 9202TIP3    H127549   3.175   8.368   3.872
 9202TIP3    H227550   3.123   8.327   4.009
 9203TIP3   OH227551   2.597   7.962   3.198
 9203TIP3    H127552   2.565   7.967   3.104
 9203TIP3    H227553   2.617   8.056   3.212
 9204TIP3   OH227554   4.333   7.420   3.799
 9204TIP3    H127555   4.242   7.437   3.767
 9204TIP3    H227556   4.388   7.446   3.723
 9205TIP3   OH227557   3.627   7.050   3.781
 9205TIP3    H127558   3.613   6.956   3.802
 9205TIP3    H227559   3.551   7.090   3.829
 9206TIP3   OH227560   3.995   8.281   2.994
 9206TIP3    H127561   3.938   8.207   2.969
 9206TIP3    H227562   3.997   8.270   3.092
 9207TIP3   OH227563   4.262   8.423   3.780
 9207TIP3    H127564   4.250   8.342   3.726
 9207TIP3    H227565   4.258   8.493   3.713
 9208TIP3   OH227566   3.561   7.810   3.042
 9208TIP3    H127567   3.481   7.866   3.029
 9208TIP3    H227568   3.604   7.815   2.955
 9209TIP3   OH227569   3.520   7.607   2.749
 9209TIP3    H127570   3.586   7.657   2.800
 9209TIP3    H227571   3.578   7.543   2.702
 9210TIP3   OH227572   4.466   8.065   3.626
 9210TIP3    H127573   4.382   8.115   3.629
 9210TIP3    H227574   4.496   8.088   3.535
 9211TIP3   OH227575   3.914   7.894   3.012
 9211TIP3    H127576   3.857   7.915   3.089
 9211TIP3    H227577   3.998   7.871   3.058
 9212TIP3   OH227578   4.145   7.939   3.923
 9212TIP3    H127579   4.141   8.024   3.970
 9212TIP3    H227580   4.057   7.940   3.879
 9213TIP3   OH227581   3.150   7.895   3.411
 9213TIP3    H127582   3.108   7.831   3.351
 9213TIP3    H227583   3.221   7.843   3.453
 9214TIP3   OH227584   3.263   7.876   3.780
 9214TIP3    H127585   3.300   7.847   3.694
 9214TIP3    H227586   3.310   7.960   3.796
 9215TIP3   OH227587   3.459   8.329   4.102
 9215TIP3    H127588   3.414   8.413   4.120
 9215TIP3    H227589   3.393   8.286   4.046
 9216TIP3   OH227590   3.747   7.759   2.836
 9216TIP3    H127591   3.806   7.819   2.886
 9216TIP3    H227592   3.777   7.774   2.743
 9217TIP3   OH227593   3.175   7.981   4.209
 9217TIP3    H127594   3.173   8.068   4.252
 9217TIP3    H227595   3.080   7.958   4.212
 9218TIP3   OH227596   4.258   6.996   2.878
 9218TIP3    H127597   4.178   7.017   2.931
 9218TIP3    H227598   4.272   7.080   2.831
 9219TIP3   OH227599   3.016   7.734   3.218
 9219TIP3    H127600   2.946   7.781   3.168
 9219TIP3    H227601   2.973   7.652   3.242
 9220TIP3   OH227602   2.814   8.136   4.139
 9220TIP3    H127603   2.740   8.112   4.083
 9220TIP3    H227604   2.843   8.050   4.175
 9221TIP3   OH227605   4.398   7.901   4.099
 9221TIP3    H127606   4.312   7.911   4.056
 9221TIP3    H227607   4.414   7.805   4.089
 9222TIP3   OH227608   2.987   8.343   4.153
 9222TIP3    H127609   3.042   8.300   4.222
 9222TIP3    H227610   2.921   8.272   4.136
 9223TIP3   OH227611   3.392   7.130   3.914
 9223TIP3    H127612   3.304   7.101   3.883
 9223TIP3    H227613   3.366   7.212   3.962
 9224TIP3   OH227614   3.931   7.246   4.107
 9224TIP3    H127615   4.002   7.217   4.168
 9224TIP3    H227616   3.849   7.226   4.156
 9225TIP3   OH227617   4.165   7.679   4.026
 9225TIP3    H127618   4.112   7.675   4.110
 9225TIP3    H227619   4.139   7.765   3.989
 9226TIP3   OH227620   3.828   7.785   2.580
 9226TIP3    H127621   3.795   7.766   2.490
 9226TIP3    H227622   3.885   7.861   2.563
 9227TIP3   OH227623   3.538   7.178   2.883
 9227TIP3    H127624   3.504   7.176   2.975
 9227TIP3    H227625   3.498   7.096   2.848
 9228TIP3   OH227626   3.325   7.652   3.926
 9228TIP3    H127627   3.276   7.671   4.009
 9228TIP3    H227628   3.306   7.733   3.874
 9229TIP3   OH227629   3.210   7.534   3.443
 9229TIP3    H127630   3.117   7.509   3.462
 9229TIP3    H227631   3.220   7.492   3.354
 9230TIP3   OH227632   3.701   7.615   3.175
 9230TIP3    H127633   3.649   7.684   3.129
 9230TIP3    H227634   3.756   7.580   3.103
 9231TIP3   OH227635   3.879   7.891   4.254
 9231TIP3    H127636   3.855   7.819   4.316
 9231TIP3    H227637   3.973   7.904   4.277
 9232TIP3   OH227638   3.855   7.646   3.409
 9232TIP3    H127639   3.791   7.674   3.341
 9232TIP3    H227640   3.889   7.565   3.363
 9233TIP3   OH227641   3.148   7.674   4.138
 9233TIP3    H127642   3.183   7.735   4.205
 9233TIP3    H227643   3.135   7.592   4.190
 9234TIP3   OH227644   3.195   7.155   2.847
 9234TIP3    H127645   3.185   7.155   2.944
 9234TIP3    H227646   3.117   7.209   2.821
 9235TIP3   OH227647   2.738   7.194   3.721
 9235TIP3    H127648   2.812   7.230   3.775
 9235TIP3    H227649   2.781   7.169   3.638
 9236TIP3   OH227650   2.698   7.176   3.237
 9236TIP3    H127651   2.745   7.212   3.158
 9236TIP3    H227652   2.640   7.252   3.256
 9237TIP3   OH227653   3.872   7.890   3.833
 9237TIP3    H127654   3.903   7.820   3.770
 9237TIP3    H227655   3.838   7.834   3.906
 9238TIP3   OH227656   3.540   7.362   3.502
 9238TIP3    H127657   3.464   7.357   3.563
 9238TIP3    H227658   3.615   7.340   3.561
 9239TIP3   OH227659   2.971   7.413   3.511
 9239TIP3    H127660   2.877   7.419   3.481
 9239TIP3    H227661   2.996   7.322   3.487
 9240TIP3   OH227662   3.233   7.404   3.203
 9240TIP3    H127663   3.327   7.422   3.184
 9240TIP3    H227664   3.188   7.428   3.119
 9241TIP3   OH227665   4.039   7.437   3.718
 9241TIP3    H127666   3.993   7.446   3.805
 9241TIP3    H227667   3.982   7.372   3.673
 9242TIP3   OH227668   3.087   7.441   2.976
 9242TIP3    H127669   3.017   7.397   2.925
 9242TIP3    H227670   3.140   7.481   2.904
 9243TIP3   OH227671   3.142   8.223   4.364
 9243TIP3    H127672   3.222   8.261   4.407
 9243TIP3    H227673   3.118   8.154   4.428
 9244TIP3   OH227674   3.619   7.688   3.603
 9244TIP3    H127675   3.689   7.645   3.552
 9244TIP3    H227676   3.621   7.638   3.687
 9245TIP3   OH227677   3.135   7.171   3.485
 9245TIP3    H127678   3.100   7.094   3.535
 9245TIP3    H227679   3.184   7.128   3.414
 9246TIP3   OH227680   3.594   7.585   3.890
 9246TIP3    H127681   3.504   7.620   3.903
 9246TIP3    H227682   3.651   7.646   3.940
 9247TIP3   OH227683   3.330   7.961   2.999
 9247TIP3    H127684   3.254   7.902   2.985
 9247TIP3    H227685   3.304   8.007   3.083
 9248TIP3   OH227686   4.230   8.201   3.617
 9248TIP3    H127687   4.256   8.254   3.538
 9248TIP3    H227688   4.145   8.160   3.588
 9249TIP3   OH227689   3.787   7.284   2.847
 9249TIP3    H127690   3.692   7.261   2.861
 9249TIP3    H227691   3.794   7.376   2.878
 9250TIP3   OH227692   3.749   8.312   3.991
 9250TIP3    H127693   3.775   8.261   4.069
 9250TIP3    H227694   3.657   8.336   4.014
 9251TIP3   OH227695   3.857   7.531   2.955
 9251TIP3    H127696   3.953   7.538   2.970
 9251TIP3    H227697   3.836   7.613   2.906
 9252TIP3   OH227698   2.999   7.928   3.650
 9252TIP3    H127699   3.044   7.959   3.568
 9252TIP3    H227700   3.076   7.918   3.709
 9253TIP3   OH227701   3.435   8.147   2.826
 9253TIP3    H127702   3.393   8.217   2.881
 9253TIP3    H227703   3.406   8.069   2.879
 9254TIP3   OH227704   2.906   7.915   4.277
 9254TIP3    H127705   2.929   7.904   4.372
 9254TIP3    H227706   2.842   7.844   4.263
 9255TIP3   OH227707   3.640   8.018   4.299
 9255TIP3    H127708   3.576   7.970   4.244
 9255TIP3    H227709   3.725   7.982   4.267
 9256TIP3   OH227710   4.306   7.625   2.786
 9256TIP3    H127711   4.243   7.583   2.723
 9256TIP3    H227712   4.300   7.716   2.749
 9257TIP3   OH227713   4.519   8.463   3.866
 9257TIP3    H127714   4.422   8.473   3.852
 9257TIP3    H227715   4.547   8.453   3.773
 9258TIP3   OH227716   4.002   8.071   3.524
 9258TIP3    H127717   3.909   8.045   3.542
 9258TIP3    H227718   4.033   7.990   3.480
 9259TIP3   OH227719   2.693   7.600   2.994
 9259TIP3    H127720   2.739   7.684   3.013
 9259TIP3    H227721   2.615   7.607   3.053
 9260TIP3   OH227722   3.255   8.087   3.241
 9260TIP3    H127723   3.243   8.162   3.304
 9260TIP3    H227724   3.217   8.017   3.299
 9261TIP3   OH227725   3.783   8.271   3.719
 9261TIP3    H127726   3.782   8.278   3.817
 9261TIP3    H227727   3.871   8.237   3.700
 9262TIP3   OH227728   3.791   8.104   2.562
 9262TIP3    H127729   3.823   8.090   2.654
 9262TIP3    H227730   3.710   8.156   2.577
 9263TIP3   OH227731   3.114   7.421   4.279
 9263TIP3    H127732   3.017   7.422   4.289
 9263TIP3    H227733   3.141   7.363   4.352
 9264TIP3   OH227734   3.915   8.072   2.807
 9264TIP3    H127735   3.911   8.008   2.881
 9264TIP3    H227736   4.011   8.085   2.797
 9265TIP3   OH227737   3.116   8.101   2.642
 9265TIP3    H127738   3.147   8.010   2.620
 9265TIP3    H227739   3.139   8.108   2.735
 9266TIP3   OH227740   2.809   7.841   3.070
 9266TIP3    H127741   2.740   7.877   3.130
 9266TIP3    H227742   2.814   7.914   3.005
 9267TIP3   OH227743   3.951   7.488   3.975
 9267TIP3    H127744   4.037   7.521   4.007
 9267TIP3    H227745   3.941   7.404   4.026
 9268TIP3   OH227746   3.837   7.228   3.134
 9268TIP3    H127747   3.825   7.253   3.041
 9268TIP3    H227748   3.876   7.309   3.172
 9269TIP3   OH227749   3.515   7.418   3.234
 9269TIP3    H127750   3.582   7.489   3.218
 9269TIP3    H227751   3.524   7.406   3.331
 9270TIP3   OH227752   3.791   7.728   4.037
 9270TIP3    H127753   3.821   7.777   4.116
 9270TIP3    H227754   3.844   7.646   4.042
 9271TIP3   OH227755   3.664   7.130   3.331
 9271TIP3    H127756   3.672   7.201   3.397
 9271TIP3    H227757   3.729   7.162   3.263
 9272TIP3   OH227758   3.179   7.141   3.123
 9272TIP3    H127759   3.176   7.231   3.161
 9272TIP3    H227760   3.276   7.124   3.131
 9273TIP3   OH227761   4.429   7.631   4.013
 9273TIP3    H127762   4.331   7.638   4.027
 9273TIP3    H227763   4.428   7.566   3.941
 9274TIP3   OH227764   4.087   7.819   3.409
 9274TIP3    H127765   4.004   7.769   3.422
 9274TIP3    H227766   4.151   7.767   3.462
 9275TIP3   OH227767   2.800   8.056   2.884
 9275TIP3    H127768   2.824   8.148   2.865
 9275TIP3    H227769   2.854   8.007   2.818
 9276TIP3   OH227770   2.737   7.329   3.013
 9276TIP3    H127771   2.741   7.427   3.013
 9276TIP3    H227772   2.658   7.313   2.961
 9277TIP3   OH227773   3.126   7.052   3.882
 9277TIP3    H127774   3.097   7.017   3.795
 9277TIP3    H227775   3.116   6.974   3.940
 9278TIP3   OH227776   2.930   7.859   2.740
 9278TIP3    H127777   2.980   7.825   2.817
 9278TIP3    H227778   3.001   7.860   2.673
 9279TIP3   OH227779   3.575   8.281   4.343
 9279TIP3    H127780   3.542   8.294   4.251
 9279TIP3    H227781   3.612   8.190   4.335
 9280TIP3   OH227782   3.391   8.040   2.544
 9280TIP3    H127783   3.408   8.056   2.638
 9280TIP3    H227784   3.419   7.947   2.534
 9281TIP3   OH227785   4.053   8.306   3.920
 9281TIP3    H127786   4.117   8.366   3.878
 9281TIP3    H227787   3.971   8.358   3.914
 9282TIP3   OH227788   3.093   7.958   4.505
 9282TIP3    H127789   3.167   7.898   4.496
 9282TIP3    H227790   3.102   7.989   4.598
 9283TIP3   OH227791   3.126   7.775   2.946
 9283TIP3    H127792   3.103   7.736   3.032
 9283TIP3    H227793   3.169   7.699   2.900
 9284TIP3   OH227794   3.408   7.837   4.179
 9284TIP3    H127795   3.331   7.897   4.180
 9284TIP3    H227796   3.460   7.874   4.103
 9285TIP3   OH227797   3.244   7.570   2.794
 9285TIP3    H127798   3.219   7.572   2.699
 9285TIP3    H227799   3.342   7.574   2.787
 9286TIP3   OH227800   3.932   8.233   4.312
 9286TIP3    H127801   4.009   8.204   4.261
 9286TIP3    H227802   3.930   8.168   4.385
 9287TIP3   OH227803   4.066   7.906   2.454
 9287TIP3    H127804   4.038   7.854   2.376
 9287TIP3    H227805   4.040   7.996   2.423
 9288TIP3   OH227806   3.532   7.630   4.306
 9288TIP3    H127807   3.534   7.551   4.248
 9288TIP3    H227808   3.489   7.696   4.248
 9289TIP3   OH227809   3.536   7.416   4.116
 9289TIP3    H127810   3.565   7.456   4.032
 9289TIP3    H227811   3.443   7.392   4.096
 9290TIP3   OH227812   3.557   7.957   3.992
 9290TIP3    H127813   3.639   7.963   3.940
 9290TIP3    H227814   3.498   8.019   3.943
 9291TIP3   OH227815   4.141   7.914   4.366
 9291TIP3    H127816   4.188   7.830   4.375
 9291TIP3    H227817   4.211   7.972   4.331
 9292TIP3   OH227818   4.184   8.167   4.108
 9292TIP3    H127819   4.127   8.221   4.047
 9292TIP3    H227820   4.272   8.187   4.069
 9293TIP3   OH227821   3.409   7.733   4.541
 9293TIP3    H127822   3.344   7.662   4.555
 9293TIP3    H227823   3.444   7.711   4.452
 9294TIP3   OH227824   3.668   7.176   4.186
 9294TIP3    H127825   3.618   7.258   4.162
 9294TIP3    H227826   3.599   7.107   4.174
 9295TIP3   OH227827   3.792   7.677   4.399
 9295TIP3    H127828   3.776   7.661   4.493
 9295TIP3    H227829   3.703   7.655   4.364
 9296TIP3   OH227830   4.033   7.633   4.256
 9296TIP3    H127831   3.957   7.630   4.318
 9296TIP3    H227832   4.107   7.600   4.312
 9297TIP3   OH227833   4.263   7.573   4.403
 9297TIP3    H127834   4.275   7.477   4.418
 9297TIP3    H227835   4.259   7.608   4.495
 9298TIP3   OH227836   3.248   7.514   4.596
 9298TIP3    H127837   3.251   7.422   4.561
 9298TIP3    H227838   3.289   7.500   4.684
 9299TIP3   OH227839   3.759   7.186   4.445
 9299TIP3    H127840   3.827   7.115   4.439
 9299TIP3    H227841   3.721   7.181   4.355
 9300TIP3   OH227842   3.828   7.401   4.600
 9300TIP3    H127843   3.807   7.328   4.537
 9300TIP3    H227844   3.749   7.458   4.592
 9301TIP3   OH227845   2.539   7.959   2.934
 9301TIP3    H127846   2.616   8.006   2.898
 9301TIP3    H227847   2.526   7.887   2.869
 9302TIP3   OH227848   4.416   8.594   4.146
 9302TIP3    H127849   4.340   8.575   4.207
 9302TIP3    H227850   4.460   8.666   4.192
 9303TIP3   OH227851   4.193   8.078   2.794
 9303TIP3    H127852   4.273   8.130   2.773
 9303TIP3    H227853   4.224   8.033   2.876
 9304TIP3   OH227854   4.319   7.945   2.993
 9304TIP3    H127855   4.255   7.903   3.055
 9304TIP3    H227856   4.383   7.987   3.053
 9305TIP3   OH227857   4.377   8.351   3.439
 9305TIP3    H127858   4.421   8.309   3.364
 9305TIP3    H227859   4.348   8.436   3.402
 9306TIP3   OH227860   4.262   7.862   2.637
 9306TIP3    H127861   4.191   7.863   2.569
 9306TIP3    H227862   4.230   7.935   2.695
 9307TIP3   OH227863   4.139   7.530   2.591
 9307TIP3    H127864   4.085   7.566   2.520
 9307TIP3    H227865   4.116   7.435   2.584
 9308TIP3   OH227866   4.141   7.804   3.142
 9308TIP3    H127867   4.141   7.707   3.132
 9308TIP3    H227868   4.123   7.814   3.239
 9309TIP3   OH227869   2.763   7.888   3.889
 9309TIP3    H127870   2.764   7.853   3.798
 9309TIP3    H227871   2.860   7.889   3.908
 9310TIP3   OH227872   4.428   8.231   4.002
 9310TIP3    H127873   4.500   8.166   3.987
 9310TIP3    H227874   4.450   8.302   3.938
 9311TIP3   OH227875   4.614   8.033   4.001
 9311TIP3    H127876   4.539   7.986   4.043
 9311TIP3    H227877   4.686   7.969   4.021
 9312TIP3   OH227878   4.079   7.264   2.574
 9312TIP3    H127879   4.148   7.232   2.635
 9312TIP3    H227880   4.002   7.209   2.596
 9313TIP3   OH227881   4.138   7.528   3.032
 9313TIP3    H127882   4.173   7.436   3.043
 9313TIP3    H227883   4.195   7.558   2.959
 9314TIP3   OH227884   4.308   7.687   3.536
 9314TIP3    H127885   4.389   7.725   3.497
 9314TIP3    H227886   4.309   7.733   3.623
 9315TIP3   OH227887   4.365   7.845   3.757
 9315TIP3    H127888   4.290   7.876   3.811
 9315TIP3    H227889   4.397   7.929   3.718
 9316TIP3   OH227890   2.982   7.576   4.568
 9316TIP3    H127891   3.079   7.566   4.568
 9316TIP3    H227892   2.956   7.487   4.602
 9317TIP3   OH227893   4.820   7.443   4.311
 9317TIP3    H127894   4.879   7.375   4.273
 9317TIP3    H227895   4.788   7.490   4.231
 9318TIP3   OH227896   4.238   7.275   3.060
 9318TIP3    H127897   4.285   7.266   3.146
 9318TIP3    H227898   4.179   7.197   3.064
 9319TIP3   OH227899   2.944   7.262   3.897
 9319TIP3    H127900   3.005   7.186   3.902
 9319TIP3    H227901   3.006   7.336   3.884
 9320TIP3   OH227902   2.743   7.534   3.962
 9320TIP3    H127903   2.794   7.528   3.878
 9320TIP3    H227904   2.777   7.617   3.998
 9321TIP3   OH227905   4.686   7.571   4.112
 9321TIP3    H127906   4.602   7.612   4.139
 9321TIP3    H227907   4.651   7.494   4.062
 9322TIP3   OH227908   4.322   7.207   2.708
 9322TIP3    H127909   4.359   7.136   2.650
 9322TIP3    H227910   4.390   7.277   2.700
 9323TIP3   OH227911   2.731   7.034   3.464
 9323TIP3    H127912   2.639   7.030   3.494
 9323TIP3    H227913   2.725   7.095   3.387
 9324TIP3   OH227914   2.952   7.119   4.281
 9324TIP3    H127915   2.899   7.113   4.362
 9324TIP3    H227916   2.886   7.155   4.219
 9325TIP3   OH227917   4.589   7.329   4.002
 9325TIP3    H127918   4.497   7.312   3.975
 9325TIP3    H227919   4.625   7.237   3.995
 9326TIP3   OH227920   3.771   7.247   3.609
 9326TIP3    H127921   3.744   7.175   3.668
 9326TIP3    H227922   3.853   7.211   3.568
 9327TIP3   OH227923   4.396   7.268   3.275
 9327TIP3    H127924   4.436   7.181   3.293
 9327TIP3    H227925   4.471   7.328   3.274
 9328TIP3   OH227926   3.040   6.957   3.635
 9328TIP3    H127927   2.947   6.924   3.639
 9328TIP3    H227928   3.088   6.871   3.631
 9329TIP3   OH227929   2.830   6.831   3.287
 9329TIP3    H127930   2.860   6.887   3.213
 9329TIP3    H227931   2.803   6.897   3.354
 9330TIP3   OH227932   3.488   6.989   3.519
 9330TIP3    H127933   3.541   7.035   3.452
 9330TIP3    H227934   3.522   7.028   3.601
 9331TIP3   OH227935   4.004   7.141   3.503
 9331TIP3    H127936   4.082   7.118   3.448
 9331TIP3    H227937   3.999   7.060   3.559
 9332TIP3   OH227938   4.057   7.063   3.061
 9332TIP3    H127939   3.974   7.107   3.088
 9332TIP3    H227940   4.048   6.979   3.110
 9333TIP3   OH227941   2.949   6.987   3.047
 9333TIP3    H127942   2.996   6.924   2.989
 9333TIP3    H227943   3.022   7.041   3.082
 9334TIP3   OH227944   3.456   7.167   3.146
 9334TIP3    H127945   3.518   7.123   3.207
 9334TIP3    H227946   3.475   7.260   3.171
 9335TIP3   OH227947   3.247   7.239   4.528
 9335TIP3    H127948   3.212   7.168   4.585
 9335TIP3    H227949   3.342   7.239   4.556
 9336TIP3   OH227950   3.499   7.237   4.646
 9336TIP3    H127951   3.584   7.212   4.606
 9336TIP3    H227952   3.487   7.166   4.713
 9337TIP3   OH227953   4.322   7.302   4.440
 9337TIP3    H127954   4.345   7.261   4.526
 9337TIP3    H227955   4.410   7.303   4.396
 9338TIP3   OH227956   5.528   8.207   2.698
 9338TIP3    H127957   5.490   8.295   2.676
 9338TIP3    H227958   5.459   8.151   2.657
 9339TIP3   OH227959   5.534   8.222   3.073
 9339TIP3    H127960   5.564   8.209   3.165
 9339TIP3    H227961   5.488   8.138   3.056
 9340TIP3   OH227962   4.832   8.117   3.437
 9340TIP3    H127963   4.860   8.046   3.498
 9340TIP3    H227964   4.892   8.188   3.462
 9341TIP3   OH227965   5.746   8.526   2.766
 9341TIP3    H127966   5.746   8.457   2.835
 9341TIP3    H227967   5.806   8.592   2.804
 9342TIP3   OH227968   4.868   8.460   3.250
 9342TIP3    H127969   4.818   8.391   3.202
 9342TIP3    H227970   4.943   8.476   3.189
 9343TIP3   OH227971   4.523   7.745   2.962
 9343TIP3    H127972   4.463   7.822   2.962
 9343TIP3    H227973   4.464   7.680   2.921
 9344TIP3   OH227974   4.554   8.031   3.110
 9344TIP3    H127975   4.611   7.955   3.127
 9344TIP3    H227976   4.619   8.096   3.075
 9345TIP3   OH227977   5.343   8.439   3.116
 9345TIP3    H127978   5.393   8.365   3.079
 9345TIP3    H227979   5.419   8.493   3.146
 9346TIP3   OH227980   6.339   7.765   3.111
 9346TIP3    H127981   6.343   7.846   3.165
 9346TIP3    H227982   6.395   7.788   3.034
 9347TIP3   OH227983   5.761   7.945   3.162
 9347TIP3    H127984   5.779   7.848   3.161
 9347TIP3    H227985   5.717   7.952   3.075
 9348TIP3   OH227986   5.778   7.709   2.743
 9348TIP3    H127987   5.852   7.688   2.804
 9348TIP3    H227988   5.825   7.752   2.670
 9349TIP3   OH227989   5.159   8.005   3.005
 9349TIP3    H127990   5.252   8.002   3.036
 9349TIP3    H227991   5.151   7.919   2.962
 9350TIP3   OH227992   6.351   7.982   3.302
 9350TIP3    H127993   6.371   8.076   3.288
 9350TIP3    H227994   6.388   7.968   3.391
 9351TIP3   OH227995   5.071   7.599   3.546
 9351TIP3    H127996   5.023   7.666   3.496
 9351TIP3    H227997   5.022   7.602   3.631
 9352TIP3   OH227998   5.403   8.414   2.567
 9352TIP3    H127999   5.368   8.409   2.476
 9352TIP3    H228000   5.445   8.503   2.569
 9353TIP3   OH228001   5.175   8.373   3.346
 9353TIP3    H128002   5.110   8.438   3.377
 9353TIP3    H228003   5.211   8.419   3.267
 9354TIP3   OH228004   5.990   7.698   2.919
 9354TIP3    H128005   5.954   7.670   3.005
 9354TIP3    H228006   6.046   7.774   2.945
 9355TIP3   OH228007   5.007   8.587   3.455
 9355TIP3    H128008   4.959   8.574   3.370
 9355TIP3    H228009   4.929   8.586   3.516
 9356TIP3   OH228010   4.423   8.213   2.706
 9356TIP3    H128011   4.374   8.236   2.626
 9356TIP3    H228012   4.428   8.300   2.749
 9357TIP3   OH228013   5.420   7.306   3.266
 9357TIP3    H128014   5.409   7.212   3.292
 9357TIP3    H228015   5.344   7.346   3.315
 9358TIP3   OH228016   5.782   8.544   2.481
 9358TIP3    H128017   5.755   8.464   2.430
 9358TIP3    H228018   5.789   8.509   2.573
 9359TIP3   OH228019   6.057   8.678   3.265
 9359TIP3    H128020   6.053   8.598   3.209
 9359TIP3    H228021   6.092   8.745   3.202
 9360TIP3   OH228022   5.362   8.069   2.531
 9360TIP3    H128023   5.277   8.116   2.517
 9360TIP3    H228024   5.400   8.071   2.441
 9361TIP3   OH228025   5.318   7.863   2.236
 9361TIP3    H128026   5.385   7.917   2.282
 9361TIP3    H228027   5.376   7.799   2.189
 9362TIP3   OH228028   6.270   8.301   3.107
 9362TIP3    H128029   6.183   8.345   3.122
 9362TIP3    H228030   6.294   8.338   3.019
 9363TIP3   OH228031   5.706   8.146   2.500
 9363TIP3    H128032   5.652   8.170   2.578
 9363TIP3    H228033   5.793   8.128   2.543
 9364TIP3   OH228034   5.927   8.158   3.413
 9364TIP3    H128035   5.956   8.240   3.457
 9364TIP3    H228036   5.848   8.192   3.367
 9365TIP3   OH228037   4.949   8.159   2.905
 9365TIP3    H128038   4.901   8.098   2.845
 9365TIP3    H228039   5.024   8.102   2.935
 9366TIP3   OH228040   5.079   8.520   3.099
 9366TIP3    H128041   5.062   8.511   3.005
 9366TIP3    H228042   5.177   8.532   3.101
 9367TIP3   OH228043   5.079   8.125   3.259
 9367TIP3    H128044   5.115   8.112   3.170
 9367TIP3    H228045   5.116   8.213   3.285
 9368TIP3   OH228046   5.259   8.587   3.586
 9368TIP3    H128047   5.223   8.675   3.608
 9368TIP3    H228048   5.184   8.552   3.535
 9369TIP3   OH228049   5.542   8.013   2.321
 9369TIP3    H128050   5.601   8.075   2.369
 9369TIP3    H228051   5.572   8.027   2.228
 9370TIP3   OH228052   4.965   8.234   3.687
 9370TIP3    H128053   4.975   8.322   3.730
 9370TIP3    H228054   4.873   8.212   3.712
 9371TIP3   OH228055   6.083   7.299   2.404
 9371TIP3    H128056   5.991   7.302   2.441
 9371TIP3    H228057   6.073   7.348   2.320
 9372TIP3   OH228058   4.806   7.990   2.734
 9372TIP3    H128059   4.742   8.029   2.670
 9372TIP3    H228060   4.773   7.899   2.738
 9373TIP3   OH228061   4.607   8.383   3.620
 9373TIP3    H128062   4.527   8.377   3.564
 9373TIP3    H228063   4.627   8.290   3.640
 9374TIP3   OH228064   6.201   8.143   3.579
 9374TIP3    H128065   6.108   8.170   3.571
 9374TIP3    H228066   6.198   8.071   3.644
 9375TIP3   OH228067   4.792   8.587   3.629
 9375TIP3    H128068   4.845   8.544   3.699
 9375TIP3    H228069   4.720   8.522   3.616
 9376TIP3   OH228070   5.185   7.392   3.396
 9376TIP3    H128071   5.097   7.358   3.368
 9376TIP3    H228072   5.155   7.468   3.450
 9377TIP3   OH228073   5.725   7.508   3.585
 9377TIP3    H128074   5.793   7.480   3.649
 9377TIP3    H228075   5.642   7.489   3.633
 9378TIP3   OH228076   5.621   8.040   2.066
 9378TIP3    H128077   5.595   8.018   1.975
 9378TIP3    H228078   5.644   8.135   2.055
 9379TIP3   OH228079   5.338   7.431   2.369
 9379TIP3    H128080   5.298   7.430   2.458
 9379TIP3    H228081   5.294   7.352   2.331
 9380TIP3   OH228082   5.127   7.900   3.412
 9380TIP3    H128083   5.064   7.911   3.486
 9380TIP3    H228084   5.102   7.977   3.356
 9381TIP3   OH228085   5.499   7.873   2.662
 9381TIP3    H128086   5.447   7.943   2.617
 9381TIP3    H228087   5.554   7.840   2.588
 9382TIP3   OH228088   5.673   8.149   3.736
 9382TIP3    H128089   5.652   8.078   3.801
 9382TIP3    H228090   5.766   8.169   3.760
 9383TIP3   OH228091   5.651   7.906   2.902
 9383TIP3    H128092   5.589   7.937   2.833
 9383TIP3    H228093   5.684   7.826   2.856
 9384TIP3   OH228094   4.943   7.924   3.619
 9384TIP3    H128095   4.964   7.994   3.682
 9384TIP3    H228096   4.929   7.847   3.678
 9385TIP3   OH228097   4.995   7.414   2.334
 9385TIP3    H128098   4.980   7.411   2.431
 9385TIP3    H228099   4.915   7.464   2.306
 9386TIP3   OH228100   4.589   7.484   3.173
 9386TIP3    H128101   4.626   7.431   3.244
 9386TIP3    H228102   4.553   7.419   3.109
 9387TIP3   OH228103   4.500   7.430   2.726
 9387TIP3    H128104   4.543   7.466   2.645
 9387TIP3    H228105   4.436   7.502   2.743
 9388TIP3   OH228106   5.654   8.144   3.311
 9388TIP3    H128107   5.689   8.072   3.254
 9388TIP3    H228108   5.625   8.092   3.390
 9389TIP3   OH228109   5.353   7.618   2.988
 9389TIP3    H128110   5.275   7.582   3.034
 9389TIP3    H228111   5.424   7.604   3.054
 9390TIP3   OH228112   5.028   7.651   2.692
 9390TIP3    H128113   5.119   7.678   2.675
 9390TIP3    H228114   4.979   7.683   2.613
 9391TIP3   OH228115   5.811   7.683   3.188
 9391TIP3    H128116   5.802   7.678   3.285
 9391TIP3    H228117   5.745   7.618   3.159
 9392TIP3   OH228118   4.881   7.708   2.468
 9392TIP3    H128119   4.813   7.657   2.421
 9392TIP3    H228120   4.935   7.741   2.393
 9393TIP3   OH228121   4.959   8.482   3.830
 9393TIP3    H128122   5.036   8.510   3.883
 9393TIP3    H228123   4.892   8.471   3.901
 9394TIP3   OH228124   5.417   7.953   3.092
 9394TIP3    H128125   5.481   7.901   3.042
 9394TIP3    H228126   5.413   7.905   3.177
 9395TIP3   OH228127   4.937   7.441   2.994
 9395TIP3    H128128   4.920   7.351   3.029
 9395TIP3    H228129   4.986   7.421   2.914
 9396TIP3   OH228130   5.394   7.850   3.368
 9396TIP3    H128131   5.300   7.875   3.385
 9396TIP3    H228132   5.443   7.911   3.427
 9397TIP3   OH228133   5.124   8.197   2.490
 9397TIP3    H128134   5.044   8.144   2.471
 9397TIP3    H228135   5.096   8.246   2.571
 9398TIP3   OH228136   6.033   8.450   3.104
 9398TIP3    H128137   6.063   8.502   3.026
 9398TIP3    H228138   5.947   8.416   3.074
 9399TIP3   OH228139   5.587   7.534   2.349
 9399TIP3    H128140   5.491   7.512   2.351
 9399TIP3    H228141   5.588   7.630   2.363
 9400TIP3   OH228142   5.535   8.567   3.471
 9400TIP3    H128143   5.576   8.527   3.548
 9400TIP3    H228144   5.451   8.600   3.509
 9401TIP3   OH228145   5.652   7.793   2.443
 9401TIP3    H128146   5.747   7.810   2.451
 9401TIP3    H228147   5.622   7.870   2.390
 9402TIP3   OH228148   4.793   8.186   3.137
 9402TIP3    H128149   4.855   8.188   3.061
 9402TIP3    H228150   4.852   8.167   3.212
 9403TIP3   OH228151   5.238   8.398   2.342
 9403TIP3    H128152   5.186   8.467   2.389
 9403TIP3    H228153   5.199   8.317   2.381
 9404TIP3   OH228154   4.710   8.154   3.761
 9404TIP3    H128155   4.717   8.141   3.857
 9404TIP3    H228156   4.633   8.098   3.741
 9405TIP3   OH228157   5.434   8.275   3.787
 9405TIP3    H128158   5.369   8.219   3.741
 9405TIP3    H228159   5.519   8.241   3.752
 9406TIP3   OH228160   6.082   7.884   2.280
 9406TIP3    H128161   6.030   7.838   2.209
 9406TIP3    H228162   6.080   7.973   2.238
 9407TIP3   OH228163   6.315   8.718   3.358
 9407TIP3    H128164   6.219   8.732   3.347
 9407TIP3    H228165   6.341   8.703   3.264
 9408TIP3   OH228166   5.791   8.335   3.000
 9408TIP3    H128167   5.699   8.311   3.023
 9408TIP3    H228168   5.823   8.252   2.961
 9409TIP3   OH228169   4.488   7.851   2.481
 9409TIP3    H128170   4.536   7.933   2.504
 9409TIP3    H228171   4.409   7.858   2.539
 9410TIP3   OH228172   5.047   8.333   2.714
 9410TIP3    H128173   5.041   8.420   2.755
 9410TIP3    H228174   5.023   8.274   2.789
 9411TIP3   OH228175   5.583   8.527   3.203
 9411TIP3    H128176   5.569   8.544   3.299
 9411TIP3    H228177   5.675   8.497   3.202
 9412TIP3   OH228178   5.603   8.328   2.057
 9412TIP3    H128179   5.635   8.338   2.149
 9412TIP3    H228180   5.523   8.386   2.062
 9413TIP3   OH228181   4.911   7.671   3.765
 9413TIP3    H128182   4.815   7.679   3.782
 9413TIP3    H228183   4.940   7.619   3.842
 9414TIP3   OH228184   5.718   8.336   2.308
 9414TIP3    H128185   5.713   8.263   2.373
 9414TIP3    H228186   5.814   8.335   2.286
 9415TIP3   OH228187   4.888   8.348   2.150
 9415TIP3    H128188   4.932   8.270   2.110
 9415TIP3    H228189   4.959   8.379   2.207
 9416TIP3   OH228190   4.617   8.084   2.560
 9416TIP3    H128191   4.552   8.134   2.614
 9416TIP3    H228192   4.642   8.147   2.491
 9417TIP3   OH228193   5.818   7.749   3.471
 9417TIP3    H128194   5.817   7.785   3.564
 9417TIP3    H228195   5.781   7.660   3.493
 9418TIP3   OH228196   5.635   7.487   2.623
 9418TIP3    H128197   5.616   7.504   2.529
 9418TIP3    H228198   5.668   7.573   2.654
 9419TIP3   OH228199   5.318   7.674   2.721
 9419TIP3    H128200   5.382   7.746   2.700
 9419TIP3    H228201   5.328   7.668   2.818
 9420TIP3   OH228202   5.600   7.989   3.528
 9420TIP3    H128203   5.608   8.059   3.596
 9420TIP3    H228204   5.641   7.915   3.575
 9421TIP3   OH228205   5.463   7.393   2.820
 9421TIP3    H128206   5.454   7.475   2.871
 9421TIP3    H228207   5.525   7.422   2.749
 9422TIP3   OH228208   4.974   7.396   2.609
 9422TIP3    H128209   4.974   7.487   2.646
 9422TIP3    H228210   5.069   7.376   2.616
 9423TIP3   OH228211   5.872   8.085   2.895
 9423TIP3    H128212   5.797   8.023   2.905
 9423TIP3    H228213   5.945   8.038   2.942
 9424TIP3   OH228214   4.535   7.582   2.500
 9424TIP3    H128215   4.534   7.680   2.499
 9424TIP3    H228216   4.455   7.561   2.450
 9425TIP3   OH228217   4.921   7.309   3.370
 9425TIP3    H128218   4.892   7.264   3.288
 9425TIP3    H228219   4.917   7.235   3.434
 9426TIP3   OH228220   4.751   8.458   4.008
 9426TIP3    H128221   4.772   8.362   4.017
 9426TIP3    H228222   4.662   8.454   3.968
 9427TIP3   OH228223   4.715   8.103   2.237
 9427TIP3    H128224   4.776   8.072   2.306
 9427TIP3    H228225   4.781   8.128   2.169
 9428TIP3   OH228226   5.375   8.538   3.829
 9428TIP3    H128227   5.341   8.552   3.738
 9428TIP3    H228228   5.410   8.447   3.821
 9429TIP3   OH228229   5.153   8.290   2.077
 9429TIP3    H128230   5.229   8.311   2.135
 9429TIP3    H228231   5.186   8.207   2.035
 9430TIP3   OH228232   5.846   8.563   3.401
 9430TIP3    H128233   5.918   8.614   3.359
 9430TIP3    H228234   5.776   8.630   3.401
 9431TIP3   OH228235   4.878   8.209   4.009
 9431TIP3    H128236   4.952   8.151   3.988
 9431TIP3    H228237   4.904   8.242   4.098
 9432TIP3   OH228238   4.916   8.021   2.436
 9432TIP3    H128239   4.894   7.963   2.511
 9432TIP3    H228240   4.963   7.958   2.377
 9433TIP3   OH228241   5.210   8.098   3.666
 9433TIP3    H128242   5.128   8.153   3.666
 9433TIP3    H228243   5.256   8.131   3.586
 9434TIP3   OH228244   5.041   7.830   2.281
 9434TIP3    H128245   5.015   7.830   2.186
 9434TIP3    H228246   5.139   7.833   2.272
 9435TIP3   OH228247   5.724   8.484   3.798
 9435TIP3    H128248   5.814   8.470   3.764
 9435TIP3    H228249   5.722   8.424   3.875
 9436TIP3   OH228250   5.875   8.162   1.935
 9436TIP3    H128251   5.837   8.113   1.861
 9436TIP3    H228252   5.849   8.253   1.910
 9437TIP3   OH228253   5.333   7.888   3.790
 9437TIP3    H128254   5.328   7.808   3.734
 9437TIP3    H228255   5.285   7.955   3.736
 9438TIP3   OH228256   5.331   7.672   3.598
 9438TIP3    H128257   5.357   7.714   3.514
 9438TIP3    H228258   5.238   7.648   3.580
 9439TIP3   OH228259   5.356   8.206   3.466
 9439TIP3    H128260   5.439   8.231   3.424
 9439TIP3    H228261   5.294   8.271   3.428
 9440TIP3   OH228262   5.937   8.169   3.850
 9440TIP3    H128263   5.985   8.099   3.899
 9440TIP3    H228264   6.004   8.238   3.841
 9441TIP3   OH228265   5.986   8.401   3.572
 9441TIP3    H128266   5.925   8.458   3.521
 9441TIP3    H228267   6.072   8.436   3.539
 9442TIP3   OH228268   5.208   7.990   4.026
 9442TIP3    H128269   5.141   7.921   4.043
 9442TIP3    H228270   5.241   7.963   3.938
 9443TIP3   OH228271   5.464   7.432   3.667
 9443TIP3    H128272   5.411   7.512   3.648
 9443TIP3    H228273   5.395   7.362   3.660
 9444TIP3   OH228274   5.596   7.931   3.879
 9444TIP3    H128275   5.588   7.918   3.975
 9444TIP3    H228276   5.503   7.911   3.853
 9445TIP3   OH228277   5.816   7.860   3.713
 9445TIP3    H128278   5.751   7.876   3.785
 9445TIP3    H228279   5.898   7.846   3.767
 9446TIP3   OH228280   6.039   7.821   3.871
 9446TIP3    H128281   6.065   7.730   3.896
 9446TIP3    H228282   6.037   7.867   3.958
 9447TIP3   OH228283   5.048   7.770   4.081
 9447TIP3    H128284   5.049   7.677   4.052
 9447TIP3    H228285   5.086   7.760   4.171
 9448TIP3   OH228286   5.560   7.444   3.926
 9448TIP3    H128287   5.624   7.371   3.921
 9448TIP3    H228288   5.518   7.436   3.838
 9449TIP3   OH228289   5.625   7.659   4.086
 9449TIP3    H128290   5.603   7.587   4.023
 9449TIP3    H228291   5.545   7.715   4.081
 9450TIP3   OH228292   4.354   8.233   2.390
 9450TIP3    H128293   4.433   8.224   2.333
 9450TIP3    H228294   4.301   8.159   2.352
 9451TIP3   OH228295   6.204   8.855   3.631
 9451TIP3    H128296   6.133   8.836   3.697
 9451TIP3    H228297   6.262   8.915   3.680
 9452TIP3   OH228298   5.987   8.328   2.287
 9452TIP3    H128299   6.053   8.392   2.250
 9452TIP3    H228300   6.039   8.292   2.362
 9453TIP3   OH228301   6.129   8.203   2.484
 9453TIP3    H128302   6.063   8.168   2.548
 9453TIP3    H228303   6.197   8.243   2.543
 9454TIP3   OH228304   6.151   8.589   2.904
 9454TIP3    H128305   6.220   8.531   2.865
 9454TIP3    H228306   6.166   8.674   2.862
 9455TIP3   OH228307   6.053   8.112   2.131
 9455TIP3    H128308   5.987   8.121   2.058
 9455TIP3    H228309   6.027   8.190   2.184
 9456TIP3   OH228310   5.934   7.785   2.079
 9456TIP3    H128311   5.882   7.831   2.011
 9456TIP3    H228312   5.906   7.692   2.065
 9457TIP3   OH228313   5.936   8.072   2.630
 9457TIP3    H128314   5.944   7.976   2.619
 9457TIP3    H228315   5.920   8.082   2.726
 9458TIP3   OH228316   4.567   8.114   3.377
 9458TIP3    H128317   4.562   8.111   3.280
 9458TIP3    H228318   4.664   8.127   3.391
 9459TIP3   OH228319   6.227   8.489   3.485
 9459TIP3    H128320   6.302   8.426   3.477
 9459TIP3    H228321   6.256   8.563   3.428
 9460TIP3   OH228322   6.413   8.293   3.497
 9460TIP3    H128323   6.339   8.235   3.526
 9460TIP3    H228324   6.488   8.230   3.507
 9461TIP3   OH228325   5.869   7.522   2.066
 9461TIP3    H128326   5.936   7.480   2.122
 9461TIP3    H228327   5.789   7.466   2.077
 9462TIP3   OH228328   5.933   7.799   2.515
 9462TIP3    H128329   5.959   7.707   2.507
 9462TIP3    H228330   5.986   7.840   2.443
 9463TIP3   OH228331   6.088   7.965   3.018
 9463TIP3    H128332   6.175   7.965   2.970
 9463TIP3    H228333   6.113   8.031   3.084
 9464TIP3   OH228334   4.783   7.824   4.050
 9464TIP3    H128335   4.881   7.817   4.057
 9464TIP3    H228336   4.757   7.736   4.085
 9465TIP3   OH228337   4.810   7.555   3.332
 9465TIP3    H128338   4.854   7.471   3.364
 9465TIP3    H228339   4.761   7.581   3.416
 9466TIP3   OH228340   4.553   7.775   3.447
 9466TIP3    H128341   4.550   7.792   3.352
 9466TIP3    H228342   4.573   7.864   3.483
 9467TIP3   OH228343   6.461   7.847   3.593
 9467TIP3    H128344   6.434   7.857   3.686
 9467TIP3    H228345   6.466   7.750   3.587
 9468TIP3   OH228346   6.125   7.462   2.198
 9468TIP3    H128347   6.160   7.403   2.128
 9468TIP3    H228348   6.180   7.543   2.188
 9469TIP3   OH228349   4.522   7.321   2.973
 9469TIP3    H128350   4.432   7.285   2.986
 9469TIP3    H228351   4.516   7.360   2.884
 9470TIP3   OH228352   4.747   7.371   3.764
 9470TIP3    H128353   4.698   7.360   3.847
 9470TIP3    H228354   4.679   7.412   3.707
 9471TIP3   OH228355   6.380   7.575   3.456
 9471TIP3    H128356   6.296   7.542   3.490
 9471TIP3    H228357   6.439   7.501   3.479
 9472TIP3   OH228358   5.586   7.504   3.114
 9472TIP3    H128359   5.543   7.432   3.164
 9472TIP3    H228360   5.655   7.456   3.064
 9473TIP3   OH228361   6.112   7.386   3.000
 9473TIP3    H128362   6.148   7.474   2.983
 9473TIP3    H228363   6.016   7.401   2.998
 9474TIP3   OH228364   4.833   7.219   3.122
 9474TIP3    H128365   4.742   7.180   3.130
 9474TIP3    H228366   4.884   7.135   3.116
 9475TIP3   OH228367   4.622   7.088   2.766
 9475TIP3    H128368   4.652   7.145   2.693
 9475TIP3    H228369   4.597   7.152   2.834
 9476TIP3   OH228370   5.285   7.253   3.008
 9476TIP3    H128371   5.346   7.292   2.943
 9476TIP3    H228372   5.327   7.275   3.093
 9477TIP3   OH228373   5.827   7.396   2.986
 9477TIP3    H128374   5.826   7.351   2.901
 9477TIP3    H228375   5.816   7.319   3.048
 9478TIP3   OH228376   5.853   7.315   2.545
 9478TIP3    H128377   5.772   7.365   2.568
 9478TIP3    H228378   5.836   7.231   2.593
 9479TIP3   OH228379   4.744   7.245   2.532
 9479TIP3    H128380   4.790   7.180   2.476
 9479TIP3    H228381   4.819   7.297   2.568
 9480TIP3   OH228382   5.251   7.423   2.631
 9480TIP3    H128383   5.308   7.374   2.692
 9480TIP3    H228384   5.273   7.516   2.657
 9481TIP3   OH228385   5.044   7.499   4.016
 9481TIP3    H128386   5.007   7.427   4.070
 9481TIP3    H228387   5.137   7.496   4.045
 9482TIP3   OH228388   5.294   7.493   4.134
 9482TIP3    H128389   5.380   7.464   4.100
 9482TIP3    H228390   5.277   7.425   4.202
 9483TIP3   OH228391   6.131   7.558   3.922
 9483TIP3    H128392   6.131   7.528   4.016
 9483TIP3    H228393   6.226   7.545   3.902
 9484TIP3   OH228394   6.610   8.364   2.914
 9484TIP3    H128395   6.666   8.327   2.984
 9484TIP3    H228396   6.677   8.404   2.853
 9485TIP3   OH228397   6.288   7.970   2.436
 9485TIP3    H128398   6.253   8.059   2.457
 9485TIP3    H228399   6.217   7.936   2.379
 9486TIP3   OH228400   6.365   8.277   2.611
 9486TIP3    H128401   6.413   8.200   2.648
 9486TIP3    H228402   6.430   8.311   2.548
 9487TIP3   OH228403   6.847   7.863   2.608
 9487TIP3    H128404   6.840   7.919   2.529
 9487TIP3    H228405   6.820   7.778   2.570
 9488TIP3   OH228406   6.503   8.068   2.717
 9488TIP3    H128407   6.586   8.052   2.766
 9488TIP3    H228408   6.517   8.008   2.640
 9489TIP3   OH228409   6.858   7.848   3.047
 9489TIP3    H128410   6.802   7.885   2.977
 9489TIP3    H228411   6.802   7.865   3.126
 9490TIP3   OH228412   6.729   7.960   2.831
 9490TIP3    H128413   6.789   8.036   2.850
 9490TIP3    H228414   6.776   7.922   2.753
 9491TIP3   OH228415   6.193   8.478   2.189
 9491TIP3    H128416   6.172   8.506   2.098
 9491TIP3    H228417   6.238   8.557   2.221
 9492TIP3   OH228418   7.172   7.546   2.735
 9492TIP3    H128419   7.183   7.459   2.781
 9492TIP3    H228420   7.108   7.590   2.794
 9493TIP3   OH228421   6.726   8.497   3.186
 9493TIP3    H128422   6.715   8.586   3.221
 9493TIP3    H228423   6.635   8.462   3.200
 9494TIP3   OH228424   6.608   8.219   2.210
 9494TIP3    H128425   6.583   8.311   2.191
 9494TIP3    H228426   6.537   8.167   2.169
 9495TIP3   OH228427   6.383   8.633   3.113
 9495TIP3    H128428   6.329   8.608   3.038
 9495TIP3    H228429   6.425   8.550   3.140
 9496TIP3   OH228430   6.970   7.644   2.897
 9496TIP3    H128431   6.881   7.619   2.865
 9496TIP3    H228432   6.946   7.725   2.946
 9497TIP3   OH228433   7.499   7.717   3.111
 9497TIP3    H128434   7.529   7.754   3.196
 9497TIP3    H228435   7.402   7.717   3.123
 9498TIP3   OH228436   6.897   8.159   2.899
 9498TIP3    H128437   6.854   8.195   2.980
 9498TIP3    H228438   6.940   8.238   2.862
 9499TIP3   OH228439   6.776   8.033   2.394
 9499TIP3    H128440   6.693   8.002   2.437
 9499TIP3    H228441   6.739   8.097   2.330
 9500TIP3   OH228442   6.753   8.199   3.130
 9500TIP3    H128443   6.742   8.265   3.199
 9500TIP3    H228444   6.742   8.115   3.178
 9501TIP3   OH228445   6.754   7.616   1.823
 9501TIP3    H128446   6.767   7.634   1.918
 9501TIP3    H228447   6.740   7.706   1.790
 9502TIP3   OH228448   6.295   7.671   2.225
 9502TIP3    H128449   6.339   7.705   2.144
 9502TIP3    H228450   6.245   7.752   2.248
 9503TIP3   OH228451   6.550   7.915   2.495
 9503TIP3    H128452   6.457   7.920   2.465
 9503TIP3    H228453   6.578   7.825   2.469
 9504TIP3   OH228454   6.578   7.973   1.997
 9504TIP3    H128455   6.547   7.916   1.924
 9504TIP3    H228456   6.671   7.985   1.970
 9505TIP3   OH228457   6.723   7.676   2.447
 9505TIP3    H128458   6.699   7.598   2.499
 9505TIP3    H228459   6.781   7.637   2.379
 9506TIP3   OH228460   6.479   8.415   3.256
 9506TIP3    H128461   6.488   8.393   3.351
 9506TIP3    H228462   6.406   8.356   3.229
 9507TIP3   OH228463   6.271   8.100   1.964
 9507TIP3    H128464   6.313   8.186   1.977
 9507TIP3    H228465   6.194   8.107   2.025
 9508TIP3   OH228466   6.721   7.929   3.269
 9508TIP3    H128467   6.629   7.922   3.298
 9508TIP3    H228468   6.766   7.876   3.337
 9509TIP3   OH228469   6.729   7.655   2.106
 9509TIP3    H128470   6.717   7.749   2.122
 9509TIP3    H228471   6.826   7.646   2.122
 9510TIP3   OH228472   6.308   7.824   1.993
 9510TIP3    H128473   6.335   7.917   1.996
 9510TIP3    H228474   6.226   7.830   1.941
 9511TIP3   OH228475   6.708   7.566   2.857
 9511TIP3    H128476   6.686   7.529   2.769
 9511TIP3    H228477   6.704   7.487   2.915
 9512TIP3   OH228478   6.560   8.716   3.479
 9512TIP3    H128479   6.594   8.625   3.480
 9512TIP3    H228480   6.471   8.705   3.439
 9513TIP3   OH228481   6.681   8.468   3.493
 9513TIP3    H128482   6.751   8.401   3.485
 9513TIP3    H228483   6.698   8.500   3.585
 9514TIP3   OH228484   7.088   8.154   3.277
 9514TIP3    H128485   7.122   8.067   3.252
 9514TIP3    H228486   7.047   8.184   3.196
 9515TIP3   OH228487   7.104   7.956   3.057
 9515TIP3    H128488   7.082   7.985   2.966
 9515TIP3    H228489   7.018   7.918   3.082
 9516TIP3   OH228490   6.991   8.249   3.515
 9516TIP3    H128491   6.925   8.178   3.535
 9516TIP3    H228492   7.026   8.220   3.428
 9517TIP3   OH228493   7.227   7.696   3.165
 9517TIP3    H128494   7.175   7.768   3.127
 9517TIP3    H228495   7.167   7.619   3.151
 9518TIP3   OH228496   6.837   8.026   3.566
 9518TIP3    H128497   6.846   7.933   3.536
 9518TIP3    H228498   6.872   8.018   3.658
 9519TIP3   OH228499   7.348   7.687   3.412
 9519TIP3    H128500   7.421   7.624   3.399
 9519TIP3    H228501   7.301   7.680   3.326
 9520TIP3   OH228502   7.409   7.893   3.584
 9520TIP3    H128503   7.391   7.830   3.511
 9520TIP3    H228504   7.344   7.964   3.568
 9521TIP3   OH228505   6.120   8.477   1.887
 9521TIP3    H128506   6.190   8.528   1.843
 9521TIP3    H228507   6.110   8.400   1.826
 9522TIP3   OH228508   6.350   8.405   2.860
 9522TIP3    H128509   6.350   8.364   2.771
 9522TIP3    H228510   6.446   8.398   2.880
 9523TIP3   OH228511   6.576   8.080   3.508
 9523TIP3    H128512   6.671   8.074   3.531
 9523TIP3    H228513   6.543   7.996   3.549
 9524TIP3   OH228514   6.527   7.776   2.903
 9524TIP3    H128515   6.586   7.698   2.893
 9524TIP3    H228516   6.586   7.847   2.873
 9525TIP3   OH228517   6.330   8.048   2.933
 9525TIP3    H128518   6.391   8.047   2.856
 9525TIP3    H228519   6.357   8.129   2.979
 9526TIP3   OH228520   6.546   7.639   3.249
 9526TIP3    H128521   6.489   7.626   3.328
 9526TIP3    H228522   6.478   7.670   3.186
 9527TIP3   OH228523   6.635   7.460   2.606
 9527TIP3    H128524   6.549   7.418   2.622
 9527TIP3    H228525   6.694   7.381   2.604
 9528TIP3   OH228526   6.420   7.365   2.252
 9528TIP3    H128527   6.478   7.364   2.174
 9528TIP3    H228528   6.386   7.455   2.239
 9529TIP3   OH228529   7.052   7.498   2.493
 9529TIP3    H128530   7.122   7.506   2.428
 9529TIP3    H228531   7.097   7.524   2.576
 9530TIP3   OH228532   6.531   7.481   2.022
 9530TIP3    H128533   6.584   7.433   1.955
 9530TIP3    H228534   6.598   7.544   2.056
 9531TIP3   OH228535   6.999   7.692   2.125
 9531TIP3    H128536   7.077   7.639   2.147
 9531TIP3    H228537   7.034   7.735   2.044
 9532TIP3   OH228538   6.844   7.759   3.485
 9532TIP3    H128539   6.789   7.709   3.548
 9532TIP3    H228540   6.934   7.748   3.524
 9533TIP3   OH228541   7.084   7.734   3.623
 9533TIP3    H128542   7.173   7.745   3.583
 9533TIP3    H228543   7.099   7.657   3.680
 9534TIP3   OH228544   2.264   0.954   7.520
 9534TIP3    H128545   2.288   0.868   7.557
 9534TIP3    H228546   2.345   1.006   7.534
 9535TIP3   OH228547   1.928   1.397   7.540
 9535TIP3    H128548   1.994   1.342   7.491
 9535TIP3    H228549   1.920   1.346   7.621
 9536TIP3   OH228550   1.950   0.891   7.326
 9536TIP3    H128551   1.890   0.848   7.264
 9536TIP3    H228552   1.923   0.986   7.317
 9537TIP3   OH228553   2.100   1.246   7.402
 9537TIP3    H128554   2.128   1.159   7.366
 9537TIP3    H228555   2.152   1.306   7.344
 9538TIP3   OH228556   2.198   1.022   7.263
 9538TIP3    H128557   2.144   0.947   7.235
 9538TIP3    H228558   2.225   0.991   7.352
 9539TIP3   OH228559   2.208   0.601   7.272
 9539TIP3    H128560   2.147   0.591   7.346
 9539TIP3    H228561   2.287   0.554   7.305
 9540TIP3   OH228562   1.840   1.147   7.305
 9540TIP3    H128563   1.870   1.202   7.378
 9540TIP3    H228564   1.752   1.184   7.286
 9541TIP3   OH228565   2.364   1.042   6.682
 9541TIP3    H128566   2.368   1.139   6.675
 9541TIP3    H228567   2.453   1.017   6.652
 9542TIP3   OH228568   1.676   1.362   7.166
 9542TIP3    H128569   1.641   1.361   7.075
 9542TIP3    H228570   1.654   1.454   7.192
 9543TIP3   OH228571   1.891   1.265   6.797
 9543TIP3    H128572   1.950   1.192   6.769
 9543TIP3    H228573   1.913   1.276   6.891
 9544TIP3   OH228574   1.929   1.307   7.076
 9544TIP3    H128575   1.838   1.330   7.106
 9544TIP3    H228576   1.952   1.242   7.145
 9545TIP3   OH228577   2.112   0.502   6.821
 9545TIP3    H128578   2.092   0.450   6.742
 9545TIP3    H228579   2.204   0.527   6.808
 9546TIP3   OH228580   1.839   0.856   6.999
 9546TIP3    H128581   1.774   0.928   7.017
 9546TIP3    H228582   1.818   0.793   7.069
 9547TIP3   OH228583   2.620   0.308   7.026
 9547TIP3    H128584   2.556   0.250   6.978
 9547TIP3    H228585   2.591   0.395   6.990
 9548TIP3   OH228586   2.319   1.113   6.959
 9548TIP3    H128587   2.276   1.055   7.025
 9548TIP3    H228588   2.313   1.061   6.877
 9549TIP3   OH228589   2.066   0.853   6.850
 9549TIP3    H128590   2.123   0.815   6.922
 9549TIP3    H228591   1.981   0.854   6.900
 9550TIP3   OH228592   2.397   1.316   6.669
 9550TIP3    H128593   2.424   1.388   6.609
 9550TIP3    H228594   2.319   1.360   6.709
 9551TIP3   OH228595   2.226   0.777   7.059
 9551TIP3    H128596   2.207   0.714   7.131
 9551TIP3    H228597   2.323   0.774   7.057
 9552TIP3   OH228598   1.645   1.037   7.059
 9552TIP3    H128599   1.579   1.044   7.129
 9552TIP3    H228600   1.644   1.128   7.022
 9553TIP3   OH228601   1.585   0.997   6.771
 9553TIP3    H128602   1.597   0.969   6.865
 9553TIP3    H228603   1.666   0.961   6.729
 9554TIP3   OH228604   2.031   1.060   6.674
 9554TIP3    H128605   2.063   0.991   6.736
 9554TIP3    H228606   2.094   1.054   6.600
 9555TIP3   OH228607   2.364   0.569   6.710
 9555TIP3    H128608   2.347   0.527   6.623
 9555TIP3    H228609   2.326   0.658   6.692
 9556TIP3   OH228610   1.360   1.319   6.936
 9556TIP3    H128611   1.457   1.312   6.933
 9556TIP3    H228612   1.344   1.365   6.851
 9557TIP3   OH228613   2.514   0.772   7.046
 9557TIP3    H128614   2.545   0.852   7.091
 9557TIP3    H228615   2.539   0.706   7.115
 9558TIP3   OH228616   2.614   0.622   7.241
 9558TIP3    H128617   2.554   0.594   7.313
 9558TIP3    H228618   2.687   0.667   7.288
 9559TIP3   OH228619   2.558   0.540   6.894
 9559TIP3    H128620   2.484   0.543   6.828
 9559TIP3    H228621   2.535   0.619   6.947
 9560TIP3   OH228622   2.442   0.198   6.840
 9560TIP3    H128623   2.389   0.259   6.788
 9560TIP3    H228624   2.392   0.117   6.831
 9561TIP3   OH228625   2.432   0.485   7.405
 9561TIP3    H128626   2.462   0.394   7.390
 9561TIP3    H228627   2.451   0.499   7.499
 9562TIP3   OH228628   2.221   1.431   7.239
 9562TIP3    H128629   2.251   1.394   7.153
 9562TIP3    H228630   2.224   1.526   7.221
 9563TIP3   OH228631   1.626   1.264   6.905
 9563TIP3    H128632   1.697   1.320   6.867
 9563TIP3    H228633   1.609   1.204   6.831
 9564TIP3   OH228634   2.341   1.381   6.994
 9564TIP3    H128635   2.336   1.283   6.983
 9564TIP3    H228636   2.289   1.410   6.916
 9565TIP3   OH228637   3.835   0.896   6.944
 9565TIP3    H128638   3.806   0.988   6.927
 9565TIP3    H228639   3.757   0.848   6.911
 9566TIP3   OH228640   3.822   0.901   7.330
 9566TIP3    H128641   3.854   0.883   7.422
 9566TIP3    H228642   3.780   0.815   7.310
 9567TIP3   OH228643   3.143   0.837   7.657
 9567TIP3    H128644   3.119   0.788   7.738
 9567TIP3    H228645   3.235   0.808   7.639
 9568TIP3   OH228646   4.077   1.201   7.017
 9568TIP3    H128647   4.064   1.133   7.086
 9568TIP3    H228648   4.109   1.277   7.069
 9569TIP3   OH228649   3.111   1.216   7.420
 9569TIP3    H128650   3.089   1.120   7.417
 9569TIP3    H228651   3.207   1.212   7.417
 9570TIP3   OH228652   2.799   0.403   7.222
 9570TIP3    H128653   2.770   0.495   7.237
 9570TIP3    H228654   2.727   0.370   7.166
 9571TIP3   OH228655   2.874   0.680   7.316
 9571TIP3    H128656   2.904   0.618   7.387
 9571TIP3    H228657   2.913   0.765   7.347
 9572TIP3   OH228658   3.729   1.662   7.030
 9572TIP3    H128659   3.771   1.590   6.977
 9572TIP3    H228660   3.717   1.620   7.115
 9573TIP3   OH228661   3.633   1.124   7.376
 9573TIP3    H128662   3.674   1.044   7.339
 9573TIP3    H228663   3.716   1.171   7.402
 9574TIP3   OH228664   4.067   0.628   7.418
 9574TIP3    H128665   4.039   0.548   7.465
 9574TIP3    H228666   4.014   0.625   7.336
 9575TIP3   OH228667   3.369   0.246   7.337
 9575TIP3    H128668   3.342   0.333   7.301
 9575TIP3    H228669   3.284   0.200   7.339
 9576TIP3   OH228670   4.045   0.421   7.044
 9576TIP3    H128671   4.102   0.362   7.098
 9576TIP3    H228672   4.080   0.402   6.956
 9577TIP3   OH228673   2.973   0.489   7.484
 9577TIP3    H128674   3.057   0.483   7.532
 9577TIP3    H228675   2.991   0.424   7.414
 9578TIP3   OH228676   3.446   0.689   7.281
 9578TIP3    H128677   3.540   0.664   7.297
 9578TIP3    H228678   3.407   0.602   7.257
 9579TIP3   OH228679   4.705   0.710   7.546
 9579TIP3    H128680   4.617   0.743   7.574
 9579TIP3    H228681   4.751   0.716   7.632
 9580TIP3   OH228682   3.723   1.120   6.813
 9580TIP3    H128683   3.680   1.104   6.727
 9580TIP3    H228684   3.677   1.201   6.842
 9581TIP3   OH228685   3.495   1.056   7.603
 9581TIP3    H128686   3.429   1.123   7.632
 9581TIP3    H228687   3.539   1.100   7.528
 9582TIP3   OH228688   3.236   0.435   7.536
 9582TIP3    H128689   3.305   0.487   7.581
 9582TIP3    H228690   3.283   0.351   7.524
 9583TIP3   OH228691   3.306   1.232   7.705
 9583TIP3    H128692   3.274   1.309   7.655
 9583TIP3    H228693   3.238   1.224   7.775
 9584TIP3   OH228694   2.742   0.953   6.864
 9584TIP3    H128695   2.652   0.931   6.895
 9584TIP3    H228696   2.773   1.010   6.938
 9585TIP3   OH228697   4.144   1.448   7.173
 9585TIP3    H128698   4.054   1.437   7.213
 9585TIP3    H228699   4.133   1.535   7.130
 9586TIP3   OH228700   3.842   1.488   6.845
 9586TIP3    H128701   3.894   1.406   6.829
 9586TIP3    H228702   3.905   1.554   6.807
 9587TIP3   OH228703   3.989   1.272   6.765
 9587TIP3    H128704   3.941   1.193   6.736
 9587TIP3    H228705   4.029   1.240   6.849
 9588TIP3   OH228706   4.372   1.349   7.526
 9588TIP3    H128707   4.362   1.267   7.472
 9588TIP3    H228708   4.356   1.419   7.461
 9589TIP3   OH228709   3.664   0.754   6.777
 9589TIP3    H128710   3.582   0.804   6.757
 9589TIP3    H228711   3.705   0.746   6.689
 9590TIP3   OH228712   3.615   0.537   6.496
 9590TIP3    H128713   3.689   0.585   6.536
 9590TIP3    H228714   3.662   0.467   6.447
 9591TIP3   OH228715   4.010   0.833   6.745
 9591TIP3    H128716   3.955   0.856   6.824
 9591TIP3    H228717   4.096   0.814   6.790
 9592TIP3   OH228718   3.251   0.826   7.158
 9592TIP3    H128719   3.215   0.758   7.098
 9592TIP3    H228720   3.324   0.778   7.201
 9593TIP3   OH228721   3.383   1.247   7.308
 9593TIP3    H128722   3.357   1.193   7.232
 9593TIP3    H228723   3.470   1.209   7.330
 9594TIP3   OH228724   3.390   0.812   7.525
 9594TIP3    H128725   3.410   0.787   7.432
 9594TIP3    H228726   3.427   0.903   7.532
 9595TIP3   OH228727   3.905   1.439   7.297
 9595TIP3    H128728   3.890   1.516   7.355
 9595TIP3    H228729   3.889   1.363   7.356
 9596TIP3   OH228730   3.523   1.379   7.799
 9596TIP3    H128731   3.464   1.452   7.828
 9596TIP3    H228732   3.456   1.315   7.768
 9597TIP3   OH228733   3.849   0.689   6.575
 9597TIP3    H128734   3.906   0.752   6.624
 9597TIP3    H228735   3.877   0.708   6.482
 9598TIP3   OH228736   3.597   1.365   6.845
 9598TIP3    H128737   3.680   1.416   6.856
 9598TIP3    H228738   3.536   1.432   6.812
 9599TIP3   OH228739   3.326   1.561   7.828
 9599TIP3    H128740   3.284   1.641   7.799
 9599TIP3    H228741   3.253   1.501   7.856
 9600TIP3   OH228742   3.095   0.667   6.963
 9600TIP3    H128743   3.017   0.713   6.999
 9600TIP3    H228744   3.085   0.578   7.000
 9601TIP3   OH228745   4.167   1.295   6.176
 9601TIP3    H128746   4.174   1.392   6.159
 9601TIP3    H228747   4.259   1.267   6.162
 9602TIP3   OH228748   2.749   1.288   7.496
 9602TIP3    H128749   2.719   1.195   7.469
 9602TIP3    H228750   2.772   1.267   7.589
 9603TIP3   OH228751   4.604   1.706   7.570
 9603TIP3    H128752   4.608   1.609   7.583
 9603TIP3    H228753   4.521   1.727   7.616
 9604TIP3   OH228754   3.736   1.493   7.691
 9604TIP3    H128755   3.717   1.587   7.713
 9604TIP3    H228756   3.657   1.449   7.729
 9605TIP3   OH228757   3.478   1.612   6.656
 9605TIP3    H128758   3.432   1.598   6.572
 9605TIP3    H228759   3.445   1.699   6.684
 9606TIP3   OH228760   2.915   1.462   7.039
 9606TIP3    H128761   2.960   1.452   7.126
 9606TIP3    H228762   2.871   1.375   7.030
 9607TIP3   OH228763   3.676   1.517   6.292
 9607TIP3    H128764   3.734   1.447   6.256
 9607TIP3    H228765   3.712   1.528   6.383
 9608TIP3   OH228766   3.729   1.566   6.562
 9608TIP3    H128767   3.641   1.575   6.604
 9608TIP3    H228768   3.781   1.530   6.635
 9609TIP3   OH228769   4.286   0.594   7.784
 9609TIP3    H128770   4.278   0.626   7.875
 9609TIP3    H228771   4.289   0.679   7.737
 9610TIP3   OH228772   3.935   0.719   6.321
 9610TIP3    H128773   3.891   0.707   6.234
 9610TIP3    H228774   4.011   0.774   6.295
 9611TIP3   OH228775   3.435   0.581   7.655
 9611TIP3    H128776   3.443   0.613   7.746
 9611TIP3    H228777   3.426   0.665   7.605
 9612TIP3   OH228778   3.303   0.471   7.189
 9612TIP3    H128779   3.211   0.440   7.205
 9612TIP3    H228780   3.320   0.436   7.098
 9613TIP3   OH228781   3.792   0.557   6.919
 9613TIP3    H128782   3.745   0.629   6.871
 9613TIP3    H228783   3.858   0.528   6.853
 9614TIP3   OH228784   3.933   0.627   7.177
 9614TIP3    H128785   3.873   0.668   7.112
 9614TIP3    H228786   3.963   0.550   7.123
 9615TIP3   OH228787   2.886   0.225   7.006
 9615TIP3    H128788   2.881   0.186   6.917
 9615TIP3    H228789   2.793   0.255   7.018
 9616TIP3   OH228790   3.923   0.814   7.567
 9616TIP3    H128791   3.995   0.766   7.522
 9616TIP3    H228792   3.926   0.771   7.655
 9617TIP3   OH228793   3.061   0.343   7.231
 9617TIP3    H128794   2.969   0.377   7.225
 9617TIP3    H228795   3.047   0.258   7.186
 9618TIP3   OH228796   3.352   0.367   6.942
 9618TIP3    H128797   3.439   0.344   6.904
 9618TIP3    H228798   3.292   0.354   6.865
 9619TIP3   OH228799   3.188   0.344   6.717
 9619TIP3    H128800   3.114   0.329   6.655
 9619TIP3    H228801   3.246   0.397   6.657
 9620TIP3   OH228802   4.303   2.054   7.664
 9620TIP3    H128803   4.304   2.080   7.570
 9620TIP3    H228804   4.384   2.099   7.697
 9621TIP3   OH228805   3.702   0.626   7.343
 9621TIP3    H128806   3.784   0.592   7.304
 9621TIP3    H228807   3.709   0.594   7.437
 9622TIP3   OH228808   3.734   0.541   7.599
 9622TIP3    H128809   3.648   0.504   7.627
 9622TIP3    H228810   3.767   0.579   7.682
 9623TIP3   OH228811   3.434   0.901   6.723
 9623TIP3    H128812   3.364   0.832   6.716
 9623TIP3    H228813   3.415   0.937   6.813
 9624TIP3   OH228814   4.338   1.133   7.359
 9624TIP3    H128815   4.369   1.179   7.279
 9624TIP3    H228816   4.253   1.095   7.329
 9625TIP3   OH228817   3.895   0.275   6.540
 9625TIP3    H128818   3.827   0.220   6.584
 9625TIP3    H228819   3.915   0.339   6.612
 9626TIP3   OH228820   3.819   1.218   7.711
 9626TIP3    H128821   3.845   1.177   7.794
 9626TIP3    H228822   3.787   1.306   7.738
 9627TIP3   OH228823   3.965   0.479   6.714
 9627TIP3    H128824   4.062   0.493   6.722
 9627TIP3    H228825   3.937   0.557   6.662
 9628TIP3   OH228826   3.120   0.944   7.393
 9628TIP3    H128827   3.166   0.885   7.331
 9628TIP3    H228828   3.124   0.895   7.478
 9629TIP3   OH228829   3.579   1.053   6.552
 9629TIP3    H128830   3.527   1.137   6.556
 9629TIP3    H228831   3.528   0.996   6.613
 9630TIP3   OH228832   3.999   1.497   7.620
 9630TIP3    H128833   3.904   1.473   7.626
 9630TIP3    H228834   4.005   1.561   7.692
 9631TIP3   OH228835   4.400   0.554   6.515
 9631TIP3    H128836   4.340   0.504   6.456
 9631TIP3    H228837   4.390   0.645   6.477
 9632TIP3   OH228838   4.625   1.429   7.604
 9632TIP3    H128839   4.530   1.403   7.614
 9632TIP3    H228840   4.645   1.382   7.521
 9633TIP3   OH228841   4.104   1.373   6.441
 9633TIP3    H128842   4.074   1.305   6.503
 9633TIP3    H228843   4.116   1.325   6.357
 9634TIP3   OH228844   4.093   1.008   7.258
 9634TIP3    H128845   4.001   0.982   7.277
 9634TIP3    H228846   4.129   0.924   7.222
 9635TIP3   OH228847   3.213   1.223   7.011
 9635TIP3    H128848   3.213   1.310   6.968
 9635TIP3    H228849   3.136   1.230   7.070
 9636TIP3   OH228850   2.779   0.524   6.740
 9636TIP3    H128851   2.832   0.592   6.783
 9636TIP3    H228852   2.697   0.528   6.794
 9637TIP3   OH228853   3.352   0.992   6.961
 9637TIP3    H128854   3.318   1.080   6.985
 9637TIP3    H228855   3.326   0.939   7.039
 9638TIP3   OH228856   3.497   1.575   7.481
 9638TIP3    H128857   3.542   1.648   7.435
 9638TIP3    H228858   3.569   1.538   7.534
 9639TIP3   OH228859   3.143   1.468   6.877
 9639TIP3    H128860   3.059   1.480   6.926
 9639TIP3    H228861   3.178   1.560   6.881
 9640TIP3   OH228862   3.887   1.209   7.451
 9640TIP3    H128863   3.870   1.207   7.549
 9640TIP3    H228864   3.968   1.157   7.448
 9641TIP3   OH228865   3.860   1.101   6.342
 9641TIP3    H128866   3.916   1.076   6.419
 9641TIP3    H228867   3.773   1.075   6.373
 9642TIP3   OH228868   4.128   1.742   7.510
 9642TIP3    H128869   4.050   1.683   7.498
 9642TIP3    H228870   4.116   1.803   7.434
 9643TIP3   OH228871   4.196   1.571   6.157
 9643TIP3    H128872   4.230   1.644   6.103
 9643TIP3    H228873   4.116   1.615   6.194
 9644TIP3   OH228874   4.023   1.029   6.549
 9644TIP3    H128875   4.012   0.966   6.624
 9644TIP3    H228876   4.120   1.028   6.541
 9645TIP3   OH228877   2.956   1.466   7.651
 9645TIP3    H128878   2.992   1.381   7.623
 9645TIP3    H228879   2.905   1.444   7.731
 9646TIP3   OH228880   3.228   1.068   6.364
 9646TIP3    H128881   3.217   0.984   6.314
 9646TIP3    H228882   3.308   1.048   6.414
 9647TIP3   OH228883   3.418   1.270   6.555
 9647TIP3    H128884   3.331   1.292   6.592
 9647TIP3    H228885   3.440   1.355   6.511
 9648TIP3   OH228886   3.648   0.327   6.934
 9648TIP3    H128887   3.692   0.415   6.938
 9648TIP3    H228888   3.629   0.309   7.027
 9649TIP3   OH228889   3.918   0.687   7.810
 9649TIP3    H128890   3.933   0.753   7.883
 9649TIP3    H228891   3.940   0.606   7.857
 9650TIP3   OH228892   3.159   1.337   6.633
 9650TIP3    H128893   3.141   1.409   6.568
 9650TIP3    H228894   3.157   1.389   6.717
 9651TIP3   OH228895   4.185   0.751   7.154
 9651TIP3    H128896   4.097   0.713   7.170
 9651TIP3    H228897   4.241   0.697   7.213
 9652TIP3   OH228898   2.834   0.254   6.702
 9652TIP3    H128899   2.818   0.348   6.727
 9652TIP3    H228900   2.755   0.210   6.735
 9653TIP3   OH228901   4.152   1.719   7.098
 9653TIP3    H128902   4.110   1.765   7.022
 9653TIP3    H228903   4.246   1.735   7.077
 9654TIP3   OH228904   2.774   1.222   7.007
 9654TIP3    H128905   2.706   1.212   7.075
 9654TIP3    H228906   2.721   1.256   6.930
 9655TIP3   OH228907   3.381   1.280   6.246
 9655TIP3    H128908   3.330   1.208   6.287
 9655TIP3    H228909   3.458   1.232   6.211
 9656TIP3   OH228910   4.057   1.597   7.889
 9656TIP3    H128911   4.107   1.521   7.855
 9656TIP3    H228912   4.131   1.660   7.907
 9657TIP3   OH228913   3.820   1.319   6.165
 9657TIP3    H128914   3.862   1.254   6.224
 9657TIP3    H228915   3.876   1.315   6.085
 9658TIP3   OH228916   3.539   1.001   6.286
 9658TIP3    H128917   3.555   1.010   6.383
 9658TIP3    H228918   3.546   0.903   6.276
 9659TIP3   OH228919   4.137   1.257   7.655
 9659TIP3    H128920   4.228   1.276   7.624
 9659TIP3    H228921   4.089   1.336   7.626
 9660TIP3   OH228922   3.231   0.722   6.706
 9660TIP3    H128923   3.197   0.678   6.787
 9660TIP3    H228924   3.260   0.646   6.651
 9661TIP3   OH228925   3.335   0.511   6.546
 9661TIP3    H128926   3.309   0.513   6.451
 9661TIP3    H228927   3.432   0.510   6.538
 9662TIP3   OH228928   4.162   0.825   6.199
 9662TIP3    H128929   4.141   0.785   6.113
 9662TIP3    H228930   4.129   0.917   6.181
 9663TIP3   OH228931   3.661   0.889   7.753
 9663TIP3    H128932   3.745   0.870   7.709
 9663TIP3    H228933   3.620   0.953   7.691
 9664TIP3   OH228934   3.151   1.550   6.441
 9664TIP3    H128935   3.247   1.546   6.422
 9664TIP3    H228936   3.122   1.607   6.368
 9665TIP3   OH228937   2.618   0.951   6.610
 9665TIP3    H128938   2.670   0.944   6.695
 9665TIP3    H228939   2.614   0.856   6.582
 9666TIP3   OH228940   2.550   1.545   7.061
 9666TIP3    H128941   2.481   1.487   7.022
 9666TIP3    H228942   2.586   1.488   7.130
 9667TIP3   OH228943   2.642   1.444   7.300
 9667TIP3    H128944   2.641   1.353   7.337
 9667TIP3    H228945   2.732   1.469   7.330
 9668TIP3   OH228946   4.410   1.799   7.063
 9668TIP3    H128947   4.433   1.833   7.151
 9668TIP3    H228948   4.472   1.848   7.006
 9669TIP3   OH228949   4.435   1.822   7.344
 9669TIP3    H128950   4.390   1.735   7.339
 9669TIP3    H228951   4.508   1.799   7.403
 9670TIP3   OH228952   4.479   1.505   7.890
 9670TIP3    H128953   4.431   1.492   7.972
 9670TIP3    H228954   4.530   1.587   7.907
 9671TIP3   OH228955   4.301   1.012   6.530
 9671TIP3    H128956   4.366   1.079   6.501
 9671TIP3    H228957   4.346   0.975   6.609
 9672TIP3   OH228958   4.428   0.879   6.733
 9672TIP3    H128959   4.360   0.844   6.795
 9672TIP3    H228960   4.491   0.922   6.793
 9673TIP3   OH228961   4.490   1.284   7.173
 9673TIP3    H128962   4.544   1.211   7.133
 9673TIP3    H228963   4.480   1.345   7.097
 9674TIP3   OH228964   4.310   1.573   7.360
 9674TIP3    H128965   4.235   1.606   7.413
 9674TIP3    H228966   4.263   1.525   7.288
 9675TIP3   OH228967   4.357   0.787   6.381
 9675TIP3    H128968   4.288   0.799   6.312
 9675TIP3    H228969   4.334   0.864   6.438
 9676TIP3   OH228970   4.237   0.425   6.324
 9676TIP3    H128971   4.233   0.507   6.271
 9676TIP3    H228972   4.144   0.397   6.321
 9677TIP3   OH228973   4.237   0.752   6.882
 9677TIP3    H128974   4.235   0.658   6.857
 9677TIP3    H228975   4.222   0.750   6.979
 9678TIP3   OH228976   4.238   0.502   6.747
 9678TIP3    H128977   4.263   0.422   6.799
 9678TIP3    H228978   4.307   0.504   6.678
 9679TIP3   OH228979   4.405   0.619   7.280
 9679TIP3    H128980   4.459   0.670   7.219
 9679TIP3    H228981   4.409   0.674   7.361
 9680TIP3   OH228982   4.437   0.808   7.474
 9680TIP3    H128983   4.447   0.821   7.572
 9680TIP3    H228984   4.407   0.897   7.451
 9681TIP3   OH228985   3.989   1.672   6.714
 9681TIP3    H128986   4.043   1.664   6.633
 9681TIP3    H228987   4.040   1.738   6.765
 9682TIP3   OH228988   3.259   1.473   7.578
 9682TIP3    H128989   3.206   1.552   7.554
 9682TIP3    H228990   3.348   1.506   7.555
 9683TIP3   OH228991   3.695   1.755   7.754
 9683TIP3    H128992   3.727   1.755   7.847
 9683TIP3    H228993   3.765   1.808   7.709
 9684TIP3   OH228994   3.890   1.904   7.639
 9684TIP3    H128995   3.961   1.863   7.589
 9684TIP3    H228996   3.942   1.965   7.697
 9685TIP3   OH228997   2.950   1.796   7.654
 9685TIP3    H128998   2.859   1.824   7.633
 9685TIP3    H228999   2.937   1.758   7.742
 9686TIP3   OH229000   3.186   1.743   7.526
 9686TIP3    H129001   3.099   1.759   7.570
 9686TIP3    H229002   3.166   1.775   7.436
 9687TIP3   OH229003   3.609   1.773   7.325
 9687TIP3    H129004   3.537   1.790   7.262
 9687TIP3    H229005   3.618   1.861   7.368
 9688TIP3   OH229006   3.876   1.710   7.383
 9688TIP3    H129007   3.782   1.727   7.361
 9688TIP3    H229008   3.920   1.781   7.334
 9689TIP3   OH229009   4.082   1.900   7.293
 9689TIP3    H129010   4.068   1.984   7.244
 9689TIP3    H229011   4.108   1.840   7.219
 9690TIP3   OH229012   2.861   1.568   7.407
 9690TIP3    H129013   2.883   1.543   7.500
 9690TIP3    H229014   2.931   1.516   7.361
 9691TIP3   OH229015   3.052   1.430   7.271
 9691TIP3    H129016   3.062   1.350   7.329
 9691TIP3    H229017   3.143   1.465   7.274
 9692TIP3   OH229018   3.320   1.520   7.275
 9692TIP3    H129019   3.346   1.425   7.273
 9692TIP3    H229020   3.374   1.547   7.352
 9693TIP3   OH229021   2.643   1.332   6.795
 9693TIP3    H129022   2.555   1.302   6.764
 9693TIP3    H229023   2.636   1.426   6.768
 9694TIP3   OH229024   3.419   1.511   6.392
 9694TIP3    H129025   3.506   1.536   6.354
 9694TIP3    H229026   3.396   1.437   6.330
 9695TIP3   OH229027   4.139   1.640   6.484
 9695TIP3    H129028   4.131   1.542   6.473
 9695TIP3    H229029   4.091   1.671   6.404
 9696TIP3   OH229030   2.719   1.356   6.439
 9696TIP3    H129031   2.716   1.381   6.533
 9696TIP3    H229032   2.805   1.308   6.432
 9697TIP3   OH229033   4.352   1.784   7.668
 9697TIP3    H129034   4.277   1.757   7.610
 9697TIP3    H229035   4.339   1.881   7.670
 9698TIP3   OH229036   5.627   1.151   6.434
 9698TIP3    H129037   5.596   1.242   6.414
 9698TIP3    H229038   5.555   1.100   6.394
 9699TIP3   OH229039   5.620   1.162   6.826
 9699TIP3    H129040   5.658   1.137   6.913
 9699TIP3    H229041   5.586   1.076   6.795
 9700TIP3   OH229042   4.934   1.031   7.230
 9700TIP3    H129043   5.012   1.060   7.283
 9700TIP3    H229044   4.959   1.072   7.145
 9701TIP3   OH229045   5.865   1.463   6.507
 9701TIP3    H129046   5.863   1.386   6.567
 9701TIP3    H229047   5.919   1.526   6.558
 9702TIP3   OH229048   4.901   1.455   6.898
 9702TIP3    H129049   4.890   1.358   6.903
 9702TIP3    H229050   4.997   1.463   6.908
 9703TIP3   OH229051   4.593   0.655   6.686
 9703TIP3    H129052   4.547   0.737   6.710
 9703TIP3    H229053   4.525   0.612   6.630
 9704TIP3   OH229054   4.656   0.960   6.860
 9704TIP3    H129055   4.693   0.877   6.899
 9704TIP3    H229056   4.727   0.988   6.801
 9705TIP3   OH229057   5.426   1.386   6.859
 9705TIP3    H129058   5.462   1.304   6.821
 9705TIP3    H229059   5.511   1.426   6.886
 9706TIP3   OH229060   5.841   0.881   6.911
 9706TIP3    H129061   5.867   0.793   6.941
 9706TIP3    H229062   5.807   0.866   6.821
 9707TIP3   OH229063   5.151   0.504   6.849
 9707TIP3    H129064   5.129   0.587   6.801
 9707TIP3    H229065   5.098   0.438   6.803
 9708TIP3   OH229066   5.834   0.652   6.535
 9708TIP3    H129067   5.892   0.608   6.601
 9708TIP3    H229068   5.895   0.653   6.459
 9709TIP3   OH229069   4.775   0.743   6.964
 9709TIP3    H129070   4.864   0.745   7.007
 9709TIP3    H229071   4.796   0.684   6.890
 9710TIP3   OH229072   5.242   0.943   6.774
 9710TIP3    H129073   5.338   0.921   6.783
 9710TIP3    H229074   5.206   0.856   6.744
 9711TIP3   OH229075   6.472   0.889   7.065
 9711TIP3    H129076   6.400   0.948   7.033
 9711TIP3    H229077   6.535   0.953   7.105
 9712TIP3   OH229078   5.505   1.370   6.310
 9712TIP3    H129079   5.476   1.361   6.218
 9712TIP3    H229080   5.463   1.454   6.336
 9713TIP3   OH229081   5.281   1.300   7.082
 9713TIP3    H129082   5.221   1.366   7.122
 9713TIP3    H229083   5.325   1.351   7.011
 9714TIP3   OH229084   5.029   0.714   7.045
 9714TIP3    H129085   5.106   0.752   7.091
 9714TIP3    H229086   5.063   0.625   7.028
 9715TIP3   OH229087   5.107   1.495   7.185
 9715TIP3    H129088   5.081   1.585   7.155
 9715TIP3    H229089   5.030   1.475   7.242
 9716TIP3   OH229090   4.498   1.187   6.422
 9716TIP3    H129091   4.458   1.214   6.337
 9716TIP3    H229092   4.530   1.273   6.457
 9717TIP3   OH229093   5.940   1.705   6.675
 9717TIP3    H129094   5.850   1.695   6.707
 9717TIP3    H229095   5.935   1.787   6.622
 9718TIP3   OH229096   5.630   1.754   6.336
 9718TIP3    H129097   5.679   1.670   6.318
 9718TIP3    H229098   5.694   1.818   6.297
 9719TIP3   OH229099   5.771   1.536   6.257
 9719TIP3    H129100   5.761   1.456   6.204
 9719TIP3    H229101   5.807   1.501   6.341
 9720TIP3   OH229102   6.162   1.612   7.007
 9720TIP3    H129103   6.154   1.534   6.948
 9720TIP3    H229104   6.154   1.686   6.944
 9721TIP3   OH229105   5.459   1.013   6.264
 9721TIP3    H129106   5.379   1.064   6.242
 9721TIP3    H229107   5.502   1.003   6.177
 9722TIP3   OH229108   5.413   0.790   5.985
 9722TIP3    H129109   5.486   0.842   6.024
 9722TIP3    H229110   5.464   0.728   5.930
 9723TIP3   OH229111   6.360   1.253   6.854
 9723TIP3    H129112   6.277   1.306   6.857
 9723TIP3    H229113   6.392   1.276   6.764
 9724TIP3   OH229114   5.804   1.093   6.232
 9724TIP3    H129115   5.751   1.113   6.312
 9724TIP3    H229116   5.890   1.070   6.274
 9725TIP3   OH229117   6.039   1.126   7.161
 9725TIP3    H129118   6.038   1.206   7.217
 9725TIP3    H229119   5.954   1.134   7.115
 9726TIP3   OH229120   5.039   1.089   6.653
 9726TIP3    H129121   4.997   1.029   6.587
 9726TIP3    H229122   5.113   1.034   6.687
 9727TIP3   OH229123   5.179   1.509   6.791
 9727TIP3    H129124   5.149   1.470   6.708
 9727TIP3    H229125   5.263   1.460   6.809
 9728TIP3   OH229126   5.159   1.059   7.010
 9728TIP3    H129127   5.199   1.024   6.927
 9728TIP3    H229128   5.213   1.140   7.027
 9729TIP3   OH229129   5.316   1.616   7.326
 9729TIP3    H129130   5.257   1.673   7.380
 9729TIP3    H229131   5.249   1.559   7.282
 9730TIP3   OH229132   5.642   0.947   6.063
 9730TIP3    H129133   5.701   1.009   6.111
 9730TIP3    H229134   5.670   0.966   5.970
 9731TIP3   OH229135   5.062   1.191   7.427
 9731TIP3    H129136   5.085   1.263   7.490
 9731TIP3    H229137   4.966   1.201   7.429
 9732TIP3   OH229138   5.388   1.632   6.357
 9732TIP3    H129139   5.473   1.682   6.355
 9732TIP3    H229140   5.334   1.685   6.295
 9733TIP3   OH229141   5.106   1.775   7.420
 9733TIP3    H129142   5.066   1.779   7.332
 9733TIP3    H229143   5.028   1.757   7.477
 9734TIP3   OH229144   4.903   0.932   6.462
 9734TIP3    H129145   4.835   0.974   6.406
 9734TIP3    H229146   4.872   0.841   6.466
 9735TIP3   OH229147   5.964   1.554   5.664
 9735TIP3    H129148   5.973   1.650   5.645
 9735TIP3    H229149   6.056   1.523   5.650
 9736TIP3   OH229150   4.680   1.296   7.371
 9736TIP3    H129151   4.614   1.313   7.299
 9736TIP3    H229152   4.661   1.202   7.386
 9737TIP3   OH229153   4.539   1.512   6.989
 9737TIP3    H129154   4.636   1.508   6.991
 9737TIP3    H229155   4.521   1.586   7.048
 9738TIP3   OH229156   6.404   1.959   7.056
 9738TIP3    H129157   6.405   1.863   7.076
 9738TIP3    H229158   6.322   1.985   7.103
 9739TIP3   OH229159   5.493   1.755   7.175
 9739TIP3    H129160   5.503   1.841   7.222
 9739TIP3    H229161   5.435   1.706   7.238
 9740TIP3   OH229162   5.278   1.868   6.144
 9740TIP3    H129163   5.230   1.848   6.062
 9740TIP3    H229164   5.242   1.955   6.170
 9741TIP3   OH229165   4.710   1.719   6.527
 9741TIP3    H129166   4.755   1.710   6.614
 9741TIP3    H229167   4.659   1.636   6.524
 9742TIP3   OH229168   5.472   1.773   5.778
 9742TIP3    H129169   5.529   1.702   5.742
 9742TIP3    H229170   5.508   1.784   5.868
 9743TIP3   OH229171   5.527   1.823   6.045
 9743TIP3    H129172   5.440   1.832   6.089
 9743TIP3    H229173   5.581   1.785   6.117
 9744TIP3   OH229174   6.292   1.070   7.309
 9744TIP3    H129175   6.205   1.094   7.273
 9744TIP3    H229176   6.282   0.974   7.320
 9745TIP3   OH229177   4.887   1.488   7.349
 9745TIP3    H129178   4.935   1.484   7.434
 9745TIP3    H229179   4.814   1.424   7.364
 9746TIP3   OH229180   6.055   0.867   7.278
 9746TIP3    H129181   6.035   0.904   7.364
 9746TIP3    H229182   6.044   0.944   7.219
 9747TIP3   OH229183   5.727   0.991   5.812
 9747TIP3    H129184   5.685   0.969   5.727
 9747TIP3    H229185   5.811   1.032   5.781
 9748TIP3   OH229186   5.238   0.844   7.173
 9748TIP3    H129187   5.257   0.897   7.254
 9748TIP3    H229188   5.218   0.917   7.110
 9749TIP3   OH229189   5.108   0.720   6.682
 9749TIP3    H129190   5.012   0.705   6.690
 9749TIP3    H229191   5.124   0.692   6.588
 9750TIP3   OH229192   5.587   0.811   6.402
 9750TIP3    H129193   5.542   0.884   6.354
 9750TIP3    H229194   5.655   0.782   6.337
 9751TIP3   OH229195   5.782   1.112   7.469
 9751TIP3    H129196   5.758   1.033   7.522
 9751TIP3    H229197   5.876   1.123   7.494
 9752TIP3   OH229198   5.732   0.873   6.657
 9752TIP3    H129199   5.676   0.916   6.590
 9752TIP3    H229200   5.756   0.792   6.607
 9753TIP3   OH229201   4.587   0.358   6.438
 9753TIP3    H129202   4.632   0.393   6.357
 9753TIP3    H229203   4.530   0.434   6.460
 9754TIP3   OH229204   5.750   1.085   7.060
 9754TIP3    H129205   5.791   1.015   7.003
 9754TIP3    H229206   5.732   1.030   7.139
 9755TIP3   OH229207   4.855   0.614   6.727
 9755TIP3    H129208   4.761   0.635   6.704
 9755TIP3    H229209   4.858   0.520   6.706
 9756TIP3   OH229210   5.143   0.623   6.431
 9756TIP3    H129211   5.235   0.606   6.405
 9756TIP3    H229212   5.093   0.606   6.348
 9757TIP3   OH229213   4.979   0.601   6.200
 9757TIP3    H129214   4.910   0.580   6.134
 9757TIP3    H229215   5.042   0.648   6.141
 9758TIP3   OH229216   6.098   2.308   7.158
 9758TIP3    H129217   6.099   2.335   7.065
 9758TIP3    H229218   6.179   2.353   7.191
 9759TIP3   OH229219   5.056   1.425   7.577
 9759TIP3    H129220   5.135   1.450   7.630
 9759TIP3    H229221   4.991   1.414   7.650
 9760TIP3   OH229222   5.501   0.878   6.826
 9760TIP3    H129223   5.585   0.847   6.788
 9760TIP3    H229224   5.508   0.844   6.919
 9761TIP3   OH229225   5.516   0.811   7.086
 9761TIP3    H129226   5.431   0.787   7.128
 9761TIP3    H229227   5.568   0.843   7.162
 9762TIP3   OH229228   5.223   1.160   6.212
 9762TIP3    H129229   5.152   1.094   6.201
 9762TIP3    H229230   5.205   1.193   6.304
 9763TIP3   OH229231   6.126   1.398   6.838
 9763TIP3    H129232   6.154   1.446   6.757
 9763TIP3    H229233   6.043   1.354   6.809
 9764TIP3   OH229234   5.665   0.539   6.037
 9764TIP3    H129235   5.605   0.490   6.097
 9764TIP3    H229236   5.701   0.606   6.100
 9765TIP3   OH229237   5.627   1.483   7.206
 9765TIP3    H129238   5.669   1.447   7.285
 9765TIP3    H229239   5.584   1.563   7.238
 9766TIP3   OH229240   5.762   0.737   6.201
 9766TIP3    H129241   5.859   0.748   6.209
 9766TIP3    H229242   5.737   0.812   6.144
 9767TIP3   OH229243   4.933   1.170   6.894
 9767TIP3    H129244   4.953   1.156   6.799
 9767TIP3    H229245   5.007   1.120   6.934
 9768TIP3   OH229246   5.375   1.309   6.042
 9768TIP3    H129247   5.327   1.395   6.046
 9768TIP3    H229248   5.320   1.254   6.101
 9769TIP3   OH229249   5.537   1.224   7.520
 9769TIP3    H129250   5.491   1.171   7.453
 9769TIP3    H229251   5.630   1.199   7.500
 9770TIP3   OH229252   5.781   1.759   7.096
 9770TIP3    H129253   5.690   1.738   7.122
 9770TIP3    H229254   5.816   1.796   7.180
 9771TIP3   OH229255   6.194   0.809   6.003
 9771TIP3    H129256   6.135   0.759   5.942
 9771TIP3    H229257   6.181   0.899   5.966
 9772TIP3   OH229258   6.413   1.668   7.097
 9772TIP3    H129259   6.316   1.662   7.089
 9772TIP3    H229260   6.439   1.639   7.006
 9773TIP3   OH229261   5.897   1.628   5.926
 9773TIP3    H129262   5.873   1.552   5.981
 9773TIP3    H229263   5.913   1.586   5.839
 9774TIP3   OH229264   5.891   1.266   6.748
 9774TIP3    H129265   5.800   1.237   6.768
 9774TIP3    H229266   5.928   1.183   6.709
 9775TIP3   OH229267   5.023   1.490   6.523
 9775TIP3    H129268   5.021   1.568   6.464
 9775TIP3    H229269   4.930   1.466   6.527
 9776TIP3   OH229270   4.586   0.794   6.221
 9776TIP3    H129271   4.632   0.878   6.243
 9776TIP3    H229272   4.510   0.799   6.283
 9777TIP3   OH229273   5.151   1.251   6.456
 9777TIP3    H129274   5.120   1.340   6.479
 9777TIP3    H229275   5.119   1.198   6.532
 9778TIP3   OH229276   5.323   1.812   6.972
 9778TIP3    H129277   5.325   1.910   6.973
 9778TIP3    H229278   5.376   1.791   7.053
 9779TIP3   OH229279   4.940   1.724   6.368
 9779TIP3    H129280   4.854   1.734   6.414
 9779TIP3    H229281   4.972   1.817   6.369
 9780TIP3   OH229282   5.670   1.476   6.936
 9780TIP3    H129283   5.663   1.473   7.034
 9780TIP3    H229284   5.752   1.426   6.922
 9781TIP3   OH229285   5.659   1.361   5.829
 9781TIP3    H129286   5.711   1.337   5.910
 9781TIP3    H229287   5.572   1.326   5.853
 9782TIP3   OH229288   5.926   1.991   6.997
 9782TIP3    H129289   5.856   1.924   7.003
 9782TIP3    H229290   5.898   2.048   6.922
 9783TIP3   OH229291   5.993   1.829   5.644
 9783TIP3    H129292   6.030   1.903   5.593
 9783TIP3    H229293   5.913   1.873   5.680
 9784TIP3   OH229294   5.819   1.302   6.050
 9784TIP3    H129295   5.806   1.229   6.114
 9784TIP3    H229296   5.915   1.291   6.032
 9785TIP3   OH229297   4.733   1.688   7.141
 9785TIP3    H129298   4.785   1.620   7.186
 9785TIP3    H229299   4.748   1.765   7.198
 9786TIP3   OH229300   5.017   1.337   5.828
 9786TIP3    H129301   5.030   1.244   5.800
 9786TIP3    H229302   4.995   1.325   5.923
 9787TIP3   OH229303   4.961   1.342   6.101
 9787TIP3    H129304   5.039   1.313   6.151
 9787TIP3    H229305   4.967   1.440   6.108
 9788TIP3   OH229306   4.696   1.033   6.305
 9788TIP3    H129307   4.630   1.080   6.360
 9788TIP3    H229308   4.711   1.100   6.235
 9789TIP3   OH229309   5.235   1.540   6.053
 9789TIP3    H129310   5.147   1.565   6.087
 9789TIP3    H229311   5.246   1.606   5.983
 9790TIP3   OH229312   5.426   0.592   6.422
 9790TIP3    H129313   5.477   0.676   6.418
 9790TIP3    H229314   5.455   0.556   6.507
 9791TIP3   OH229315   5.701   0.922   7.272
 9791TIP3    H129316   5.705   0.980   7.351
 9791TIP3    H229317   5.753   0.847   7.303
 9792TIP3   OH229318   4.979   1.614   6.117
 9792TIP3    H129319   4.948   1.684   6.055
 9792TIP3    H229320   4.962   1.657   6.204
 9793TIP3   OH229321   5.979   1.021   6.640
 9793TIP3    H129322   5.901   0.966   6.660
 9793TIP3    H229323   6.051   0.973   6.688
 9794TIP3   OH229324   4.695   1.236   6.107
 9794TIP3    H129325   4.768   1.301   6.115
 9794TIP3    H229326   4.736   1.177   6.040
 9795TIP3   OH229327   4.622   0.521   6.224
 9795TIP3    H129328   4.644   0.616   6.224
 9795TIP3    H229329   4.536   0.522   6.180
 9796TIP3   OH229330   5.947   1.966   6.580
 9796TIP3    H129331   5.907   2.016   6.506
 9796TIP3    H229332   6.042   1.988   6.564
 9797TIP3   OH229333   4.558   1.457   6.490
 9797TIP3    H129334   4.498   1.486   6.560
 9797TIP3    H229335   4.520   1.501   6.410
 9798TIP3   OH229336   4.725   2.007   7.565
 9798TIP3    H129337   4.811   2.010   7.615
 9798TIP3    H229338   4.709   1.911   7.564
 9799TIP3   OH229339   5.194   1.962   7.609
 9799TIP3    H129340   5.289   1.947   7.624
 9799TIP3    H229341   5.175   1.896   7.539
 9800TIP3   OH229342   5.183   1.538   5.739
 9800TIP3    H129343   5.128   1.464   5.775
 9800TIP3    H229344   5.258   1.488   5.701
 9801TIP3   OH229345   5.845   1.864   7.337
 9801TIP3    H129346   5.835   1.799   7.410
 9801TIP3    H229347   5.919   1.919   7.370
 9802TIP3   OH229348   5.616   1.575   5.652
 9802TIP3    H129349   5.656   1.510   5.712
 9802TIP3    H229350   5.674   1.571   5.573
 9803TIP3   OH229351   4.850   1.411   7.762
 9803TIP3    H129352   4.864   1.316   7.777
 9803TIP3    H229353   4.764   1.412   7.714
 9804TIP3   OH229354   4.830   1.050   5.964
 9804TIP3    H129355   4.889   1.022   6.036
 9804TIP3    H229356   4.895   1.056   5.891
 9805TIP3   OH229357   5.458   1.496   7.541
 9805TIP3    H129358   5.419   1.510   7.453
 9805TIP3    H229359   5.492   1.404   7.535
 9806TIP3   OH229360   5.347   1.257   5.772
 9806TIP3    H129361   5.348   1.267   5.869
 9806TIP3    H229362   5.351   1.159   5.764
 9807TIP3   OH229363   5.946   1.509   7.145
 9807TIP3    H129364   6.027   1.546   7.103
 9807TIP3    H229365   5.882   1.579   7.127
 9808TIP3   OH229366   4.966   1.151   7.739
 9808TIP3    H129367   5.018   1.070   7.738
 9808TIP3    H229368   4.993   1.184   7.828
 9809TIP3   OH229369   5.030   0.963   6.178
 9809TIP3    H129370   5.013   0.922   6.265
 9809TIP3    H229371   5.071   0.889   6.128
 9810TIP3   OH229372   5.270   1.021   7.372
 9810TIP3    H129373   5.206   1.091   7.397
 9810TIP3    H229374   5.338   1.072   7.322
 9811TIP3   OH229375   5.136   0.756   6.029
 9811TIP3    H129376   5.112   0.762   5.934
 9811TIP3    H229377   5.235   0.757   6.022
 9812TIP3   OH229378   5.823   1.429   7.539
 9812TIP3    H129379   5.906   1.399   7.500
 9812TIP3    H229380   5.813   1.366   7.613
 9813TIP3   OH229381   5.955   1.083   5.688
 9813TIP3    H129382   5.936   1.041   5.602
 9813TIP3    H229383   5.922   1.174   5.668
 9814TIP3   OH229384   5.390   0.827   7.525
 9814TIP3    H129385   5.345   0.761   7.469
 9814TIP3    H229386   5.353   0.910   7.486
 9815TIP3   OH229387   5.460   1.148   7.229
 9815TIP3    H129388   5.543   1.138   7.180
 9815TIP3    H229389   5.409   1.207   7.171
 9816TIP3   OH229390   6.037   1.108   7.573
 9816TIP3    H129391   6.065   1.041   7.641
 9816TIP3    H229392   6.122   1.150   7.553
 9817TIP3   OH229393   6.079   1.354   7.324
 9817TIP3    H129394   6.022   1.411   7.269
 9817TIP3    H229395   6.167   1.377   7.286
 9818TIP3   OH229396   5.274   0.962   7.752
 9818TIP3    H129397   5.217   0.904   7.805
 9818TIP3    H229398   5.327   0.900   7.697
 9819TIP3   OH229399   5.672   0.889   7.566
 9819TIP3    H129400   5.705   0.848   7.649
 9819TIP3    H229401   5.576   0.875   7.576
 9820TIP3   OH229402   4.948   1.820   5.932
 9820TIP3    H129403   5.043   1.809   5.911
 9820TIP3    H229404   4.920   1.869   5.852
 9821TIP3   OH229405   4.425   1.199   6.142
 9821TIP3    H129406   4.520   1.219   6.127
 9821TIP3    H229407   4.418   1.110   6.100
 9822TIP3   OH229408   4.343   1.810   6.561
 9822TIP3    H129409   4.277   1.750   6.521
 9822TIP3    H229410   4.387   1.749   6.625
 9823TIP3   OH229411   4.476   1.654   6.747
 9823TIP3    H129412   4.465   1.585   6.815
 9823TIP3    H229413   4.527   1.719   6.797
 9824TIP3   OH229414   6.199   2.063   6.549
 9824TIP3    H129415   6.229   2.093   6.637
 9824TIP3    H229416   6.269   2.098   6.491
 9825TIP3   OH229417   6.232   2.083   6.830
 9825TIP3    H129418   6.192   1.993   6.828
 9825TIP3    H229419   6.308   2.064   6.888
 9826TIP3   OH229420   6.274   1.761   7.398
 9826TIP3    H129421   6.203   1.771   7.464
 9826TIP3    H229422   6.320   1.847   7.405
 9827TIP3   OH229423   6.094   1.272   6.017
 9827TIP3    H129424   6.161   1.336   5.986
 9827TIP3    H229425   6.139   1.235   6.096
 9828TIP3   OH229426   6.219   1.146   6.222
 9828TIP3    H129427   6.154   1.106   6.284
 9828TIP3    H229428   6.287   1.181   6.283
 9829TIP3   OH229429   6.271   1.531   6.647
 9829TIP3    H129430   6.331   1.463   6.608
 9829TIP3    H229431   6.279   1.604   6.583
 9830TIP3   OH229432   6.112   1.834   6.849
 9830TIP3    H129433   6.041   1.873   6.904
 9830TIP3    H229434   6.062   1.786   6.780
 9831TIP3   OH229435   6.152   1.046   5.870
 9831TIP3    H129436   6.083   1.055   5.800
 9831TIP3    H229437   6.128   1.122   5.926
 9832TIP3   OH229438   6.021   0.705   5.808
 9832TIP3    H129439   6.005   0.783   5.753
 9832TIP3    H229440   5.971   0.638   5.758
 9833TIP3   OH229441   6.031   1.012   6.367
 9833TIP3    H129442   6.036   0.917   6.341
 9833TIP3    H229443   6.020   1.009   6.464
 9834TIP3   OH229444   4.665   1.088   7.105
 9834TIP3    H129445   4.658   1.049   7.015
 9834TIP3    H229446   4.757   1.067   7.129
 9835TIP3   OH229447   6.322   1.422   7.217
 9835TIP3    H129448   6.394   1.353   7.215
 9835TIP3    H229449   6.359   1.492   7.160
 9836TIP3   OH229450   6.503   1.225   7.242
 9836TIP3    H129451   6.430   1.168   7.274
 9836TIP3    H229452   6.579   1.165   7.256
 9837TIP3   OH229453   6.034   0.762   6.237
 9837TIP3    H129454   6.063   0.684   6.290
 9837TIP3    H229455   6.097   0.762   6.163
 9838TIP3   OH229456   6.186   0.891   6.764
 9838TIP3    H129457   6.272   0.912   6.722
 9838TIP3    H229458   6.203   0.926   6.854
 9839TIP3   OH229459   6.254   1.039   6.988
 9839TIP3    H129460   6.181   1.076   7.041
 9839TIP3    H229461   6.291   1.118   6.945
 9840TIP3   OH229462   4.878   0.751   7.752
 9840TIP3    H129463   4.943   0.812   7.791
 9840TIP3    H229464   4.828   0.727   7.831
 9841TIP3   OH229465   5.780   1.933   6.203
 9841TIP3    H129466   5.832   1.918   6.122
 9841TIP3    H229467   5.837   1.995   6.252
 9842TIP3   OH229468   4.885   1.733   7.581
 9842TIP3    H129469   4.790   1.709   7.573
 9842TIP3    H229470   4.902   1.710   7.673
 9843TIP3   OH229471   5.070   1.763   7.127
 9843TIP3    H129472   5.023   1.841   7.090
 9843TIP3    H229473   5.156   1.772   7.082
 9844TIP3   OH229474   5.506   2.013   7.266
 9844TIP3    H129475   5.545   2.008   7.356
 9844TIP3    H229476   5.577   2.063   7.220
 9845TIP3   OH229477   5.696   2.157   7.130
 9845TIP3    H129478   5.776   2.110   7.100
 9845TIP3    H229479   5.738   2.221   7.193
 9846TIP3   OH229480   4.744   2.023   7.160
 9846TIP3    H129481   4.652   2.051   7.138
 9846TIP3    H229482   4.759   2.077   7.240
 9847TIP3   OH229483   4.978   1.997   7.015
 9847TIP3    H129484   4.892   2.009   7.062
 9847TIP3    H229485   4.956   2.032   6.927
 9848TIP3   OH229486   5.394   2.024   6.805
 9848TIP3    H129487   5.317   2.045   6.747
 9848TIP3    H229488   5.407   2.110   6.850
 9849TIP3   OH229489   5.661   1.952   6.819
 9849TIP3    H129490   5.594   2.023   6.827
 9849TIP3    H229491   5.739   2.008   6.795
 9850TIP3   OH229492   5.858   2.141   6.774
 9850TIP3    H129493   5.853   2.231   6.737
 9850TIP3    H229494   5.902   2.092   6.701
 9851TIP3   OH229495   4.653   1.816   6.901
 9851TIP3    H129496   4.678   1.786   6.991
 9851TIP3    H229497   4.724   1.772   6.850
 9852TIP3   OH229498   4.848   1.688   6.762
 9852TIP3    H129499   4.862   1.602   6.809
 9852TIP3    H229500   4.940   1.720   6.754
 9853TIP3   OH229501   5.121   1.776   6.762
 9853TIP3    H129502   5.141   1.680   6.754
 9853TIP3    H229503   5.167   1.795   6.845
 9854TIP3   OH229504   4.439   1.593   6.289
 9854TIP3    H129505   4.353   1.560   6.257
 9854TIP3    H229506   4.431   1.686   6.260
 9855TIP3   OH229507   5.214   1.772   5.876
 9855TIP3    H129508   5.302   1.794   5.839
 9855TIP3    H229509   5.191   1.697   5.815
 9856TIP3   OH229510   5.928   1.895   5.974
 9856TIP3    H129511   5.922   1.797   5.961
 9856TIP3    H229512   5.885   1.926   5.892
 9857TIP3   OH229513   4.518   1.611   5.928
 9857TIP3    H129514   4.521   1.625   6.024
 9857TIP3    H229515   4.604   1.566   5.912
 9858TIP3   OH229516   6.157   2.039   7.154
 9858TIP3    H129517   6.077   2.011   7.105
 9858TIP3    H229518   6.140   2.135   7.164
 9859TIP3   OH229519   7.425   1.410   5.919
 9859TIP3    H129520   7.395   1.501   5.898
 9859TIP3    H229521   7.350   1.360   5.883
 9860TIP3   OH229522   7.409   1.420   6.291
 9860TIP3    H129523   7.435   1.399   6.384
 9860TIP3    H229524   7.370   1.336   6.264
 9861TIP3   OH229525   6.715   1.302   6.668
 9861TIP3    H129526   6.746   1.232   6.729
 9861TIP3    H229527   6.796   1.356   6.661
 9862TIP3   OH229528   7.672   1.719   5.985
 9862TIP3    H129529   7.650   1.652   6.051
 9862TIP3    H229530   7.702   1.794   6.041
 9863TIP3   OH229531   6.694   1.715   6.387
 9863TIP3    H129532   6.688   1.617   6.388
 9863TIP3    H229533   6.791   1.725   6.385
 9864TIP3   OH229534   6.386   0.931   6.190
 9864TIP3    H129535   6.330   1.010   6.198
 9864TIP3    H229536   6.331   0.874   6.133
 9865TIP3   OH229537   6.451   1.216   6.352
 9865TIP3    H129538   6.492   1.132   6.382
 9865TIP3    H229539   6.520   1.252   6.294
 9866TIP3   OH229540   7.322   2.175   6.004
 9866TIP3    H129541   7.362   2.103   5.951
 9866TIP3    H229542   7.313   2.133   6.090
 9867TIP3   OH229543   7.220   1.637   6.351
 9867TIP3    H129544   7.261   1.560   6.308
 9867TIP3    H229545   7.302   1.685   6.377
 9868TIP3   OH229546   7.625   1.138   6.404
 9868TIP3    H129547   7.665   1.052   6.424
 9868TIP3    H229548   7.600   1.130   6.310
 9869TIP3   OH229549   6.968   0.752   6.309
 9869TIP3    H129550   6.940   0.843   6.287
 9869TIP3    H229551   6.884   0.704   6.301
 9870TIP3   OH229552   7.630   0.909   6.025
 9870TIP3    H129553   7.687   0.862   6.091
 9870TIP3    H229554   7.690   0.907   5.948
 9871TIP3   OH229555   6.584   0.999   6.445
 9871TIP3    H129556   6.677   1.003   6.477
 9871TIP3    H229557   6.597   0.936   6.371
 9872TIP3   OH229558   7.039   1.200   6.255
 9872TIP3    H129559   7.134   1.175   6.268
 9872TIP3    H229560   7.000   1.113   6.230
 9873TIP3   OH229561   7.313   1.631   5.788
 9873TIP3    H129562   7.272   1.617   5.701
 9873TIP3    H229563   7.267   1.713   5.817
 9874TIP3   OH229564   7.080   1.555   6.573
 9874TIP3    H129565   7.019   1.623   6.609
 9874TIP3    H229566   7.119   1.603   6.497
 9875TIP3   OH229567   6.843   0.965   6.510
 9875TIP3    H129568   6.912   1.014   6.559
 9875TIP3    H229569   6.862   0.874   6.540
 9876TIP3   OH229570   6.906   1.753   6.671
 9876TIP3    H129571   6.880   1.841   6.638
 9876TIP3    H229572   6.828   1.732   6.727
 9877TIP3   OH229573   6.293   1.444   5.909
 9877TIP3    H129574   6.255   1.471   5.824
 9877TIP3    H229575   6.327   1.529   5.944
 9878TIP3   OH229576   7.735   1.959   6.147
 9878TIP3    H129577   7.646   1.950   6.188
 9878TIP3    H229578   7.727   2.047   6.104
 9879TIP3   OH229579   7.433   2.002   5.818
 9879TIP3    H129580   7.484   1.919   5.800
 9879TIP3    H229581   7.496   2.067   5.780
 9880TIP3   OH229582   7.580   1.787   5.735
 9880TIP3    H129583   7.540   1.706   5.702
 9880TIP3    H229584   7.621   1.756   5.819
 9881TIP3   OH229585   7.936   1.855   6.491
 9881TIP3    H129586   7.939   1.787   6.421
 9881TIP3    H229587   7.944   1.938   6.439
 9882TIP3   OH229588   7.255   1.269   5.751
 9882TIP3    H129589   7.173   1.319   5.731
 9882TIP3    H229590   7.297   1.262   5.664
 9883TIP3   OH229591   7.210   1.050   5.466
 9883TIP3    H129592   7.281   1.100   5.509
 9883TIP3    H229593   7.261   0.980   5.421
 9884TIP3   OH229594   8.187   1.501   6.336
 9884TIP3    H129595   8.095   1.530   6.347
 9884TIP3    H229596   8.205   1.530   6.245
 9885TIP3   OH229597   7.601   1.348   5.718
 9885TIP3    H129598   7.547   1.370   5.798
 9885TIP3    H229599   7.686   1.326   5.761
 9886TIP3   OH229600   7.864   1.369   6.516
 9886TIP3    H129601   7.912   1.438   6.566
 9886TIP3    H229602   7.808   1.422   6.457
 9887TIP3   OH229603   6.835   1.343   6.140
 9887TIP3    H129604   6.796   1.282   6.074
 9887TIP3    H229605   6.910   1.289   6.174
 9888TIP3   OH229606   6.966   1.757   6.286
 9888TIP3    H129607   6.946   1.719   6.199
 9888TIP3    H229608   7.054   1.719   6.306
 9889TIP3   OH229609   6.969   1.311   6.503
 9889TIP3    H129610   6.999   1.281   6.414
 9889TIP3    H229611   7.016   1.396   6.515
 9890TIP3   OH229612   7.496   1.952   6.271
 9890TIP3    H129613   7.485   2.033   6.324
 9890TIP3    H229614   7.479   1.881   6.337
 9891TIP3   OH229615   7.106   1.868   6.819
 9891TIP3    H129616   7.045   1.930   6.865
 9891TIP3    H229617   7.041   1.815   6.767
 9892TIP3   OH229618   7.439   1.204   5.548
 9892TIP3    H129619   7.498   1.266   5.598
 9892TIP3    H229620   7.467   1.223   5.455
 9893TIP3   OH229621   6.855   1.442   6.911
 9893TIP3    H129622   6.860   1.524   6.964
 9893TIP3    H229623   6.764   1.413   6.932
 9894TIP3   OH229624   7.189   1.879   5.824
 9894TIP3    H129625   7.273   1.929   5.830
 9894TIP3    H229626   7.129   1.943   5.784
 9895TIP3   OH229627   6.903   2.033   6.907
 9895TIP3    H129628   6.866   2.038   6.817
 9895TIP3    H229629   6.823   2.014   6.962
 9896TIP3   OH229630   6.703   1.185   5.941
 9896TIP3    H129631   6.631   1.227   5.890
 9896TIP3    H229632   6.667   1.097   5.956
 9897TIP3   OH229633   7.752   1.812   5.148
 9897TIP3    H129634   7.763   1.908   5.134
 9897TIP3    H229635   7.844   1.780   5.136
 9898TIP3   OH229636   6.480   1.570   6.853
 9898TIP3    H129637   6.419   1.542   6.783
 9898TIP3    H229638   6.522   1.485   6.880
 9899TIP3   OH229639   6.340   1.762   6.485
 9899TIP3    H129640   6.435   1.750   6.472
 9899TIP3    H229641   6.339   1.837   6.546
 9900TIP3   OH229642   8.179   2.227   6.531
 9900TIP3    H129643   8.200   2.133   6.545
 9900TIP3    H229644   8.098   2.236   6.587
 9901TIP3   OH229645   7.300   1.996   6.674
 9901TIP3    H129646   7.302   2.088   6.706
 9901TIP3    H229647   7.230   1.958   6.730
 9902TIP3   OH229648   7.071   2.125   5.629
 9902TIP3    H129649   7.022   2.109   5.546
 9902TIP3    H229650   7.037   2.213   5.657
 9903TIP3   OH229651   6.506   1.974   6.015
 9903TIP3    H129652   6.553   1.967   6.101
 9903TIP3    H229653   6.459   1.889   6.013
 9904TIP3   OH229654   7.268   2.030   5.265
 9904TIP3    H129655   7.326   1.959   5.231
 9904TIP3    H229656   7.303   2.041   5.356
 9905TIP3   OH229657   7.321   2.079   5.534
 9905TIP3    H129658   7.233   2.088   5.577
 9905TIP3    H229659   7.374   2.042   5.607
 9906TIP3   OH229660   6.686   1.753   6.835
 9906TIP3    H129661   6.736   1.739   6.918
 9906TIP3    H229662   6.612   1.689   6.845
 9907TIP3   OH229663   7.519   1.240   5.293
 9907TIP3    H129664   7.482   1.221   5.205
 9907TIP3    H229665   7.602   1.285   5.269
 9908TIP3   OH229666   7.036   1.099   6.664
 9908TIP3    H129667   6.973   1.116   6.737
 9908TIP3    H229668   7.020   1.178   6.608
 9909TIP3   OH229669   6.898   0.980   6.167
 9909TIP3    H129670   6.805   0.956   6.179
 9909TIP3    H229671   6.915   0.948   6.076
 9910TIP3   OH229672   7.385   1.068   5.889
 9910TIP3    H129673   7.338   1.140   5.842
 9910TIP3    H229674   7.452   1.040   5.824
 9911TIP3   OH229675   7.532   1.132   6.145
 9911TIP3    H129676   7.473   1.175   6.081
 9911TIP3    H229677   7.553   1.050   6.095
 9912TIP3   OH229678   6.837   1.125   6.856
 9912TIP3    H129679   6.859   1.186   6.928
 9912TIP3    H229680   6.824   1.041   6.903
 9913TIP3   OH229681   6.471   0.738   5.991
 9913TIP3    H129682   6.488   0.737   5.895
 9913TIP3    H229683   6.375   0.755   5.989
 9914TIP3   OH229684   7.502   1.343   6.535
 9914TIP3    H129685   7.541   1.264   6.491
 9914TIP3    H229686   7.567   1.355   6.607
 9915TIP3   OH229687   6.647   0.857   6.206
 9915TIP3    H129688   6.555   0.890   6.193
 9915TIP3    H229689   6.640   0.776   6.152
 9916TIP3   OH229690   6.940   0.877   5.918
 9916TIP3    H129691   7.032   0.861   5.888
 9916TIP3    H229692   6.887   0.864   5.837
 9917TIP3   OH229693   6.779   0.854   5.689
 9917TIP3    H129694   6.704   0.841   5.627
 9917TIP3    H229695   6.839   0.903   5.629
 9918TIP3   OH229696   7.894   2.566   6.641
 9918TIP3    H129697   7.897   2.594   6.547
 9918TIP3    H229698   7.957   2.627   6.682
 9919TIP3   OH229699   6.847   1.681   7.060
 9919TIP3    H129700   6.927   1.710   7.109
 9919TIP3    H229701   6.783   1.676   7.133
 9920TIP3   OH229702   7.297   1.135   6.318
 9920TIP3    H129703   7.382   1.104   6.282
 9920TIP3    H229704   7.304   1.105   6.412
 9921TIP3   OH229705   7.312   1.066   6.581
 9921TIP3    H129706   7.221   1.049   6.611
 9921TIP3    H229707   7.354   1.098   6.663
 9922TIP3   OH229708   7.021   1.415   5.698
 9922TIP3    H129709   6.949   1.350   5.687
 9922TIP3    H229710   7.002   1.449   5.790
 9923TIP3   OH229711   7.936   1.634   6.324
 9923TIP3    H129712   7.962   1.688   6.247
 9923TIP3    H229713   7.849   1.598   6.297
 9924TIP3   OH229714   7.458   0.799   5.523
 9924TIP3    H129715   7.400   0.748   5.584
 9924TIP3    H229716   7.496   0.864   5.586
 9925TIP3   OH229717   7.431   1.745   6.701
 9925TIP3    H129718   7.398   1.703   6.782
 9925TIP3    H229719   7.386   1.832   6.702
 9926TIP3   OH229720   7.560   0.993   5.687
 9926TIP3    H129721   7.658   1.004   5.695
 9926TIP3    H229722   7.536   1.071   5.632
 9927TIP3   OH229723   6.719   1.438   6.374
 9927TIP3    H129724   6.758   1.409   6.289
 9927TIP3    H229725   6.763   1.379   6.438
 9928TIP3   OH229726   7.170   1.565   5.525
 9928TIP3    H129727   7.120   1.650   5.528
 9928TIP3    H229728   7.115   1.509   5.585
 9929TIP3   OH229729   6.600   1.362   6.991
 9929TIP3    H129730   6.633   1.352   7.083
 9929TIP3    H229731   6.533   1.292   6.986
 9930TIP3   OH229732   7.313   1.484   7.011
 9930TIP3    H129733   7.241   1.432   6.970
 9930TIP3    H229734   7.382   1.415   7.017
 9931TIP3   OH229735   7.574   1.995   6.584
 9931TIP3    H129736   7.478   1.986   6.594
 9931TIP3    H229737   7.595   2.043   6.667
 9932TIP3   OH229738   7.992   1.063   5.489
 9932TIP3    H129739   7.931   1.015   5.428
 9932TIP3    H229740   7.980   1.154   5.454
 9933TIP3   OH229741   7.692   1.886   5.414
 9933TIP3    H129742   7.667   1.817   5.477
 9933TIP3    H229743   7.704   1.838   5.331
 9934TIP3   OH229744   7.688   1.509   6.262
 9934TIP3    H129745   7.592   1.489   6.261
 9934TIP3    H229746   7.721   1.434   6.207
 9935TIP3   OH229747   6.821   1.744   6.003
 9935TIP3    H129748   6.817   1.825   5.948
 9935TIP3    H229749   6.727   1.725   6.016
 9936TIP3   OH229750   6.380   1.044   5.713
 9936TIP3    H129751   6.427   1.128   5.733
 9936TIP3    H229752   6.304   1.050   5.774
 9937TIP3   OH229753   6.948   1.505   5.941
 9937TIP3    H129754   6.916   1.595   5.964
 9937TIP3    H229755   6.916   1.454   6.018
 9938TIP3   OH229756   7.090   2.084   6.469
 9938TIP3    H129757   7.133   2.157   6.420
 9938TIP3    H229758   7.165   2.048   6.518
 9939TIP3   OH229759   6.735   1.983   5.853
 9939TIP3    H129760   6.650   1.991   5.901
 9939TIP3    H229761   6.768   2.075   5.857
 9940TIP3   OH229762   7.471   1.720   6.433
 9940TIP3    H129763   7.466   1.720   6.531
 9940TIP3    H229764   7.550   1.666   6.417
 9941TIP3   OH229765   7.453   1.617   5.315
 9941TIP3    H129766   7.508   1.591   5.393
 9941TIP3    H229767   7.366   1.586   5.344
 9942TIP3   OH229768   7.719   2.250   6.480
 9942TIP3    H129769   7.640   2.192   6.472
 9942TIP3    H229770   7.704   2.313   6.406
 9943TIP3   OH229771   7.790   2.088   5.132
 9943TIP3    H129772   7.823   2.166   5.084
 9943TIP3    H229773   7.708   2.128   5.169
 9944TIP3   OH229774   7.614   1.545   5.525
 9944TIP3    H129775   7.603   1.480   5.597
 9944TIP3    H229776   7.711   1.543   5.514
 9945TIP3   OH229777   6.524   1.945   6.630
 9945TIP3    H129778   6.580   1.876   6.668
 9945TIP3    H229779   6.549   2.021   6.684
 9946TIP3   OH229780   6.813   1.593   5.314
 9946TIP3    H129781   6.827   1.500   5.289
 9946TIP3    H229782   6.793   1.584   5.410
 9947TIP3   OH229783   6.757   1.599   5.586
 9947TIP3    H129784   6.832   1.570   5.640
 9947TIP3    H229785   6.762   1.697   5.596
 9948TIP3   OH229786   6.491   1.288   5.791
 9948TIP3    H129787   6.425   1.335   5.847
 9948TIP3    H229788   6.506   1.356   5.723
 9949TIP3   OH229789   7.027   1.794   5.532
 9949TIP3    H129790   6.940   1.817   5.570
 9949TIP3    H229791   7.043   1.872   5.478
 9950TIP3   OH229792   7.226   0.846   5.904
 9950TIP3    H129793   7.278   0.930   5.905
 9950TIP3    H229794   7.237   0.816   5.996
 9951TIP3   OH229795   7.489   1.143   6.804
 9951TIP3    H129796   7.537   1.228   6.780
 9951TIP3    H229797   7.557   1.081   6.770
 9952TIP3   OH229798   6.773   1.871   5.604
 9952TIP3    H129799   6.743   1.942   5.543
 9952TIP3    H229800   6.757   1.913   5.692
 9953TIP3   OH229801   7.772   1.281   6.123
 9953TIP3    H129802   7.694   1.225   6.143
 9953TIP3    H229803   7.844   1.236   6.173
 9954TIP3   OH229804   6.491   1.494   5.593
 9954TIP3    H129805   6.564   1.557   5.603
 9954TIP3    H229806   6.532   1.433   5.527
 9955TIP3   OH229807   6.434   0.772   5.716
 9955TIP3    H129808   6.424   0.870   5.711
 9955TIP3    H229809   6.346   0.741   5.691
 9956TIP3   OH229810   7.744   2.230   6.070
 9956TIP3    H129811   7.701   2.277   5.995
 9956TIP3    H229812   7.838   2.250   6.052
 9957TIP3   OH229813   6.355   1.714   5.976
 9957TIP3    H129814   6.293   1.744   6.044
 9957TIP3    H229815   6.319   1.759   5.896
 9958TIP3   OH229816   6.522   2.265   7.051
 9958TIP3    H129817   6.607   2.269   7.101
 9958TIP3    H229818   6.506   2.169   7.052
 9959TIP3   OH229819   6.990   2.222   7.093
 9959TIP3    H129820   7.085   2.206   7.105
 9959TIP3    H229821   6.969   2.156   7.023
 9960TIP3   OH229822   6.976   1.793   5.221
 9960TIP3    H129823   6.921   1.723   5.261
 9960TIP3    H229824   7.053   1.741   5.193
 9961TIP3   OH229825   7.599   2.115   6.829
 9961TIP3    H129826   7.593   2.047   6.899
 9961TIP3    H229827   7.682   2.162   6.854
 9962TIP3   OH229828   7.413   1.831   5.139
 9962TIP3    H129829   7.450   1.766   5.202
 9962TIP3    H229830   7.475   1.827   5.064
 9963TIP3   OH229831   6.647   1.667   7.249
 9963TIP3    H129832   6.659   1.574   7.274
 9963TIP3    H229833   6.559   1.666   7.205
 9964TIP3   OH229834   6.626   1.307   5.451
 9964TIP3    H129835   6.683   1.278   5.524
 9964TIP3    H229836   6.692   1.314   5.379
 9965TIP3   OH229837   7.264   1.758   7.010
 9965TIP3    H129838   7.205   1.781   6.935
 9965TIP3    H229839   7.275   1.660   7.000
 9966TIP3   OH229840   7.141   1.514   5.255
 9966TIP3    H129841   7.142   1.526   5.353
 9966TIP3    H229842   7.143   1.416   5.249
 9967TIP3   OH229843   7.746   1.763   6.661
 9967TIP3    H129844   7.815   1.799   6.602
 9967TIP3    H229845   7.669   1.816   6.633
 9968TIP3   OH229846   6.774   1.386   7.214
 9968TIP3    H129847   6.853   1.330   7.212
 9968TIP3    H229848   6.776   1.413   7.309
 9969TIP3   OH229849   6.825   1.221   5.665
 9969TIP3    H129850   6.805   1.184   5.753
 9969TIP3    H229851   6.865   1.144   5.619
 9970TIP3   OH229852   7.104   1.325   6.892
 9970TIP3    H129853   7.018   1.372   6.886
 9970TIP3    H229854   7.151   1.354   6.810
 9971TIP3   OH229855   6.932   1.013   5.516
 9971TIP3    H129856   6.907   1.020   5.421
 9971TIP3    H229857   7.030   1.015   5.507
 9972TIP3   OH229858   7.748   1.338   5.176
 9972TIP3    H129859   7.732   1.297   5.088
 9972TIP3    H229860   7.716   1.429   5.156
 9973TIP3   OH229861   7.194   1.087   6.985
 9973TIP3    H129862   7.175   1.171   6.939
 9973TIP3    H229863   7.172   1.021   6.918
 9974TIP3   OH229864   7.274   1.404   6.696
 9974TIP3    H129865   7.347   1.383   6.635
 9974TIP3    H229866   7.218   1.465   6.644
 9975TIP3   OH229867   7.040   1.191   7.189
 9975TIP3    H129868   6.978   1.118   7.193
 9975TIP3    H229869   7.095   1.167   7.111
 9976TIP3   OH229870   6.744   2.074   5.416
 9976TIP3    H129871   6.839   2.063   5.397
 9976TIP3    H229872   6.717   2.127   5.338
 9977TIP3   OH229873   6.221   1.456   5.628
 9977TIP3    H129874   6.316   1.476   5.614
 9977TIP3    H229875   6.214   1.367   5.587
 9978TIP3   OH229876   6.137   2.064   6.049
 9978TIP3    H129877   6.071   2.003   6.010
 9978TIP3    H229878   6.182   2.005   6.112
 9979TIP3   OH229879   6.270   1.910   6.235
 9979TIP3    H129880   6.262   1.841   6.303
 9979TIP3    H229881   6.325   1.975   6.283
 9980TIP3   OH229882   7.999   2.315   6.034
 9980TIP3    H129883   8.027   2.350   6.121
 9980TIP3    H229884   8.069   2.349   5.975
 9981TIP3   OH229885   8.025   2.340   6.315
 9981TIP3    H129886   7.981   2.253   6.309
 9981TIP3    H229887   8.098   2.316   6.375
 9982TIP3   OH229888   7.890   1.531   5.501
 9982TIP3    H129889   7.959   1.594   5.471
 9982TIP3    H229890   7.932   1.496   5.583
 9983TIP3   OH229891   8.009   1.414   5.714
 9983TIP3    H129892   7.942   1.366   5.768
 9983TIP3    H229893   8.073   1.444   5.781
 9984TIP3   OH229894   8.069   1.791   6.139
 9984TIP3    H129895   8.121   1.722   6.093
 9984TIP3    H229896   8.066   1.863   6.073
 9985TIP3   OH229897   7.904   2.090   6.332
 9985TIP3    H129898   7.831   2.125   6.386
 9985TIP3    H229899   7.856   2.042   6.261
 9986TIP3   OH229900   7.946   1.302   5.358
 9986TIP3    H129901   7.877   1.310   5.289
 9986TIP3    H229902   7.924   1.380   5.412
 9987TIP3   OH229903   7.817   0.965   5.298
 9987TIP3    H129904   7.797   1.040   5.241
 9987TIP3    H229905   7.775   0.892   5.249
 9988TIP3   OH229906   7.828   1.267   5.851
 9988TIP3    H129907   7.832   1.172   5.826
 9988TIP3    H229908   7.813   1.264   5.948
 9989TIP3   OH229909   6.453   1.333   6.604
 9989TIP3    H129910   6.451   1.297   6.513
 9989TIP3    H229911   6.551   1.329   6.621
 9990TIP3   OH229912   7.833   1.018   5.723
 9990TIP3    H129913   7.860   0.939   5.775
 9990TIP3    H229914   7.898   1.018   5.650
 9991TIP3   OH229915   7.983   1.164   6.255
 9991TIP3    H129916   8.076   1.155   6.231
 9991TIP3    H229917   7.988   1.187   6.349
 9992TIP3   OH229918   6.661   1.002   7.261
 9992TIP3    H129919   6.753   1.011   7.290
 9992TIP3    H229920   6.633   0.922   7.308
 9993TIP3   OH229921   6.431   0.976   6.677
 9993TIP3    H129922   6.480   0.980   6.591
 9993TIP3    H229923   6.469   1.051   6.724
 9994TIP3   OH229924   7.580   2.187   5.687
 9994TIP3    H129925   7.635   2.177   5.606
 9994TIP3    H229926   7.631   2.250   5.739
 9995TIP3   OH229927   6.683   1.993   7.071
 9995TIP3    H129928   6.590   1.966   7.062
 9995TIP3    H229929   6.700   1.973   7.164
 9996TIP3   OH229930   6.863   2.024   6.619
 9996TIP3    H129931   6.817   2.102   6.581
 9996TIP3    H229932   6.949   2.037   6.574
 9997TIP3   OH229933   7.297   2.264   6.750
 9997TIP3    H129934   7.336   2.265   6.840
 9997TIP3    H229935   7.364   2.315   6.701
 9998TIP3   OH229936   7.478   2.418   6.613
 9998TIP3    H129937   7.549   2.366   6.572
 9998TIP3    H229938   7.530   2.480   6.669
 9999TIP3   OH229939   6.536   2.278   6.646
 9999TIP3    H129940   6.445   2.309   6.626
 9999TIP3    H229941   6.554   2.328   6.727
10000TIP3   OH229942   6.773   2.258   6.505
10000TIP3    H129943   6.685   2.269   6.548
10000TIP3    H229944   6.754   2.290   6.414
10001TIP3   OH229945   7.199   2.283   6.302
10001TIP3    H129946   7.129   2.302   6.237
10001TIP3    H229947   7.210   2.371   6.344
10002TIP3   OH229948   7.468   2.221   6.352
10002TIP3    H129949   7.374   2.240   6.334
10002TIP3    H229950   7.513   2.295   6.308
10003TIP3   OH229951   7.671   2.412   6.265
10003TIP3    H129952   7.660   2.497   6.217
10003TIP3    H229953   7.700   2.352   6.192
10004TIP3   OH229954   6.446   2.069   6.389
10004TIP3    H129955   6.474   2.042   6.479
10004TIP3    H229956   6.519   2.028   6.338
10005TIP3   OH229957   6.644   1.945   6.250
10005TIP3    H129958   6.659   1.861   6.298
10005TIP3    H229959   6.736   1.980   6.247
10006TIP3   OH229960   6.912   2.035   6.255
10006TIP3    H129961   6.941   1.942   6.246
10006TIP3    H229962   6.962   2.058   6.336
10007TIP3   OH229963   6.235   1.850   5.776
10007TIP3    H129964   6.149   1.817   5.744
10007TIP3    H229965   6.228   1.944   5.749
10008TIP3   OH229966   7.009   2.026   5.362
10008TIP3    H129967   7.097   2.049   5.326
10008TIP3    H229968   6.987   1.951   5.302
10009TIP3   OH229969   7.730   2.153   5.456
10009TIP3    H129970   7.722   2.055   5.447
10009TIP3    H229971   7.683   2.183   5.376
10010TIP3   OH229972   6.313   1.866   5.415
10010TIP3    H129973   6.318   1.884   5.510
10010TIP3    H229974   6.399   1.822   5.398
10011TIP3   OH229975   7.934   2.294   6.644
10011TIP3    H129976   7.861   2.269   6.583
10011TIP3    H229977   7.924   2.392   6.645
10012TIP3   OH229978   8.467   1.962   5.917
10012TIP3    H129979   8.431   1.882   5.879
10012TIP3    H229980   8.560   1.958   5.886
10013TIP3   OH229981   8.199   1.210   5.698
10013TIP3    H129982   8.121   1.265   5.677
10013TIP3    H229983   8.186   1.134   5.640
10014TIP3   OH229984   8.276   1.454   5.833
10014TIP3    H129985   8.277   1.358   5.815
10014TIP3    H229986   8.319   1.488   5.753
10015TIP3   OH229987   8.090   1.695   5.395
10015TIP3    H129988   8.046   1.726   5.314
10015TIP3    H229989   8.116   1.781   5.436
10016TIP3   OH229990   8.297   1.808   6.301
10016TIP3    H129991   8.218   1.816   6.243
10016TIP3    H229992   8.256   1.775   6.382
10017TIP3   OH229993   8.136   2.021   5.972
10017TIP3    H129994   8.233   2.027   5.971
10017TIP3    H229995   8.115   2.098   6.027
10018TIP3   OH229996   8.270   2.227   5.496
10018TIP3    H129997   8.356   2.239   5.539
10018TIP3    H229998   8.233   2.154   5.549
10019TIP3   OH229999   8.263   0.995   5.460
10019TIP3    H130000   8.276   1.005   5.364
10019TIP3    H230001   8.166   1.006   5.467
10020TIP3   OH230002   8.169   1.292   5.196
10020TIP3    H130003   8.219   1.375   5.216
10020TIP3    H230004   8.096   1.300   5.260
10021TIP3   OH230005   8.317   2.208   6.115
10021TIP3    H130006   8.377   2.141   6.152
10021TIP3    H230007   8.344   2.288   6.162
10022TIP3   OH230008   8.269   1.536   5.261
10022TIP3    H130009   8.209   1.583   5.323
10022TIP3    H230010   8.279   1.602   5.190
10023TIP3   OH230011   8.278   1.734   5.061
10023TIP3    H130012   8.345   1.797   5.094
10023TIP3    H230013   8.308   1.718   4.969
10024TIP3   OH230014   8.237   1.030   5.184
10024TIP3    H130015   8.220   1.126   5.187
10024TIP3    H230016   8.149   0.992   5.181
10025TIP3   OH230017   8.131   1.952   5.466
10025TIP3    H130018   8.079   1.998   5.533
10025TIP3    H230019   8.119   2.009   5.387
10026TIP3   OH230020   8.275   2.482   6.513
10026TIP3    H130021   8.363   2.476   6.552
10026TIP3    H230022   8.246   2.388   6.516
10027TIP3   OH230023   8.007   1.710   5.113
10027TIP3    H130024   8.103   1.724   5.099
10027TIP3    H230025   7.997   1.619   5.078
10028TIP3   OH230026   7.935   2.322   5.536
10028TIP3    H130027   7.868   2.261   5.497
10028TIP3    H230028   7.982   2.261   5.597
10029TIP3   OH230029   8.071   2.162   5.717
10029TIP3    H130030   8.059   2.097   5.789
10029TIP3    H230031   8.122   2.230   5.764
10030TIP3   OH230032   8.248   1.591   6.072
10030TIP3    H130033   8.253   1.540   5.988
10030TIP3    H230034   8.341   1.608   6.091
10031TIP3   OH230035   8.325   2.524   6.139
10031TIP3    H130036   8.242   2.562   6.105
10031TIP3    H230037   8.324   2.562   6.228
10032TIP3   OH230038   8.590   2.513   6.011
10032TIP3    H130039   8.499   2.516   6.046
10032TIP3    H230040   8.574   2.546   5.920
10033TIP3   OH230041   8.236   2.330   5.876
10033TIP3    H130042   8.267   2.305   5.965
10033TIP3    H230043   8.309   2.290   5.823
10034TIP3   OH230044   8.423   2.194   5.735
10034TIP3    H130045   8.433   2.104   5.770
10034TIP3    H230046   8.515   2.211   5.703
10035TIP3   OH230047   8.042   2.099   5.250
10035TIP3    H130048   7.952   2.075   5.224
10035TIP3    H230049   8.035   2.196   5.250
10036TIP3   OH230050   8.105   2.132   4.921
10036TIP3    H130051   8.071   2.167   5.005
10036TIP3    H230052   8.173   2.070   4.951
10037TIP3   OH230053   1.678   2.459   7.092
10037TIP3    H130054   1.643   2.548   7.072
10037TIP3    H230055   1.604   2.404   7.060
10038TIP3   OH230056   1.657   2.467   7.465
10038TIP3    H130057   1.707   2.446   7.546
10038TIP3    H230058   1.618   2.381   7.442
10039TIP3   OH230059   1.922   2.761   7.162
10039TIP3    H130060   1.899   2.691   7.225
10039TIP3    H230061   1.950   2.833   7.221
10040TIP3   OH230062   0.950   2.766   7.566
10040TIP3    H130063   0.936   2.669   7.564
10040TIP3    H230064   1.048   2.768   7.562
10041TIP3   OH230065   1.571   3.222   7.180
10041TIP3    H130066   1.612   3.149   7.128
10041TIP3    H230067   1.556   3.179   7.265
10042TIP3   OH230068   1.471   2.682   7.512
10042TIP3    H130069   1.513   2.602   7.475
10042TIP3    H230070   1.551   2.725   7.549
10043TIP3   OH230071   2.485   2.000   7.507
10043TIP3    H130072   2.496   2.079   7.565
10043TIP3    H230073   2.497   2.039   7.420
10044TIP3   OH230074   1.872   2.160   7.564
10044TIP3    H130075   1.922   2.077   7.578
10044TIP3    H230076   1.847   2.151   7.469
10045TIP3   OH230077   1.249   1.841   7.518
10045TIP3    H130078   1.198   1.913   7.477
10045TIP3    H230079   1.191   1.764   7.498
10046TIP3   OH230080   1.910   1.938   7.179
10046TIP3    H130081   2.003   1.922   7.206
10046TIP3    H230082   1.913   1.930   7.082
10047TIP3   OH230083   1.287   2.234   7.431
10047TIP3    H130084   1.382   2.211   7.434
10047TIP3    H230085   1.247   2.150   7.399
10048TIP3   OH230086   2.536   2.192   7.694
10048TIP3    H130087   2.450   2.240   7.691
10048TIP3    H230088   2.589   2.250   7.752
10049TIP3   OH230089   1.568   2.680   6.961
10049TIP3    H130090   1.519   2.656   6.881
10049TIP3    H230091   1.518   2.760   6.990
10050TIP3   OH230092   2.149   1.928   7.317
10050TIP3    H130093   2.111   1.882   7.394
10050TIP3    H230094   2.182   2.011   7.356
10051TIP3   OH230095   0.559   2.479   7.081
10051TIP3    H130096   0.506   2.506   7.004
10051TIP3    H230097   0.578   2.563   7.126
10052TIP3   OH230098   1.988   3.005   7.324
10052TIP3    H130099   1.899   2.993   7.366
10052TIP3    H230100   1.976   3.091   7.279
10053TIP3   OH230101   2.281   1.873   7.679
10053TIP3    H130102   2.188   1.896   7.661
10053TIP3    H230103   2.330   1.929   7.617
10054TIP3   OH230104   1.685   3.047   6.998
10054TIP3    H130105   1.735   2.964   6.981
10054TIP3    H230106   1.747   3.112   6.958
10055TIP3   OH230107   1.830   2.832   6.912
10055TIP3    H130108   1.778   2.755   6.886
10055TIP3    H230109   1.872   2.799   6.995
10056TIP3   OH230110   2.211   2.912   7.668
10056TIP3    H130111   2.197   2.833   7.611
10056TIP3    H230112   2.188   2.985   7.607
10057TIP3   OH230113   1.506   2.311   6.933
10057TIP3    H130114   1.424   2.359   6.909
10057TIP3    H230115   1.548   2.299   6.845
10058TIP3   OH230116   1.459   2.099   6.653
10058TIP3    H130117   1.532   2.150   6.693
10058TIP3    H230118   1.509   2.030   6.606
10059TIP3   OH230119   2.408   2.552   7.520
10059TIP3    H130120   2.323   2.602   7.527
10059TIP3    H230121   2.435   2.578   7.429
10060TIP3   OH230122   1.853   2.393   6.893
10060TIP3    H130123   1.797   2.416   6.971
10060TIP3    H230124   1.935   2.364   6.938
10061TIP3   OH230125   2.077   2.460   7.783
10061TIP3    H130126   2.069   2.556   7.795
10061TIP3    H230127   1.995   2.443   7.733
10062TIP3   OH230128   1.087   2.393   7.311
10062TIP3    H130129   1.046   2.335   7.243
10062TIP3    H230130   1.157   2.335   7.349
10063TIP3   OH230131   1.221   2.806   7.460
10063TIP3    H130132   1.198   2.762   7.376
10063TIP3    H230133   1.307   2.764   7.481
10064TIP3   OH230134   1.205   2.377   7.655
10064TIP3    H130135   1.234   2.316   7.584
10064TIP3    H230136   1.276   2.442   7.655
10065TIP3   OH230137   1.750   2.993   7.448
10065TIP3    H130138   1.730   3.076   7.495
10065TIP3    H230139   1.725   2.924   7.513
10066TIP3   OH230140   1.684   2.250   6.724
10066TIP3    H130141   1.746   2.304   6.776
10066TIP3    H230142   1.713   2.271   6.632
10067TIP3   OH230143   1.439   2.923   6.998
10067TIP3    H130144   1.520   2.976   7.009
10067TIP3    H230145   1.377   2.986   6.959
10068TIP3   OH230146   2.207   1.482   6.774
10068TIP3    H130147   2.127   1.503   6.827
10068TIP3    H230148   2.219   1.567   6.726
10069TIP3   OH230149   0.965   2.237   7.104
10069TIP3    H130150   0.896   2.281   7.049
10069TIP3    H230151   0.909   2.166   7.141
10070TIP3   OH230152   2.007   2.854   6.324
10070TIP3    H130153   2.015   2.951   6.310
10070TIP3    H230154   2.100   2.825   6.312
10071TIP3   OH230155   2.446   3.268   7.706
10071TIP3    H130156   2.451   3.171   7.720
10071TIP3    H230157   2.367   3.285   7.763
10072TIP3   OH230158   1.575   3.058   7.874
10072TIP3    H130159   1.515   3.128   7.904
10072TIP3    H230160   1.512   2.982   7.867
10073TIP3   OH230161   1.320   3.172   6.804
10073TIP3    H130162   1.270   3.153   6.723
10073TIP3    H230163   1.284   3.259   6.832
10074TIP3   OH230164   0.755   3.022   7.192
10074TIP3    H130165   0.805   3.013   7.276
10074TIP3    H230166   0.711   2.935   7.187
10075TIP3   OH230167   1.517   3.076   6.442
10075TIP3    H130168   1.575   3.004   6.408
10075TIP3    H230169   1.551   3.085   6.534
10076TIP3   OH230170   1.570   3.123   6.711
10076TIP3    H130171   1.481   3.133   6.753
10076TIP3    H230172   1.619   3.080   6.783
10077TIP3   OH230173   1.772   2.289   6.471
10077TIP3    H130174   1.733   2.267   6.384
10077TIP3    H230175   1.855   2.333   6.444
10078TIP3   OH230176   1.132   2.020   7.337
10078TIP3    H130177   1.037   2.038   7.328
10078TIP3    H230178   1.150   1.976   7.251
10079TIP3   OH230179   1.636   2.115   7.079
10079TIP3    H130180   1.587   2.182   7.027
10079TIP3    H230181   1.699   2.080   7.011
10080TIP3   OH230182   1.790   2.142   7.304
10080TIP3    H130183   1.729   2.162   7.229
10080TIP3    H230184   1.830   2.061   7.265
10081TIP3   OH230185   1.150   1.636   6.742
10081TIP3    H130186   1.130   1.628   6.838
10081TIP3    H230187   1.074   1.693   6.714
10082TIP3   OH230188   1.824   2.404   7.673
10082TIP3    H130189   1.841   2.311   7.646
10082TIP3    H230190   1.787   2.395   7.763
10083TIP3   OH230191   1.490   1.834   7.390
10083TIP3    H130192   1.400   1.837   7.432
10083TIP3    H230193   1.545   1.864   7.463
10084TIP3   OH230194   1.177   1.897   7.097
10084TIP3    H130195   1.270   1.911   7.071
10084TIP3    H230196   1.127   1.922   7.015
10085TIP3   OH230197   1.976   1.908   7.624
10085TIP3    H130198   1.939   1.924   7.713
10085TIP3    H230199   1.906   1.850   7.585
10086TIP3   OH230200   1.031   1.925   6.869
10086TIP3    H130201   0.965   1.878   6.815
10086TIP3    H230202   1.085   1.965   6.798
10087TIP3   OH230203   2.166   3.605   7.798
10087TIP3    H130204   2.161   3.619   7.702
10087TIP3    H230205   2.224   3.678   7.825
10088TIP3   OH230206   1.562   2.177   7.472
10088TIP3    H130207   1.636   2.150   7.415
10088TIP3    H230208   1.591   2.146   7.559
10089TIP3   OH230209   1.124   1.622   7.395
10089TIP3    H130210   1.047   1.587   7.342
10089TIP3    H230211   1.188   1.638   7.324
10090TIP3   OH230212   1.272   2.460   6.874
10090TIP3    H130213   1.200   2.395   6.862
10090TIP3    H230214   1.252   2.493   6.966
10091TIP3   OH230215   2.173   2.694   7.502
10091TIP3    H130216   2.195   2.747   7.423
10091TIP3    H230217   2.087   2.653   7.478
10092TIP3   OH230218   1.810   2.040   6.884
10092TIP3    H130219   1.904   2.024   6.869
10092TIP3    H230220   1.781   2.085   6.803
10093TIP3   OH230221   0.969   2.494   7.547
10093TIP3    H130222   0.995   2.458   7.460
10093TIP3    H230223   1.028   2.445   7.606
10094TIP3   OH230224   1.418   2.610   6.701
10094TIP3    H130225   1.369   2.695   6.706
10094TIP3    H230226   1.364   2.553   6.760
10095TIP3   OH230227   1.840   3.030   7.798
10095TIP3    H130228   1.744   3.042   7.813
10095TIP3    H230229   1.877   3.085   7.868
10096TIP3   OH230230   2.242   2.112   6.676
10096TIP3    H130231   2.181   2.068   6.613
10096TIP3    H230232   2.235   2.203   6.639
10097TIP3   OH230233   2.456   2.982   7.755
10097TIP3    H130234   2.358   2.968   7.747
10097TIP3    H230235   2.483   2.941   7.671
10098TIP3   OH230236   1.947   2.930   6.593
10098TIP3    H130237   1.914   2.863   6.655
10098TIP3    H230238   1.955   2.880   6.510
10099TIP3   OH230239   1.940   2.566   7.410
10099TIP3    H130240   1.848   2.540   7.429
10099TIP3    H230241   1.973   2.483   7.369
10100TIP3   OH230242   1.068   2.789   7.178
10100TIP3    H130243   1.060   2.869   7.123
10100TIP3    H230244   0.976   2.764   7.192
10101TIP3   OH230245   0.603   2.111   6.894
10101TIP3    H130246   0.678   2.173   6.895
10101TIP3    H230247   0.588   2.110   6.991
10102TIP3   OH230248   1.202   2.553   7.117
10102TIP3    H130249   1.168   2.642   7.141
10102TIP3    H230250   1.168   2.500   7.192
10103TIP3   OH230251   1.333   3.131   7.628
10103TIP3    H130252   1.380   3.207   7.588
10103TIP3    H230253   1.405   3.081   7.668
10104TIP3   OH230254   0.982   3.030   7.029
10104TIP3    H130255   0.898   3.038   7.078
10104TIP3    H230256   1.015   3.122   7.033
10105TIP3   OH230257   1.725   2.763   7.611
10105TIP3    H130258   1.753   2.765   7.704
10105TIP3    H230259   1.801   2.718   7.572
10106TIP3   OH230260   1.701   2.663   6.489
10106TIP3    H130261   1.755   2.637   6.567
10106TIP3    H230262   1.614   2.628   6.516
10107TIP3   OH230263   1.964   3.293   7.656
10107TIP3    H130264   1.882   3.240   7.644
10107TIP3    H230265   1.952   3.360   7.584
10108TIP3   OH230266   2.038   3.130   6.308
10108TIP3    H130267   2.073   3.206   6.258
10108TIP3    H230268   1.957   3.172   6.344
10109TIP3   OH230269   1.864   2.591   6.698
10109TIP3    H130270   1.849   2.526   6.770
10109TIP3    H230271   1.961   2.586   6.691
10110TIP3   OH230272   1.060   2.637   6.491
10110TIP3    H130273   1.074   2.544   6.466
10110TIP3    H230274   1.041   2.628   6.586
10111TIP3   OH230275   1.006   2.644   6.762
10111TIP3    H130276   1.080   2.611   6.816
10111TIP3    H230277   1.014   2.741   6.775
10112TIP3   OH230278   0.757   2.339   6.951
10112TIP3    H130279   0.690   2.370   7.016
10112TIP3    H230280   0.759   2.415   6.890
10113TIP3   OH230281   1.276   2.840   6.709
10113TIP3    H130282   1.189   2.863   6.748
10113TIP3    H230283   1.289   2.916   6.651
10114TIP3   OH230284   1.462   1.904   7.121
10114TIP3    H130285   1.526   1.976   7.102
10114TIP3    H230286   1.470   1.897   7.218
10115TIP3   OH230287   1.632   1.639   7.238
10115TIP3    H130288   1.586   1.718   7.275
10115TIP3    H230289   1.672   1.676   7.158
10116TIP3   OH230290   1.023   2.917   6.782
10116TIP3    H130291   0.992   2.987   6.720
10116TIP3    H230292   1.006   2.959   6.869
10117TIP3   OH230293   1.126   1.635   7.025
10117TIP3    H130294   1.132   1.731   7.045
10117TIP3    H230295   1.221   1.611   7.037
10118TIP3   OH230296   2.022   2.313   7.300
10118TIP3    H130297   1.942   2.258   7.308
10118TIP3    H230298   2.089   2.262   7.351
10119TIP3   OH230299   0.745   2.546   6.762
10119TIP3    H130300   0.824   2.603   6.773
10119TIP3    H230301   0.784   2.480   6.699
10120TIP3   OH230302   0.728   1.850   6.821
10120TIP3    H130303   0.746   1.928   6.877
10120TIP3    H230304   0.688   1.791   6.886
10121TIP3   OH230305   1.993   3.276   7.248
10121TIP3    H130306   1.949   3.324   7.173
10121TIP3    H230307   2.087   3.294   7.226
10122TIP3   OH230308   0.610   2.781   7.160
10122TIP3    H130309   0.527   2.799   7.207
10122TIP3    H230310   0.584   2.810   7.069
10123TIP3   OH230311   1.225   2.837   6.399
10123TIP3    H130312   1.168   2.767   6.439
10123TIP3    H230313   1.302   2.783   6.373
10124TIP3   OH230314   1.662   2.877   6.317
10124TIP3    H130315   1.695   2.808   6.379
10124TIP3    H230316   1.724   2.869   6.242
10125TIP3   OH230317   0.874   2.351   6.627
10125TIP3    H130318   0.929   2.320   6.702
10125TIP3    H230319   0.944   2.358   6.557
10126TIP3   OH230320   1.392   2.560   6.432
10126TIP3    H130321   1.392   2.570   6.529
10126TIP3    H230322   1.393   2.461   6.425
10127TIP3   OH230323   1.982   2.779   7.769
10127TIP3    H130324   2.073   2.812   7.759
10127TIP3    H230325   1.936   2.863   7.790
10128TIP3   OH230326   1.074   2.271   6.837
10128TIP3    H130327   1.048   2.241   6.926
10128TIP3    H230328   1.111   2.189   6.797
10129TIP3   OH230329   1.183   2.059   6.688
10129TIP3    H130330   1.157   2.064   6.594
10129TIP3    H230331   1.281   2.063   6.681
10130TIP3   OH230332   2.004   2.386   6.351
10130TIP3    H130333   1.982   2.341   6.266
10130TIP3    H230334   1.969   2.476   6.331
10131TIP3   OH230335   0.993   3.123   6.595
10131TIP3    H130336   1.087   3.109   6.573
10131TIP3    H230337   0.965   3.172   6.515
10132TIP3   OH230338   0.480   2.497   6.801
10132TIP3    H130339   0.575   2.518   6.790
10132TIP3    H230340   0.475   2.407   6.763
10133TIP3   OH230341   0.364   3.116   7.229
10133TIP3    H130342   0.330   3.048   7.170
10133TIP3    H230343   0.410   3.063   7.297
10134TIP3   OH230344   0.504   2.972   7.413
10134TIP3    H130345   0.535   2.886   7.444
10134TIP3    H230346   0.562   3.033   7.464
10135TIP3   OH230347   2.251   3.358   7.212
10135TIP3    H130348   2.278   3.388   7.301
10135TIP3    H230349   2.316   3.402   7.155
10136TIP3   OH230350   2.281   3.378   7.494
10136TIP3    H130351   2.228   3.296   7.484
10136TIP3    H230352   2.345   3.346   7.559
10137TIP3   OH230353   2.143   2.569   6.682
10137TIP3    H130354   2.209   2.636   6.654
10137TIP3    H230355   2.186   2.532   6.763
10138TIP3   OH230356   2.269   2.436   6.888
10138TIP3    H130357   2.200   2.393   6.943
10138TIP3    H230358   2.328   2.475   6.956
10139TIP3   OH230359   2.330   2.838   7.322
10139TIP3    H130360   2.378   2.767   7.275
10139TIP3    H230361   2.319   2.906   7.252
10140TIP3   OH230362   2.148   3.136   7.509
10140TIP3    H130363   2.075   3.171   7.563
10140TIP3    H230364   2.100   3.088   7.438
10141TIP3   OH230365   2.204   2.347   6.532
10141TIP3    H130366   2.133   2.350   6.464
10141TIP3    H230367   2.176   2.422   6.588
10142TIP3   OH230368   2.082   2.011   6.480
10142TIP3    H130369   2.026   2.051   6.412
10142TIP3    H230370   2.057   1.917   6.471
10143TIP3   OH230371   2.080   2.294   7.028
10143TIP3    H130372   2.077   2.197   7.016
10143TIP3    H230373   2.063   2.303   7.125
10144TIP3   OH230374   2.347   2.694   7.857
10144TIP3    H130375   2.436   2.669   7.886
10144TIP3    H230376   2.354   2.790   7.846
10145TIP3   OH230377   2.554   2.522   7.916
10145TIP3    H130378   2.470   2.479   7.939
10145TIP3    H230379   2.611   2.446   7.892
10146TIP3   OH230380   2.014   1.744   6.469
10146TIP3    H130381   2.080   1.717   6.534
10146TIP3    H230382   1.931   1.704   6.504
10147TIP3   OH230383   2.093   2.016   6.917
10147TIP3    H130384   2.130   1.928   6.938
10147TIP3    H230385   2.150   2.044   6.843
10148TIP3   OH230386   2.234   2.181   7.430
10148TIP3    H130387   2.318   2.206   7.387
10148TIP3    H230388   2.246   2.224   7.517
10149TIP3   OH230389   2.304   2.336   7.662
10149TIP3    H130390   2.227   2.374   7.711
10149TIP3    H230391   2.337   2.416   7.616
10150TIP3   OH230392   2.196   1.760   6.969
10150TIP3    H130393   2.209   1.758   7.065
10150TIP3    H230394   2.129   1.689   6.958
10151TIP3   OH230395   2.265   1.694   6.605
10151TIP3    H130396   2.302   1.627   6.544
10151TIP3    H230397   2.329   1.767   6.596
10152TIP3   OH230398   1.831   3.232   6.864
10152TIP3    H130399   1.884   3.221   6.782
10152TIP3    H230400   1.884   3.297   6.913
10153TIP3   OH230401   1.088   3.075   7.784
10153TIP3    H130402   1.078   3.163   7.741
10153TIP3    H230403   1.183   3.061   7.768
10154TIP3   OH230404   1.724   3.471   7.762
10154TIP3    H130405   1.805   3.419   7.755
10154TIP3    H230406   1.718   3.486   7.859
10155TIP3   OH230407   1.018   3.316   7.671
10155TIP3    H130408   0.942   3.356   7.716
10155TIP3    H230409   1.000   3.338   7.577
10156TIP3   OH230410   1.450   3.330   7.472
10156TIP3    H130411   1.376   3.344   7.410
10156TIP3    H230412   1.459   3.420   7.511
10157TIP3   OH230413   1.715   3.261   7.523
10157TIP3    H130414   1.621   3.280   7.507
10157TIP3    H230415   1.756   3.343   7.494
10158TIP3   OH230416   1.931   3.461   7.443
10158TIP3    H130417   1.910   3.543   7.394
10158TIP3    H230418   1.950   3.398   7.370
10159TIP3   OH230419   0.696   3.114   7.554
10159TIP3    H130420   0.716   3.099   7.647
10159TIP3    H230421   0.773   3.068   7.511
10160TIP3   OH230422   0.897   2.989   7.423
10160TIP3    H130423   0.912   2.904   7.471
10160TIP3    H230424   0.989   3.023   7.419
10161TIP3   OH230425   1.161   3.077   7.424
10161TIP3    H130426   1.187   2.983   7.418
10161TIP3    H230427   1.212   3.101   7.505
10162TIP3   OH230428   1.764   1.753   7.530
10162TIP3    H130429   1.704   1.678   7.537
10162TIP3    H230430   1.826   1.721   7.460
10163TIP3   OH230431   2.391   1.700   7.219
10163TIP3    H130432   2.431   1.663   7.138
10163TIP3    H230433   2.391   1.796   7.195
10164TIP3   OH230434   1.418   1.480   7.377
10164TIP3    H130435   1.476   1.535   7.322
10164TIP3    H230436   1.411   1.529   7.459
10165TIP3   OH230437   1.963   1.629   7.392
10165TIP3    H130438   1.968   1.593   7.303
10165TIP3    H230439   1.956   1.547   7.446
10166TIP3   OH230440   2.019   1.548   6.961
10166TIP3    H130441   1.929   1.576   6.928
10166TIP3    H230442   1.991   1.467   7.007
10167TIP3   OH230443   0.469   2.890   6.956
10167TIP3    H130444   0.404   2.839   6.907
10167TIP3    H230445   0.460   2.979   6.913
10168TIP3   OH230446   1.393   1.639   7.072
10168TIP3    H130447   1.473   1.596   7.042
10168TIP3    H230448   1.421   1.733   7.074
10169TIP3   OH230449   1.257   3.071   6.538
10169TIP3    H130450   1.345   3.094   6.501
10169TIP3    H230451   1.235   2.996   6.478
10170TIP3   OH230452   1.981   3.197   6.633
10170TIP3    H130453   1.973   3.099   6.624
10170TIP3    H230454   1.932   3.226   6.553
10171TIP3   OH230455   0.565   2.915   6.594
10171TIP3    H130456   0.569   2.939   6.687
10171TIP3    H230457   0.651   2.869   6.579
10172TIP3   OH230458   2.194   3.329   7.804
10172TIP3    H130459   2.114   3.308   7.751
10172TIP3    H230460   2.181   3.424   7.820
10173TIP3   OH230461   3.470   2.715   6.580
10173TIP3    H130462   3.437   2.805   6.557
10173TIP3    H230463   3.396   2.661   6.548
10174TIP3   OH230464   3.472   2.714   6.972
10174TIP3    H130465   3.507   2.689   7.059
10174TIP3    H230466   3.429   2.632   6.943
10175TIP3   OH230467   2.767   2.604   7.326
10175TIP3    H130468   2.793   2.535   7.390
10175TIP3    H230469   2.846   2.659   7.325
10176TIP3   OH230470   3.717   3.014   6.651
10176TIP3    H130471   3.696   2.945   6.715
10176TIP3    H230472   3.745   3.088   6.708
10177TIP3   OH230473   2.743   3.020   7.054
10177TIP3    H130474   2.734   2.922   7.054
10177TIP3    H230475   2.840   3.028   7.046
10178TIP3   OH230476   2.446   2.217   6.836
10178TIP3    H130477   2.396   2.299   6.857
10178TIP3    H230478   2.376   2.166   6.791
10179TIP3   OH230479   2.505   2.508   7.020
10179TIP3    H130480   2.554   2.429   7.051
10179TIP3    H230481   2.559   2.538   6.946
10180TIP3   OH230482   3.367   3.478   6.667
10180TIP3    H130483   3.407   3.406   6.614
10180TIP3    H230484   3.349   3.433   6.751
10181TIP3   OH230485   3.265   2.939   7.015
10181TIP3    H130486   3.305   2.863   6.971
10181TIP3    H230487   3.348   2.986   7.040
10182TIP3   OH230488   4.285   2.257   7.015
10182TIP3    H130489   4.313   2.341   7.057
10182TIP3    H230490   4.304   2.276   6.921
10183TIP3   OH230491   3.680   2.438   7.043
10183TIP3    H130492   3.722   2.352   7.064
10183TIP3    H230493   3.647   2.420   6.953
10184TIP3   OH230494   3.024   2.098   7.008
10184TIP3    H130495   3.001   2.171   6.946
10184TIP3    H230496   2.974   2.025   6.966
10185TIP3   OH230497   3.716   2.191   6.630
10185TIP3    H130498   3.787   2.177   6.697
10185TIP3    H230499   3.768   2.226   6.556
10186TIP3   OH230500   2.650   2.298   7.119
10186TIP3    H130501   2.734   2.280   7.166
10186TIP3    H230502   2.664   2.244   7.039
10187TIP3   OH230503   3.090   2.497   6.914
10187TIP3    H130504   3.184   2.473   6.926
10187TIP3    H230505   3.052   2.413   6.881
10188TIP3   OH230506   4.357   2.467   7.183
10188TIP3    H130507   4.271   2.512   7.167
10188TIP3    H230508   4.380   2.503   7.270
10189TIP3   OH230509   3.017   2.082   7.440
10189TIP3    H130510   2.958   2.119   7.372
10189TIP3    H230511   2.963   2.099   7.520
10190TIP3   OH230512   3.356   2.933   6.450
10190TIP3    H130513   3.316   2.919   6.363
10190TIP3    H230514   3.311   3.015   6.479
10191TIP3   OH230515   3.122   2.859   7.236
10191TIP3    H130516   3.061   2.928   7.272
10191TIP3    H230517   3.164   2.906   7.161
10192TIP3   OH230518   3.918   2.197   6.812
10192TIP3    H130519   3.896   2.157   6.897
10192TIP3    H230520   3.969   2.276   6.839
10193TIP3   OH230521   2.887   2.197   7.226
10193TIP3    H130522   2.949   2.270   7.250
10193TIP3    H230523   2.937   2.157   7.151
10194TIP3   OH230524   2.951   3.056   7.337
10194TIP3    H130525   2.925   3.143   7.301
10194TIP3    H230526   2.871   3.037   7.391
10195TIP3   OH230527   2.342   2.745   6.573
10195TIP3    H130528   2.297   2.771   6.490
10195TIP3    H230529   2.372   2.831   6.607
10196TIP3   OH230530   3.779   3.261   6.814
10196TIP3    H130531   3.693   3.243   6.860
10196TIP3    H230532   3.757   3.344   6.769
10197TIP3   OH230533   4.076   2.154   7.178
10197TIP3    H130534   3.989   2.182   7.145
10197TIP3    H230535   4.137   2.188   7.108
10198TIP3   OH230536   3.366   1.795   7.163
10198TIP3    H130537   3.349   1.701   7.180
10198TIP3    H230538   3.289   1.836   7.209
10199TIP3   OH230539   3.482   3.305   6.485
10199TIP3    H130540   3.531   3.221   6.466
10199TIP3    H230541   3.546   3.369   6.447
10200TIP3   OH230542   3.624   3.088   6.401
10200TIP3    H130543   3.586   3.008   6.363
10200TIP3    H230544   3.664   3.053   6.484
10201TIP3   OH230545   4.005   3.171   7.156
10201TIP3    H130546   3.993   3.092   7.098
10201TIP3    H230547   3.991   3.245   7.093
10202TIP3   OH230548   3.300   2.564   6.419
10202TIP3    H130549   3.220   2.617   6.400
10202TIP3    H230550   3.344   2.561   6.332
10203TIP3   OH230551   3.257   2.353   6.127
10203TIP3    H130552   3.325   2.404   6.175
10203TIP3    H230553   3.315   2.289   6.080
10204TIP3   OH230554   4.201   2.809   7.004
10204TIP3    H130555   4.117   2.860   7.009
10204TIP3    H230556   4.232   2.834   6.915
10205TIP3   OH230557   3.649   2.648   6.384
10205TIP3    H130558   3.593   2.672   6.462
10205TIP3    H230559   3.733   2.623   6.429
10206TIP3   OH230560   3.881   2.683   7.306
10206TIP3    H130561   3.879   2.766   7.357
10206TIP3    H230562   3.795   2.688   7.260
10207TIP3   OH230563   2.879   2.642   6.805
10207TIP3    H130564   2.838   2.584   6.737
10207TIP3    H230565   2.955   2.588   6.834
10208TIP3   OH230566   3.010   3.058   6.949
10208TIP3    H130567   2.989   3.023   6.861
10208TIP3    H230568   3.098   3.019   6.966
10209TIP3   OH230569   3.020   2.613   7.160
10209TIP3    H130570   3.049   2.590   7.070
10209TIP3    H230571   3.060   2.701   7.174
10210TIP3   OH230572   3.543   3.252   6.939
10210TIP3    H130573   3.527   3.331   6.993
10210TIP3    H230574   3.524   3.179   7.002
10211TIP3   OH230575   3.154   3.173   7.482
10211TIP3    H130576   3.092   3.233   7.529
10211TIP3    H230577   3.090   3.119   7.431
10212TIP3   OH230578   3.485   2.505   6.214
10212TIP3    H130579   3.544   2.566   6.263
10212TIP3    H230580   3.512   2.525   6.120
10213TIP3   OH230581   2.913   2.719   7.587
10213TIP3    H130582   2.920   2.811   7.622
10213TIP3    H230583   2.817   2.703   7.597
10214TIP3   OH230584   3.235   3.180   6.488
10214TIP3    H130585   3.316   3.234   6.495
10214TIP3    H230586   3.173   3.239   6.444
10215TIP3   OH230587   2.944   3.338   7.572
10215TIP3    H130588   2.912   3.337   7.480
10215TIP3    H230589   2.864   3.314   7.623
10216TIP3   OH230590   4.003   1.742   6.264
10216TIP3    H130591   3.921   1.765   6.313
10216TIP3    H230592   4.018   1.824   6.213
10217TIP3   OH230593   2.747   2.487   6.606
10217TIP3    H130594   2.677   2.532   6.554
10217TIP3    H230595   2.707   2.400   6.619
10218TIP3   OH230596   3.802   3.111   5.814
10218TIP3    H130597   3.810   3.208   5.796
10218TIP3    H230598   3.895   3.082   5.800
10219TIP3   OH230599   2.528   2.875   7.517
10219TIP3    H130600   2.455   2.858   7.453
10219TIP3    H230601   2.563   2.785   7.533
10220TIP3   OH230602   2.380   3.067   7.142
10220TIP3    H130603   2.476   3.063   7.140
10220TIP3    H230604   2.364   3.143   7.200
10221TIP3   OH230605   4.245   3.516   7.207
10221TIP3    H130606   4.244   3.420   7.225
10221TIP3    H230607   4.162   3.543   7.251
10222TIP3   OH230608   3.350   3.301   7.341
10222TIP3    H130609   3.345   3.393   7.373
10222TIP3    H230610   3.278   3.259   7.393
10223TIP3   OH230611   3.117   3.427   6.293
10223TIP3    H130612   3.068   3.409   6.211
10223TIP3    H230613   3.081   3.514   6.320
10224TIP3   OH230614   2.551   3.276   6.677
10224TIP3    H130615   2.596   3.267   6.764
10224TIP3    H230616   2.501   3.192   6.674
10225TIP3   OH230617   3.313   3.332   5.930
10225TIP3    H130618   3.371   3.261   5.893
10225TIP3    H230619   3.350   3.342   6.020
10226TIP3   OH230620   3.368   3.380   6.200
10226TIP3    H130621   3.278   3.391   6.239
10226TIP3    H230622   3.415   3.337   6.273
10227TIP3   OH230623   4.133   2.644   7.482
10227TIP3    H130624   4.049   2.652   7.434
10227TIP3    H230625   4.150   2.548   7.475
10228TIP3   OH230626   2.731   3.058   7.501
10228TIP3    H130627   2.783   3.036   7.580
10228TIP3    H230628   2.655   2.996   7.509
10229TIP3   OH230629   3.130   1.877   7.290
10229TIP3    H130630   3.042   1.847   7.260
10229TIP3    H230631   3.103   1.957   7.340
10230TIP3   OH230632   3.664   1.992   7.485
10230TIP3    H130633   3.734   1.964   7.548
10230TIP3    H230634   3.582   1.972   7.534
10231TIP3   OH230635   3.900   2.420   7.401
10231TIP3    H130636   3.850   2.417   7.486
10231TIP3    H230637   3.877   2.509   7.366
10232TIP3   OH230638   3.565   2.544   5.959
10232TIP3    H130639   3.527   2.525   5.871
10232TIP3    H230640   3.649   2.589   5.933
10233TIP3   OH230641   3.276   1.921   6.263
10233TIP3    H130642   3.240   1.919   6.353
10233TIP3    H230643   3.234   1.841   6.226
10234TIP3   OH230644   3.065   2.392   7.309
10234TIP3    H130645   3.011   2.411   7.389
10234TIP3    H230646   3.049   2.473   7.256
10235TIP3   OH230647   2.946   2.279   6.822
10235TIP3    H130648   2.853   2.253   6.841
10235TIP3    H230649   2.957   2.238   6.734
10236TIP3   OH230650   3.436   2.364   6.554
10236TIP3    H130651   3.386   2.435   6.509
10236TIP3    H230652   3.491   2.329   6.480
10237TIP3   OH230653   3.615   2.643   7.630
10237TIP3    H130654   3.592   2.569   7.691
10237TIP3    H230655   3.709   2.656   7.654
10238TIP3   OH230656   3.592   2.389   6.787
10238TIP3    H130657   3.528   2.416   6.718
10238TIP3    H230658   3.629   2.310   6.742
10239TIP3   OH230659   2.884   2.421   7.513
10239TIP3    H130660   2.901   2.488   7.581
10239TIP3    H230661   2.873   2.340   7.567
10240TIP3   OH230662   2.935   1.900   6.227
10240TIP3    H130663   2.921   1.900   6.324
10240TIP3    H230664   2.856   1.952   6.199
10241TIP3   OH230665   2.471   1.929   7.106
10241TIP3    H130666   2.547   1.972   7.150
10241TIP3    H230667   2.502   1.911   7.016
10242TIP3   OH230668   2.440   1.922   6.617
10242TIP3    H130669   2.484   1.959   6.538
10242TIP3    H230670   2.377   1.995   6.636
10243TIP3   OH230671   3.603   2.635   7.209
10243TIP3    H130672   3.637   2.564   7.149
10243TIP3    H230673   3.572   2.581   7.284
10244TIP3   OH230674   3.281   2.096   6.882
10244TIP3    H130675   3.199   2.098   6.935
10244TIP3    H230676   3.349   2.092   6.950
10245TIP3   OH230677   2.707   2.159   6.889
10245TIP3    H130678   2.613   2.168   6.860
10245TIP3    H230679   2.728   2.066   6.865
10246TIP3   OH230680   2.972   2.151   6.582
10246TIP3    H130681   3.065   2.167   6.559
10246TIP3    H230682   2.923   2.173   6.499
10247TIP3   OH230683   3.766   2.176   7.084
10247TIP3    H130684   3.736   2.190   7.177
10247TIP3    H230685   3.696   2.116   7.053
10248TIP3   OH230686   2.825   2.186   6.357
10248TIP3    H130687   2.754   2.141   6.309
10248TIP3    H230688   2.876   2.224   6.282
10249TIP3   OH230689   3.942   3.868   7.308
10249TIP3    H130690   3.924   3.933   7.238
10249TIP3    H230691   4.025   3.906   7.346
10250TIP3   OH230692   2.912   2.976   7.709
10250TIP3    H130693   2.986   3.005   7.766
10250TIP3    H230694   2.839   2.977   7.775
10251TIP3   OH230695   3.355   2.431   6.982
10251TIP3    H130696   3.429   2.391   6.933
10251TIP3    H230697   3.359   2.386   7.068
10252TIP3   OH230698   2.876   1.914   6.865
10252TIP3    H130699   2.838   1.838   6.914
10252TIP3    H230700   2.914   1.871   6.788
10253TIP3   OH230701   3.333   2.330   7.268
10253TIP3    H130702   3.242   2.364   7.283
10253TIP3    H230703   3.388   2.393   7.319
10254TIP3   OH230704   3.069   2.714   6.366
10254TIP3    H130705   2.997   2.650   6.353
10254TIP3    H230706   3.048   2.749   6.456
10255TIP3   OH230707   3.966   2.953   6.991
10255TIP3    H130708   3.991   3.003   6.910
10255TIP3    H230709   3.882   2.909   6.964
10256TIP3   OH230710   3.527   2.023   6.237
10256TIP3    H130711   3.430   2.004   6.243
10256TIP3    H230712   3.532   2.119   6.258
10257TIP3   OH230713   3.469   3.037   7.363
10257TIP3    H130714   3.499   3.019   7.453
10257TIP3    H230715   3.428   3.125   7.371
10258TIP3   OH230716   3.593   2.277   6.336
10258TIP3    H130717   3.689   2.284   6.349
10258TIP3    H230718   3.572   2.357   6.283
10259TIP3   OH230719   2.767   2.746   7.039
10259TIP3    H130720   2.803   2.712   6.954
10259TIP3    H230721   2.800   2.681   7.103
10260TIP3   OH230722   3.216   2.866   6.192
10260TIP3    H130723   3.166   2.952   6.193
10260TIP3    H230724   3.160   2.811   6.251
10261TIP3   OH230725   2.647   2.654   7.642
10261TIP3    H130726   2.661   2.652   7.739
10261TIP3    H230727   2.565   2.602   7.632
10262TIP3   OH230728   3.373   2.777   7.670
10262TIP3    H130729   3.311   2.720   7.623
10262TIP3    H230730   3.459   2.741   7.639
10263TIP3   OH230731   3.626   3.301   7.257
10263TIP3    H130732   3.530   3.296   7.273
10263TIP3    H230733   3.654   3.350   7.337
10264TIP3   OH230734   4.036   2.371   6.165
10264TIP3    H130735   3.974   2.327   6.102
10264TIP3    H230736   4.030   2.461   6.127
10265TIP3   OH230737   4.256   3.226   7.247
10265TIP3    H130738   4.158   3.220   7.238
10265TIP3    H230739   4.282   3.197   7.157
10266TIP3   OH230740   3.745   3.185   6.079
10266TIP3    H130741   3.710   3.115   6.136
10266TIP3    H230742   3.754   3.140   5.993
10267TIP3   OH230743   3.734   2.817   6.905
10267TIP3    H130744   3.641   2.792   6.921
10267TIP3    H230745   3.767   2.735   6.862
10268TIP3   OH230746   2.865   3.046   6.668
10268TIP3    H130747   2.859   3.126   6.612
10268TIP3    H230748   2.771   3.025   6.680
10269TIP3   OH230749   2.431   2.346   6.376
10269TIP3    H130750   2.473   2.432   6.397
10269TIP3    H230751   2.352   2.349   6.434
10270TIP3   OH230752   2.994   2.807   6.608
10270TIP3    H130753   2.961   2.897   6.628
10270TIP3    H230754   2.958   2.756   6.683
10271TIP3   OH230755   3.134   3.386   7.134
10271TIP3    H130756   3.176   3.458   7.083
10271TIP3    H230757   3.211   3.348   7.180
10272TIP3   OH230758   2.781   3.282   6.518
10272TIP3    H130759   2.696   3.291   6.565
10272TIP3    H230760   2.814   3.375   6.521
10273TIP3   OH230761   3.517   3.021   7.095
10273TIP3    H130762   3.506   3.020   7.193
10273TIP3    H230763   3.595   2.964   7.085
10274TIP3   OH230764   3.499   2.917   5.978
10274TIP3    H130765   3.550   2.891   6.057
10274TIP3    H230766   3.410   2.887   6.003
10275TIP3   OH230767   3.767   3.550   7.143
10275TIP3    H130768   3.689   3.492   7.141
10275TIP3    H230769   3.745   3.614   7.072
10276TIP3   OH230770   3.832   3.386   5.794
10276TIP3    H130771   3.861   3.455   5.732
10276TIP3    H230772   3.753   3.431   5.832
10277TIP3   OH230773   2.858   2.160   7.652
10277TIP3    H130774   2.763   2.155   7.671
10277TIP3    H230775   2.895   2.103   7.721
10278TIP3   OH230776   3.659   2.848   6.192
10278TIP3    H130777   3.648   2.782   6.263
10278TIP3    H230778   3.756   2.844   6.179
10279TIP3   OH230779   2.573   3.245   7.290
10279TIP3    H130780   2.625   3.171   7.324
10279TIP3    H230781   2.593   3.313   7.355
10280TIP3   OH230782   2.860   2.893   5.977
10280TIP3    H130783   2.871   2.799   5.952
10280TIP3    H230784   2.838   2.884   6.072
10281TIP3   OH230785   2.803   2.900   6.249
10281TIP3    H130786   2.876   2.873   6.305
10281TIP3    H230787   2.806   2.998   6.257
10282TIP3   OH230788   2.538   2.592   6.455
10282TIP3    H130789   2.471   2.636   6.510
10282TIP3    H230790   2.550   2.659   6.385
10283TIP3   OH230791   3.695   2.227   7.344
10283TIP3    H130792   3.774   2.268   7.384
10283TIP3    H230793   3.682   2.147   7.400
10284TIP3   OH230794   3.576   1.973   6.516
10284TIP3    H130795   3.560   1.995   6.422
10284TIP3    H230796   3.615   2.057   6.550
10285TIP3   OH230797   3.073   3.096   6.198
10285TIP3    H130798   2.986   3.119   6.234
10285TIP3    H230799   3.087   3.171   6.137
10286TIP3   OH230800   3.257   2.161   6.613
10286TIP3    H130801   3.320   2.234   6.596
10286TIP3    H230802   3.264   2.152   6.710
10287TIP3   OH230803   3.531   2.475   7.417
10287TIP3    H130804   3.557   2.528   7.495
10287TIP3    H230805   3.583   2.394   7.428
10288TIP3   OH230806   3.401   1.879   6.712
10288TIP3    H130807   3.390   1.958   6.768
10288TIP3    H230808   3.464   1.912   6.645
10289TIP3   OH230809   2.819   3.171   6.268
10289TIP3    H130810   2.789   3.242   6.206
10289TIP3    H230811   2.802   3.214   6.355
10290TIP3   OH230812   2.916   1.886   6.504
10290TIP3    H130813   2.911   1.977   6.541
10290TIP3    H230814   3.012   1.871   6.511
10291TIP3   OH230815   4.166   2.376   7.403
10291TIP3    H130816   4.068   2.376   7.409
10291TIP3    H230817   4.178   2.334   7.317
10292TIP3   OH230818   3.819   2.571   6.788
10292TIP3    H130819   3.742   2.513   6.800
10292TIP3    H230820   3.890   2.523   6.837
10293TIP3   OH230821   2.535   2.794   6.257
10293TIP3    H130822   2.606   2.860   6.265
10293TIP3    H230823   2.577   2.735   6.190
10294TIP3   OH230824   2.474   2.074   6.391
10294TIP3    H130825   2.476   2.172   6.391
10294TIP3    H230826   2.390   2.056   6.347
10295TIP3   OH230827   3.799   3.539   6.738
10295TIP3    H130828   3.754   3.589   6.665
10295TIP3    H230829   3.874   3.499   6.691
10296TIP3   OH230830   2.866   1.799   7.259
10296TIP3    H130831   2.838   1.762   7.172
10296TIP3    H230832   2.865   1.719   7.316
10297TIP3   OH230833   2.400   3.016   6.641
10297TIP3    H130834   2.338   3.044   6.710
10297TIP3    H230835   2.362   3.060   6.561
10298TIP3   OH230836   2.560   3.549   7.711
10298TIP3    H130837   2.642   3.510   7.746
10298TIP3    H230838   2.507   3.468   7.702
10299TIP3   OH230839   3.025   3.530   7.755
10299TIP3    H130840   3.118   3.507   7.770
10299TIP3    H230841   3.001   3.462   7.689
10300TIP3   OH230842   3.022   3.095   5.885
10300TIP3    H130843   2.968   3.023   5.924
10300TIP3    H230844   3.098   3.045   5.851
10301TIP3   OH230845   3.680   3.430   7.495
10301TIP3    H130846   3.674   3.360   7.564
10301TIP3    H230847   3.758   3.481   7.524
10302TIP3   OH230848   3.457   3.134   5.802
10302TIP3    H130849   3.498   3.067   5.860
10302TIP3    H230850   3.513   3.131   5.722
10303TIP3   OH230851   2.701   2.983   7.878
10303TIP3    H130852   2.709   2.892   7.914
10303TIP3    H230853   2.607   2.983   7.848
10304TIP3   OH230854   2.671   2.609   6.112
10304TIP3    H130855   2.728   2.580   6.186
10304TIP3    H230856   2.737   2.615   6.040
10305TIP3   OH230857   3.297   3.055   7.688
10305TIP3    H130858   3.255   3.073   7.602
10305TIP3    H230859   3.328   2.962   7.678
10306TIP3   OH230860   3.191   2.814   5.921
10306TIP3    H130861   3.188   2.825   6.018
10306TIP3    H230862   3.189   2.716   5.914
10307TIP3   OH230863   3.791   3.065   7.299
10307TIP3    H130864   3.867   3.108   7.254
10307TIP3    H230865   3.721   3.130   7.282
10308TIP3   OH230866   2.805   2.702   7.883
10308TIP3    H130867   2.893   2.676   7.851
10308TIP3    H230868   2.801   2.658   7.971
10309TIP3   OH230869   2.874   2.521   6.330
10309TIP3    H130870   2.846   2.480   6.413
10309TIP3    H230871   2.912   2.444   6.282
10310TIP3   OH230872   3.152   2.581   7.565
10310TIP3    H130873   3.071   2.637   7.565
10310TIP3    H230874   3.199   2.616   7.486
10311TIP3   OH230875   2.980   2.316   6.171
10311TIP3    H130876   2.954   2.323   6.077
10311TIP3    H230877   3.078   2.318   6.163
10312TIP3   OH230878   3.665   2.986   7.694
10312TIP3    H130879   3.741   2.952   7.644
10312TIP3    H230880   3.657   2.921   7.766
10313TIP3   OH230881   3.798   2.640   5.840
10313TIP3    H130882   3.778   2.597   5.755
10313TIP3    H230883   3.765   2.731   5.820
10314TIP3   OH230884   3.274   2.371   7.685
10314TIP3    H130885   3.273   2.293   7.626
10314TIP3    H230886   3.231   2.439   7.628
10315TIP3   OH230887   3.272   2.162   7.496
10315TIP3    H130888   3.301   2.202   7.412
10315TIP3    H230889   3.179   2.138   7.474
10316TIP3   OH230890   3.295   2.694   7.370
10316TIP3    H130891   3.380   2.707   7.325
10316TIP3    H230892   3.237   2.757   7.322
10317TIP3   OH230893   3.879   2.658   7.741
10317TIP3    H130894   3.926   2.576   7.763
10317TIP3    H230895   3.950   2.713   7.704
10318TIP3   OH230896   3.920   2.913   7.482
10318TIP3    H130897   3.863   2.970   7.424
10318TIP3    H230898   4.008   2.935   7.443
10319TIP3   OH230899   3.125   2.498   7.889
10319TIP3    H130900   3.063   2.423   7.897
10319TIP3    H230901   3.173   2.474   7.807
10320TIP3   OH230902   3.401   1.922   7.564
10320TIP3    H130903   3.350   2.002   7.537
10320TIP3    H230904   3.335   1.851   7.548
10321TIP3   OH230905   3.534   2.425   7.769
10321TIP3    H130906   3.518   2.416   7.865
10321TIP3    H230907   3.446   2.399   7.735
10322TIP3   OH230908   3.768   2.372   7.629
10322TIP3    H130909   3.694   2.375   7.693
10322TIP3    H230910   3.843   2.345   7.686
10323TIP3   OH230911   3.998   2.320   7.775
10323TIP3    H130912   4.009   2.224   7.790
10323TIP3    H230913   3.993   2.357   7.866
10324TIP3   OH230914   2.974   2.273   7.938
10324TIP3    H130915   2.993   2.179   7.915
10324TIP3    H230916   3.016   2.279   8.026
10325TIP3   OH230917   3.501   1.936   7.815
10325TIP3    H130918   3.562   1.861   7.799
10325TIP3    H230919   3.455   1.938   7.729
10326TIP3   OH230920   3.578   2.155   7.962
10326TIP3    H130921   3.564   2.070   7.914
10326TIP3    H230922   3.487   2.186   7.967
10327TIP3   OH230923   2.789   3.375   6.081
10327TIP3    H130924   2.884   3.365   6.060
10327TIP3    H230925   2.761   3.427   6.003
10328TIP3   OH230926   2.265   2.758   6.291
10328TIP3    H130927   2.360   2.777   6.278
10328TIP3    H230928   2.258   2.669   6.250
10329TIP3   OH230929   2.184   3.367   6.711
10329TIP3    H130930   2.118   3.307   6.671
10329TIP3    H230931   2.227   3.307   6.775
10330TIP3   OH230932   2.316   3.212   6.897
10330TIP3    H130933   2.303   3.143   6.964
10330TIP3    H230934   2.368   3.276   6.949
10331TIP3   OH230935   4.072   3.642   6.954
10331TIP3    H130936   4.026   3.555   6.959
10331TIP3    H230937   4.145   3.623   7.015
10332TIP3   OH230938   4.118   3.317   7.550
10332TIP3    H130939   4.047   3.328   7.617
10332TIP3    H230940   4.163   3.404   7.555
10333TIP3   OH230941   3.937   2.826   6.170
10333TIP3    H130942   4.002   2.893   6.140
10333TIP3    H230943   3.982   2.789   6.249
10334TIP3   OH230944   4.065   2.694   6.375
10334TIP3    H130945   3.997   2.653   6.433
10334TIP3    H230946   4.129   2.730   6.439
10335TIP3   OH230947   4.119   3.090   6.805
10335TIP3    H130948   4.174   3.021   6.762
10335TIP3    H230949   4.113   3.160   6.738
10336TIP3   OH230950   3.947   3.393   6.995
10336TIP3    H130951   3.877   3.432   7.052
10336TIP3    H230952   3.894   3.343   6.929
10337TIP3   OH230953   4.001   2.604   6.019
10337TIP3    H130954   3.929   2.605   5.952
10337TIP3    H230955   3.971   2.680   6.074
10338TIP3   OH230956   3.873   2.275   5.970
10338TIP3    H130957   3.824   2.311   5.895
10338TIP3    H230958   3.851   2.180   5.963
10339TIP3   OH230959   3.875   2.555   6.519
10339TIP3    H130960   3.882   2.458   6.511
10339TIP3    H230961   3.860   2.567   6.615
10340TIP3   OH230962   2.500   2.624   7.270
10340TIP3    H130963   2.496   2.590   7.178
10340TIP3    H230964   2.597   2.625   7.284
10341TIP3   OH230965   4.167   2.979   7.378
10341TIP3    H130966   4.237   2.911   7.366
10341TIP3    H230967   4.195   3.049   7.315
10342TIP3   OH230968   4.347   2.777   7.381
10342TIP3    H130969   4.274   2.728   7.424
10342TIP3    H230970   4.422   2.715   7.400
10343TIP3   OH230971   3.814   2.010   5.955
10343TIP3    H130972   3.883   1.975   6.015
10343TIP3    H230973   3.737   1.953   5.974
10344TIP3   OH230974   3.874   2.271   6.411
10344TIP3    H130975   3.915   2.183   6.425
10344TIP3    H230976   3.931   2.304   6.339
10345TIP3   OH230977   4.032   2.437   6.910
10345TIP3    H130978   4.117   2.462   6.867
10345TIP3    H230979   4.046   2.476   6.998
10346TIP3   OH230980   4.105   2.586   7.138
10346TIP3    H130981   4.028   2.621   7.189
10346TIP3    H230982   4.137   2.668   7.094
10347TIP3   OH230983   2.711   2.304   7.872
10347TIP3    H130984   2.809   2.309   7.875
10347TIP3    H230985   2.697   2.240   7.944
10348TIP3   OH230986   4.551   2.177   7.693
10348TIP3    H130987   4.615   2.115   7.652
10348TIP3    H230988   4.523   2.232   7.616
10349TIP3   OH230989   3.982   2.021   6.450
10349TIP3    H130990   4.029   2.004   6.534
10349TIP3    H230991   3.921   1.945   6.448
10350TIP3   OH230992   2.684   2.004   7.270
10350TIP3    H130993   2.751   1.932   7.275
10350TIP3    H230994   2.742   2.082   7.264
10351TIP3   OH230995   2.483   2.271   7.347
10351TIP3    H130996   2.531   2.275   7.263
10351TIP3    H230997   2.497   2.360   7.383
10352TIP3   OH230998   4.423   2.315   7.498
10352TIP3    H130999   4.338   2.360   7.520
10352TIP3    H231000   4.389   2.244   7.441
10353TIP3   OH231001   4.058   1.949   6.089
10353TIP3    H131002   4.096   1.881   6.029
10353TIP3    H231003   4.124   2.021   6.082
10354TIP3   OH231004   2.467   1.784   6.850
10354TIP3    H131005   2.374   1.773   6.877
10354TIP3    H231006   2.459   1.840   6.770
10355TIP3   OH231007   3.636   3.486   6.357
10355TIP3    H131008   3.679   3.469   6.270
10355TIP3    H231009   3.684   3.566   6.384
10356TIP3   OH231010   2.684   1.878   7.650
10356TIP3    H131011   2.603   1.855   7.696
10356TIP3    H231012   2.645   1.933   7.580
10357TIP3   OH231013   2.722   3.307   7.747
10357TIP3    H131014   2.632   3.276   7.723
10357TIP3    H231015   2.736   3.259   7.831
10358TIP3   OH231016   2.910   3.328   7.287
10358TIP3    H131017   2.860   3.402   7.246
10358TIP3    H231018   2.995   3.341   7.240
10359TIP3   OH231019   3.344   3.569   7.422
10359TIP3    H131020   3.388   3.566   7.510
10359TIP3    H231021   3.411   3.620   7.370
10360TIP3   OH231022   3.528   3.720   7.285
10360TIP3    H131023   3.599   3.668   7.246
10360TIP3    H231024   3.580   3.779   7.345
10361TIP3   OH231025   4.325   2.078   7.379
10361TIP3    H131026   4.235   2.068   7.343
10361TIP3    H231027   4.360   1.986   7.370
10362TIP3   OH231028   2.582   3.583   7.305
10362TIP3    H131029   2.494   3.619   7.278
10362TIP3    H231030   2.579   3.601   7.400
10363TIP3   OH231031   2.819   3.561   7.168
10363TIP3    H131032   2.732   3.574   7.211
10363TIP3    H231033   2.800   3.590   7.077
10364TIP3   OH231034   3.242   3.583   6.966
10364TIP3    H131035   3.172   3.600   6.900
10364TIP3    H231036   3.253   3.671   7.006
10365TIP3   OH231037   3.510   3.525   7.016
10365TIP3    H131038   3.415   3.538   6.997
10365TIP3    H231039   3.548   3.605   6.976
10366TIP3   OH231040   3.717   3.720   6.927
10366TIP3    H131041   3.705   3.799   6.871
10366TIP3    H231042   3.744   3.653   6.861
10367TIP3   OH231043   2.494   3.373   7.052
10367TIP3    H131044   2.521   3.343   7.142
10367TIP3    H231045   2.565   3.331   7.000
10368TIP3   OH231046   2.689   3.247   6.912
10368TIP3    H131047   2.703   3.163   6.962
10368TIP3    H231048   2.781   3.281   6.908
10369TIP3   OH231049   2.958   3.337   6.918
10369TIP3    H131050   2.985   3.243   6.908
10369TIP3    H231051   3.006   3.359   6.999
10370TIP3   OH231052   3.530   1.994   7.004
10370TIP3    H131053   3.488   1.922   7.054
10370TIP3    H231054   3.604   1.949   6.959
10371TIP3   OH231055   4.047   1.875   6.902
10371TIP3    H131056   4.084   1.928   6.827
10371TIP3    H231057   3.953   1.897   6.897
10372TIP3   OH231058   4.146   1.974   6.667
10372TIP3    H131059   4.220   1.922   6.630
10372TIP3    H231060   4.179   2.065   6.653
10373TIP3   OH231061   2.778   1.701   7.015
10373TIP3    H131062   2.685   1.669   7.010
10373TIP3    H231063   2.825   1.615   7.010
10374TIP3   OH231064   2.579   1.576   6.668
10374TIP3    H131065   2.598   1.633   6.591
10374TIP3    H231066   2.542   1.640   6.732
10375TIP3   OH231067   3.228   1.731   6.897
10375TIP3    H131068   3.281   1.782   6.834
10375TIP3    H231069   3.252   1.773   6.981
10376TIP3   OH231070   3.763   1.883   6.880
10376TIP3    H131071   3.766   1.842   6.793
10376TIP3    H231072   3.754   1.804   6.938
10377TIP3   OH231073   3.799   1.809   6.444
10377TIP3    H131074   3.714   1.854   6.462
10377TIP3    H231075   3.784   1.723   6.488
10378TIP3   OH231076   2.281   3.151   6.438
10378TIP3    H131077   2.195   3.117   6.408
10378TIP3    H231078   2.272   3.244   6.412
10379TIP3   OH231079   2.685   1.730   6.427
10379TIP3    H131080   2.732   1.669   6.368
10379TIP3    H231081   2.758   1.785   6.462
10380TIP3   OH231082   3.192   1.910   6.526
10380TIP3    H131083   3.253   1.865   6.587
10380TIP3    H231084   3.212   2.004   6.550
10381TIP3   OH231085   3.055   3.327   6.027
10381TIP3    H131086   3.142   3.352   5.989
10381TIP3    H231087   3.032   3.254   5.965
10382TIP3   OH231088   3.774   3.452   6.121
10382TIP3    H131089   3.768   3.354   6.108
10382TIP3    H231090   3.726   3.484   6.041
10383TIP3   OH231091   3.026   2.013   7.877
10383TIP3    H131092   3.015   1.942   7.944
10383TIP3    H231093   3.118   2.001   7.850
10384TIP3   OH231094   2.357   3.168   6.079
10384TIP3    H131095   2.359   3.184   6.174
10384TIP3    H231096   2.444   3.124   6.063
10385TIP3   OH231097   4.062   2.052   7.793
10385TIP3    H131098   4.089   2.030   7.885
10385TIP3    H231099   4.149   2.052   7.749
10386TIP3   OH231100   3.997   3.597   7.302
10386TIP3    H131101   3.916   3.567   7.256
10386TIP3    H231102   3.979   3.693   7.310
10387TIP3   OH231103   5.266   2.968   6.068
10387TIP3    H131104   5.235   3.059   6.049
10387TIP3    H231105   5.190   2.917   6.036
10388TIP3   OH231106   5.264   2.970   6.459
10388TIP3    H131107   5.301   2.950   6.547
10388TIP3    H231108   5.223   2.885   6.435
10389TIP3   OH231109   4.560   2.859   6.820
10389TIP3    H131110   4.589   2.790   6.882
10389TIP3    H231111   4.638   2.917   6.819
10390TIP3   OH231112   5.511   3.273   6.139
10390TIP3    H131113   5.497   3.207   6.208
10390TIP3    H231114   5.542   3.350   6.190
10391TIP3   OH231115   4.534   3.272   6.539
10391TIP3    H131116   4.529   3.174   6.539
10391TIP3    H231117   4.631   3.284   6.534
10392TIP3   OH231118   4.243   2.474   6.319
10392TIP3    H131119   4.195   2.556   6.341
10392TIP3    H231120   4.172   2.423   6.277
10393TIP3   OH231121   4.299   2.763   6.507
10393TIP3    H131122   4.349   2.685   6.539
10393TIP3    H231123   4.362   2.804   6.446
10394TIP3   OH231124   5.161   3.732   6.154
10394TIP3    H131125   5.201   3.661   6.100
10394TIP3    H231126   5.156   3.690   6.241
10395TIP3   OH231127   5.062   3.195   6.502
10395TIP3    H131128   5.105   3.119   6.460
10395TIP3    H231129   5.143   3.245   6.528
10396TIP3   OH231130   6.078   2.513   6.502
10396TIP3    H131131   6.107   2.596   6.545
10396TIP3    H231132   6.103   2.530   6.409
10397TIP3   OH231133   5.474   2.693   6.530
10397TIP3    H131134   5.518   2.608   6.552
10397TIP3    H231135   5.443   2.675   6.439
10398TIP3   OH231136   4.819   2.354   6.495
10398TIP3    H131137   4.798   2.427   6.434
10398TIP3    H231138   4.768   2.281   6.453
10399TIP3   OH231139   5.514   2.447   6.118
10399TIP3    H131140   5.586   2.435   6.185
10399TIP3    H231141   5.566   2.481   6.043
10400TIP3   OH231142   4.448   2.556   6.605
10400TIP3    H131143   4.531   2.538   6.654
10400TIP3    H231144   4.462   2.501   6.526
10401TIP3   OH231145   4.887   2.754   6.401
10401TIP3    H131146   4.982   2.730   6.412
10401TIP3    H231147   4.849   2.669   6.368
10402TIP3   OH231148   6.150   2.722   6.672
10402TIP3    H131149   6.066   2.770   6.655
10402TIP3    H231150   6.178   2.762   6.757
10403TIP3   OH231151   4.811   2.338   6.932
10403TIP3    H131152   4.752   2.376   6.865
10403TIP3    H231153   4.758   2.355   7.013
10404TIP3   OH231154   5.146   3.186   5.941
10404TIP3    H131155   5.115   3.181   5.850
10404TIP3    H231156   5.106   3.270   5.971
10405TIP3   OH231157   4.916   3.114   6.722
10405TIP3    H131158   4.858   3.185   6.759
10405TIP3    H231159   4.962   3.162   6.649
10406TIP3   OH231160   5.712   2.450   6.307
10406TIP3    H131161   5.686   2.431   6.398
10406TIP3    H231162   5.769   2.529   6.319
10407TIP3   OH231163   4.684   2.453   6.715
10407TIP3    H131164   4.744   2.527   6.740
10407TIP3    H231165   4.735   2.414   6.641
10408TIP3   OH231166   4.747   3.312   6.823
10408TIP3    H131167   4.723   3.400   6.789
10408TIP3    H231168   4.668   3.294   6.879
10409TIP3   OH231169   4.134   3.002   6.061
10409TIP3    H131170   4.092   3.027   5.977
10409TIP3    H231171   4.165   3.088   6.094
10410TIP3   OH231172   5.575   3.517   6.298
10410TIP3    H131173   5.485   3.508   6.338
10410TIP3    H231174   5.568   3.604   6.254
10411TIP3   OH231175   5.875   2.401   6.666
10411TIP3    H131176   5.791   2.439   6.637
10411TIP3    H231177   5.937   2.437   6.599
10412TIP3   OH231178   5.160   2.050   6.653
10412TIP3    H131179   5.136   1.956   6.666
10412TIP3    H231180   5.083   2.094   6.697
10413TIP3   OH231181   5.274   3.559   5.968
10413TIP3    H131182   5.325   3.477   5.950
10413TIP3    H231183   5.337   3.625   5.931
10414TIP3   OH231184   5.419   3.343   5.888
10414TIP3    H131185   5.394   3.260   5.845
10414TIP3    H231186   5.458   3.310   5.973
10415TIP3   OH231187   5.802   3.425   6.645
10415TIP3    H131188   5.791   3.348   6.585
10415TIP3    H231189   5.785   3.500   6.585
10416TIP3   OH231190   5.096   2.819   5.905
10416TIP3    H131191   5.018   2.873   5.883
10416TIP3    H231192   5.144   2.817   5.820
10417TIP3   OH231193   5.063   2.618   5.609
10417TIP3    H131194   5.128   2.664   5.665
10417TIP3    H231195   5.119   2.549   5.568
10418TIP3   OH231196   5.997   3.064   6.491
10418TIP3    H131197   5.914   3.116   6.495
10418TIP3    H231198   6.029   3.089   6.402
10419TIP3   OH231199   5.445   2.904   5.872
10419TIP3    H131200   5.391   2.928   5.951
10419TIP3    H231201   5.530   2.880   5.915
10420TIP3   OH231202   5.677   2.939   6.795
10420TIP3    H131203   5.678   3.021   6.848
10420TIP3    H231204   5.593   2.949   6.747
10421TIP3   OH231205   4.676   2.896   6.292
10421TIP3    H131206   4.642   2.840   6.220
10421TIP3    H231207   4.753   2.845   6.324
10422TIP3   OH231208   4.804   3.311   6.439
10422TIP3    H131209   4.788   3.278   6.349
10422TIP3    H231210   4.894   3.276   6.457
10423TIP3   OH231211   4.809   2.873   6.644
10423TIP3    H131212   4.845   2.848   6.557
10423TIP3    H231213   4.854   2.958   6.663
10424TIP3   OH231214   5.336   3.510   6.423
10424TIP3    H131215   5.324   3.591   6.476
10424TIP3    H231216   5.320   3.438   6.487
10425TIP3   OH231217   4.952   3.428   6.969
10425TIP3    H131218   4.891   3.489   7.017
10425TIP3    H231219   4.888   3.374   6.919
10426TIP3   OH231220   5.283   2.764   5.702
10426TIP3    H131221   5.343   2.824   5.751
10426TIP3    H231222   5.309   2.784   5.608
10427TIP3   OH231223   4.706   2.982   7.074
10427TIP3    H131224   4.712   3.071   7.115
10427TIP3    H231225   4.612   2.962   7.090
10428TIP3   OH231226   5.029   3.437   5.974
10428TIP3    H131227   5.113   3.487   5.980
10428TIP3    H231228   4.970   3.502   5.933
10429TIP3   OH231229   4.744   3.591   7.057
10429TIP3    H131230   4.708   3.595   6.966
10429TIP3    H231231   4.664   3.571   7.110
10430TIP3   OH231232   5.800   2.000   5.751
10430TIP3    H131233   5.718   2.024   5.799
10430TIP3    H231234   5.815   2.081   5.698
10431TIP3   OH231235   4.548   2.746   6.076
10431TIP3    H131236   4.470   2.788   6.035
10431TIP3    H231237   4.510   2.664   6.110
10432TIP3   OH231238   5.600   3.367   5.300
10432TIP3    H131239   5.608   3.463   5.283
10432TIP3    H231240   5.693   3.338   5.287
10433TIP3   OH231241   4.322   3.128   7.004
10433TIP3    H131242   4.255   3.105   6.937
10433TIP3    H231243   4.361   3.041   7.027
10434TIP3   OH231244   4.188   3.329   6.638
10434TIP3    H131245   4.273   3.295   6.606
10434TIP3    H231246   4.219   3.390   6.707
10435TIP3   OH231247   6.041   3.775   6.695
10435TIP3    H131248   6.040   3.679   6.711
10435TIP3    H231249   5.957   3.800   6.740
10436TIP3   OH231250   5.145   3.557   6.825
10436TIP3    H131251   5.142   3.650   6.858
10436TIP3    H231252   5.076   3.516   6.880
10437TIP3   OH231253   4.912   3.681   5.782
10437TIP3    H131254   4.867   3.667   5.697
10437TIP3    H231255   4.879   3.770   5.808
10438TIP3   OH231256   4.347   3.531   6.164
10438TIP3    H131257   4.393   3.523   6.251
10438TIP3    H231258   4.298   3.447   6.160
10439TIP3   OH231259   5.111   3.587   5.417
10439TIP3    H131260   5.168   3.517   5.381
10439TIP3    H231261   5.147   3.599   5.507
10440TIP3   OH231262   5.162   3.637   5.686
10440TIP3    H131263   5.074   3.645   5.729
10440TIP3    H231264   5.216   3.604   5.760
10441TIP3   OH231265   5.932   2.901   6.970
10441TIP3    H131266   5.847   2.909   6.924
10441TIP3    H231267   5.948   2.805   6.964
10442TIP3   OH231268   4.526   3.311   6.985
10442TIP3    H131269   4.576   3.297   7.069
10442TIP3    H231270   4.453   3.247   6.996
10443TIP3   OH231271   4.926   2.133   6.780
10443TIP3    H131272   4.838   2.103   6.750
10443TIP3    H231273   4.900   2.214   6.828
10444TIP3   OH231274   5.466   2.233   6.969
10444TIP3    H131275   5.537   2.219   7.035
10444TIP3    H231276   5.384   2.228   7.022
10445TIP3   OH231277   5.690   2.674   6.885
10445TIP3    H131278   5.645   2.673   6.972
10445TIP3    H231279   5.673   2.765   6.854
10446TIP3   OH231280   5.356   2.803   5.445
10446TIP3    H131281   5.323   2.781   5.356
10446TIP3    H231282   5.442   2.844   5.422
10447TIP3   OH231283   5.067   2.182   5.747
10447TIP3    H131284   5.035   2.178   5.839
10447TIP3    H231285   5.030   2.098   5.713
10448TIP3   OH231286   4.858   2.651   6.794
10448TIP3    H131287   4.809   2.672   6.877
10448TIP3    H231288   4.841   2.733   6.742
10449TIP3   OH231289   4.741   2.535   6.308
10449TIP3    H131290   4.649   2.507   6.330
10449TIP3    H231291   4.751   2.493   6.220
10450TIP3   OH231292   5.231   2.616   6.038
10450TIP3    H131293   5.182   2.689   5.994
10450TIP3    H231294   5.288   2.584   5.965
10451TIP3   OH231295   5.407   2.894   7.118
10451TIP3    H131296   5.386   2.823   7.183
10451TIP3    H231297   5.500   2.912   7.143
10452TIP3   OH231298   5.387   2.644   6.275
10452TIP3    H131299   5.325   2.674   6.205
10452TIP3    H231300   5.423   2.566   6.228
10453TIP3   OH231301   4.677   2.676   7.003
10453TIP3    H131302   4.711   2.739   7.069
10453TIP3    H231303   4.666   2.595   7.057
10454TIP3   OH231304   4.729   2.155   5.715
10454TIP3    H131305   4.719   2.153   5.813
10454TIP3    H231306   4.643   2.193   5.688
10455TIP3   OH231307   4.271   2.197   6.585
10455TIP3    H131308   4.346   2.230   6.639
10455TIP3    H231309   4.314   2.167   6.503
10456TIP3   OH231310   4.234   2.179   6.100
10456TIP3    H131311   4.283   2.218   6.025
10456TIP3    H231312   4.172   2.253   6.120
10457TIP3   OH231313   5.393   2.891   6.694
10457TIP3    H131314   5.429   2.820   6.636
10457TIP3    H231315   5.366   2.837   6.771
10458TIP3   OH231316   5.075   2.351   6.368
10458TIP3    H131317   4.994   2.353   6.423
10458TIP3    H231318   5.145   2.357   6.436
10459TIP3   OH231319   4.504   2.415   6.375
10459TIP3    H131320   4.409   2.423   6.348
10459TIP3    H231321   4.524   2.322   6.355
10460TIP3   OH231322   4.767   2.409   6.066
10460TIP3    H131323   4.864   2.421   6.056
10460TIP3    H231324   4.733   2.438   5.978
10461TIP3   OH231325   5.560   2.430   6.566
10461TIP3    H131326   5.537   2.443   6.661
10461TIP3    H231327   5.484   2.375   6.538
10462TIP3   OH231328   4.632   2.457   5.828
10462TIP3    H131329   4.537   2.442   5.841
10462TIP3    H231330   4.646   2.404   5.747
10463TIP3   OH231331   5.737   4.122   6.794
10463TIP3    H131332   5.734   4.147   6.700
10463TIP3    H231333   5.817   4.169   6.824
10464TIP3   OH231334   4.690   3.233   7.210
10464TIP3    H131335   4.770   3.261   7.259
10464TIP3    H231336   4.625   3.231   7.283
10465TIP3   OH231337   5.151   2.685   6.466
10465TIP3    H131338   5.229   2.651   6.419
10465TIP3    H231339   5.159   2.644   6.554
10466TIP3   OH231340   4.670   2.171   6.353
10466TIP3    H131341   4.631   2.095   6.403
10466TIP3    H231342   4.716   2.124   6.282
10467TIP3   OH231343   5.128   2.587   6.759
10467TIP3    H131344   5.039   2.624   6.772
10467TIP3    H231345   5.186   2.649   6.808
10468TIP3   OH231346   4.865   2.970   5.848
10468TIP3    H131347   4.795   2.903   5.838
10468TIP3    H231348   4.845   3.005   5.939
10469TIP3   OH231349   5.764   3.210   6.476
10469TIP3    H131350   5.789   3.261   6.397
10469TIP3    H231351   5.679   3.168   6.449
10470TIP3   OH231352   5.322   2.279   5.726
10470TIP3    H131353   5.225   2.263   5.729
10470TIP3    H231354   5.330   2.375   5.745
10471TIP3   OH231355   5.258   3.288   6.852
10471TIP3    H131356   5.301   3.276   6.938
10471TIP3    H231357   5.225   3.380   6.857
10472TIP3   OH231358   5.391   2.534   5.821
10472TIP3    H131359   5.487   2.539   5.835
10472TIP3    H231360   5.372   2.615   5.769
10473TIP3   OH231361   4.557   2.995   6.525
10473TIP3    H131362   4.597   2.966   6.440
10473TIP3    H231363   4.606   2.941   6.589
10474TIP3   OH231364   5.011   3.122   5.671
10474TIP3    H131365   4.962   3.208   5.676
10474TIP3    H231366   4.960   3.069   5.735
10475TIP3   OH231367   4.442   2.916   7.142
10475TIP3    H131368   4.462   2.904   7.237
10475TIP3    H231369   4.373   2.849   7.128
10476TIP3   OH231370   5.169   3.034   7.159
10476TIP3    H131371   5.109   2.972   7.115
10476TIP3    H231372   5.257   2.998   7.131
10477TIP3   OH231373   5.421   3.549   6.749
10477TIP3    H131374   5.325   3.552   6.761
10477TIP3    H231375   5.451   3.602   6.825
10478TIP3   OH231376   5.828   2.628   5.655
10478TIP3    H131377   5.767   2.584   5.591
10478TIP3    H231378   5.826   2.718   5.614
10479TIP3   OH231379   6.053   3.484   6.734
10479TIP3    H131380   5.955   3.477   6.725
10479TIP3    H231381   6.079   3.454   6.644
10480TIP3   OH231382   5.533   3.444   5.563
10480TIP3    H131383   5.510   3.372   5.623
10480TIP3    H231384   5.550   3.398   5.479
10481TIP3   OH231385   5.529   3.074   6.391
10481TIP3    H131386   5.436   3.050   6.406
10481TIP3    H231387   5.562   2.993   6.348
10482TIP3   OH231388   4.662   3.302   6.152
10482TIP3    H131389   4.660   3.383   6.097
10482TIP3    H231390   4.567   3.286   6.165
10483TIP3   OH231391   4.229   2.603   5.866
10483TIP3    H131392   4.268   2.691   5.884
10483TIP3    H231393   4.148   2.607   5.922
10484TIP3   OH231394   4.785   3.061   6.089
10484TIP3    H131395   4.756   3.152   6.110
10484TIP3    H231396   4.755   3.014   6.169
10485TIP3   OH231397   4.932   3.641   6.620
10485TIP3    H131398   4.974   3.714   6.570
10485TIP3    H231399   5.008   3.606   6.668
10486TIP3   OH231400   4.578   3.538   6.004
10486TIP3    H131401   4.493   3.550   6.050
10486TIP3    H231402   4.613   3.630   6.007
10487TIP3   OH231403   5.312   3.278   6.584
10487TIP3    H131404   5.300   3.276   6.681
10487TIP3    H231405   5.395   3.230   6.574
10488TIP3   OH231406   5.294   3.169   5.469
10488TIP3    H131407   5.352   3.144   5.545
10488TIP3    H231408   5.207   3.151   5.508
10489TIP3   OH231409   5.563   3.807   6.629
10489TIP3    H131410   5.482   3.753   6.623
10489TIP3    H231411   5.548   3.872   6.557
10490TIP3   OH231412   5.630   3.643   5.282
10490TIP3    H131413   5.668   3.717   5.231
10490TIP3    H231414   5.550   3.687   5.317
10491TIP3   OH231415   4.649   2.419   7.145
10491TIP3    H131416   4.552   2.423   7.159
10491TIP3    H231417   4.678   2.369   7.222
10492TIP3   OH231418   5.456   3.105   5.681
10492TIP3    H131419   5.447   3.037   5.751
10492TIP3    H231420   5.553   3.101   5.667
10493TIP3   OH231421   4.362   3.497   6.785
10493TIP3    H131422   4.423   3.430   6.821
10493TIP3    H231423   4.386   3.573   6.840
10494TIP3   OH231424   4.652   3.172   5.461
10494TIP3    H131425   4.702   3.096   5.430
10494TIP3    H231426   4.642   3.156   5.557
10495TIP3   OH231427   4.611   3.150   5.732
10495TIP3    H131428   4.680   3.131   5.797
10495TIP3    H231429   4.604   3.248   5.740
10496TIP3   OH231430   4.331   2.850   5.942
10496TIP3    H131431   4.264   2.895   5.998
10496TIP3    H231432   4.342   2.918   5.873
10497TIP3   OH231433   5.497   2.474   6.826
10497TIP3    H131434   5.568   2.525   6.868
10497TIP3    H231435   5.486   2.398   6.887
10498TIP3   OH231436   5.369   2.233   6.004
10498TIP3    H131437   5.355   2.252   5.910
10498TIP3    H231438   5.410   2.316   6.037
10499TIP3   OH231439   4.867   3.350   5.681
10499TIP3    H131440   4.780   3.375   5.719
10499TIP3    H231441   4.885   3.430   5.628
10500TIP3   OH231442   5.046   2.420   6.101
10500TIP3    H131443   5.111   2.490   6.082
10500TIP3    H231444   5.058   2.409   6.198
10501TIP3   OH231445   5.328   2.731   6.906
10501TIP3    H131446   5.350   2.789   6.982
10501TIP3    H231447   5.381   2.653   6.925
10502TIP3   OH231448   5.195   2.135   6.200
10502TIP3    H131449   5.186   2.214   6.256
10502TIP3    H231450   5.260   2.169   6.133
10503TIP3   OH231451   4.611   3.422   5.755
10503TIP3    H131452   4.583   3.492   5.691
10503TIP3    H231453   4.596   3.468   5.840
10504TIP3   OH231454   4.714   2.143   5.990
10504TIP3    H131455   4.714   2.232   6.031
10504TIP3    H231456   4.809   2.122   5.997
10505TIP3   OH231457   5.959   2.635   6.892
10505TIP3    H131458   5.861   2.630   6.893
10505TIP3    H231459   5.978   2.602   6.803
10506TIP3   OH231460   5.615   2.828   6.275
10506TIP3    H131461   5.540   2.768   6.289
10506TIP3    H231462   5.687   2.782   6.324
10507TIP3   OH231463   4.327   3.053   5.748
10507TIP3    H131464   4.389   3.128   5.754
10507TIP3    H231465   4.371   3.001   5.677
10508TIP3   OH231466   4.283   2.336   5.876
10508TIP3    H131467   4.270   2.433   5.878
10508TIP3    H231468   4.203   2.306   5.832
10509TIP3   OH231469   5.586   3.787   6.221
10509TIP3    H131470   5.543   3.834   6.146
10509TIP3    H231471   5.680   3.806   6.201
10510TIP3   OH231472   4.664   2.052   6.747
10510TIP3    H131473   4.631   2.018   6.661
10510TIP3    H231474   4.651   1.975   6.806
10511TIP3   OH231475   4.193   3.274   6.127
10511TIP3    H131476   4.127   3.301   6.192
10511TIP3    H231477   4.159   3.318   6.045
10512TIP3   OH231478   4.362   3.820   7.201
10512TIP3    H131479   4.447   3.827   7.250
10512TIP3    H231480   4.347   3.725   7.204
10513TIP3   OH231481   4.833   3.774   7.248
10513TIP3    H131482   4.928   3.760   7.257
10513TIP3    H231483   4.811   3.711   7.177
10514TIP3   OH231484   4.824   3.364   5.367
10514TIP3    H131485   4.766   3.295   5.407
10514TIP3    H231486   4.895   3.310   5.328
10515TIP3   OH231487   5.477   3.684   6.981
10515TIP3    H131488   5.470   3.615   7.050
10515TIP3    H231489   5.554   3.736   7.011
10516TIP3   OH231490   5.253   3.389   5.287
10516TIP3    H131491   5.301   3.329   5.347
10516TIP3    H231492   5.308   3.388   5.206
10517TIP3   OH231493   4.488   3.223   7.402
10517TIP3    H131494   4.504   3.127   7.413
10517TIP3    H231495   4.400   3.224   7.357
10518TIP3   OH231496   4.469   2.872   5.594
10518TIP3    H131497   4.529   2.842   5.665
10518TIP3    H231498   4.530   2.920   5.535
10519TIP3   OH231499   5.094   3.309   7.178
10519TIP3    H131500   5.056   3.330   7.091
10519TIP3    H231501   5.127   3.218   7.166
10520TIP3   OH231502   4.958   3.060   5.409
10520TIP3    H131503   4.978   3.079   5.504
10520TIP3    H231504   4.971   2.963   5.406
10521TIP3   OH231505   5.585   3.322   6.783
10521TIP3    H131506   5.663   3.362   6.740
10521TIP3    H231507   5.519   3.392   6.768
10522TIP3   OH231508   4.609   2.957   7.386
10522TIP3    H131509   4.688   2.907   7.362
10522TIP3    H231510   4.635   2.990   7.475
10523TIP3   OH231511   4.667   2.767   5.824
10523TIP3    H131512   4.629   2.766   5.914
10523TIP3    H231513   4.688   2.673   5.812
10524TIP3   OH231514   4.940   2.835   7.043
10524TIP3    H131515   4.865   2.898   7.047
10524TIP3    H231516   4.992   2.872   6.968
10525TIP3   OH231517   5.458   3.240   7.178
10525TIP3    H131518   5.541   3.212   7.137
10525TIP3    H231519   5.453   3.179   7.254
10526TIP3   OH231520   5.590   2.896   5.329
10526TIP3    H131521   5.573   2.853   5.243
10526TIP3    H231522   5.559   2.987   5.308
10527TIP3   OH231523   5.066   2.630   7.171
10527TIP3    H131524   5.067   2.552   7.113
10527TIP3    H231525   5.022   2.697   7.115
10528TIP3   OH231526   5.072   2.411   6.979
10528TIP3    H131527   5.098   2.458   6.897
10528TIP3    H231528   4.978   2.392   6.961
10529TIP3   OH231529   5.091   2.946   6.850
10529TIP3    H131530   5.179   2.966   6.815
10529TIP3    H231531   5.035   3.013   6.806
10530TIP3   OH231532   5.671   2.914   7.229
10530TIP3    H131533   5.720   2.837   7.262
10530TIP3    H231534   5.742   2.971   7.198
10531TIP3   OH231535   5.716   3.169   6.964
10531TIP3    H131536   5.658   3.226   6.908
10531TIP3    H231537   5.804   3.192   6.927
10532TIP3   OH231538   4.943   2.735   7.404
10532TIP3    H131539   4.875   2.666   7.422
10532TIP3    H231540   4.977   2.705   7.317
10533TIP3   OH231541   5.198   2.170   7.047
10533TIP3    H131542   5.155   2.255   7.025
10533TIP3    H231543   5.122   2.109   7.040
10534TIP3   OH231544   5.328   2.678   7.265
10534TIP3    H131545   5.319   2.665   7.361
10534TIP3    H231546   5.237   2.656   7.237
10535TIP3   OH231547   5.559   2.621   7.115
10535TIP3    H131548   5.488   2.630   7.181
10535TIP3    H231549   5.637   2.598   7.171
10536TIP3   OH231550   5.787   2.568   7.263
10536TIP3    H131551   5.805   2.475   7.284
10536TIP3    H231552   5.784   2.611   7.351
10537TIP3   OH231553   4.782   2.514   7.461
10537TIP3    H131554   4.789   2.421   7.431
10537TIP3    H231555   4.820   2.506   7.551
10538TIP3   OH231556   5.292   2.189   7.306
10538TIP3    H131557   5.361   2.120   7.303
10538TIP3    H231558   5.252   2.181   7.218
10539TIP3   OH231559   5.360   2.403   7.466
10539TIP3    H131560   5.337   2.332   7.403
10539TIP3    H231561   5.281   2.462   7.462
10540TIP3   OH231562   4.585   3.625   5.567
10540TIP3    H131563   4.680   3.621   5.548
10540TIP3    H231564   4.555   3.678   5.491
10541TIP3   OH231565   4.059   3.012   5.781
10541TIP3    H131566   4.153   3.033   5.766
10541TIP3    H231567   4.051   2.924   5.737
10542TIP3   OH231568   3.980   3.622   6.198
10542TIP3    H131569   3.914   3.561   6.156
10542TIP3    H231570   4.022   3.562   6.263
10543TIP3   OH231571   4.109   3.473   6.393
10543TIP3    H131572   4.108   3.401   6.458
10543TIP3    H231573   4.166   3.537   6.439
10544TIP3   OH231574   5.842   3.873   6.185
10544TIP3    H131575   5.868   3.906   6.273
10544TIP3    H231576   5.907   3.914   6.127
10545TIP3   OH231577   5.868   3.895   6.468
10545TIP3    H131578   5.823   3.807   6.463
10545TIP3    H231579   5.943   3.871   6.524
10546TIP3   OH231580   5.914   3.572   7.039
10546TIP3    H131581   5.843   3.583   7.106
10546TIP3    H231582   5.958   3.660   7.043
10547TIP3   OH231583   5.733   3.085   5.656
10547TIP3    H131584   5.798   3.151   5.625
10547TIP3    H231585   5.779   3.048   5.735
10548TIP3   OH231586   5.861   2.952   5.860
10548TIP3    H131587   5.794   2.912   5.920
10548TIP3    H231588   5.927   2.987   5.922
10549TIP3   OH231589   5.917   3.347   6.292
10549TIP3    H131590   5.970   3.279   6.246
10549TIP3    H231591   5.915   3.420   6.226
10550TIP3   OH231592   5.742   3.645   6.486
10550TIP3    H131593   5.670   3.687   6.537
10550TIP3    H231594   5.692   3.600   6.414
10551TIP3   OH231595   5.796   2.861   5.506
10551TIP3    H131596   5.724   2.863   5.440
10551TIP3    H231597   5.769   2.938   5.561
10552TIP3   OH231598   5.664   2.534   5.461
10552TIP3    H131599   5.623   2.568   5.380
10552TIP3    H231600   5.643   2.438   5.453
10553TIP3   OH231601   5.670   2.813   6.006
10553TIP3    H131602   5.680   2.717   5.998
10553TIP3    H231603   5.656   2.825   6.102
10554TIP3   OH231604   4.296   2.886   6.755
10554TIP3    H131605   4.293   2.849   6.664
10554TIP3    H231606   4.394   2.885   6.771
10555TIP3   OH231607   5.964   3.236   6.864
10555TIP3    H131608   6.034   3.168   6.852
10555TIP3    H231609   5.990   3.305   6.801
10556TIP3   OH231610   6.144   3.034   6.867
10556TIP3    H131611   6.071   2.986   6.911
10556TIP3    H231612   6.219   2.972   6.886
10557TIP3   OH231613   5.610   2.268   5.443
10557TIP3    H131614   5.684   2.235   5.498
10557TIP3    H231615   5.538   2.206   5.463
10558TIP3   OH231616   5.670   2.528   5.897
10558TIP3    H131617   5.712   2.439   5.910
10558TIP3    H231618   5.727   2.562   5.826
10559TIP3   OH231619   5.827   2.695   6.395
10559TIP3    H131620   5.913   2.719   6.353
10559TIP3    H231621   5.843   2.734   6.483
10560TIP3   OH231622   5.899   2.843   6.624
10560TIP3    H131623   5.825   2.878   6.676
10560TIP3    H231624   5.933   2.924   6.580
10561TIP3   OH231625   4.516   2.565   7.422
10561TIP3    H131626   4.613   2.564   7.432
10561TIP3    H231627   4.493   2.480   7.464
10562TIP3   OH231628   6.346   2.435   7.180
10562TIP3    H131629   6.411   2.372   7.141
10562TIP3    H231630   6.320   2.489   7.103
10563TIP3   OH231631   5.778   2.279   5.939
10563TIP3    H131632   5.828   2.260   6.022
10563TIP3    H231633   5.718   2.201   5.936
10564TIP3   OH231634   4.479   2.261   6.756
10564TIP3    H131635   4.541   2.186   6.765
10564TIP3    H231636   4.541   2.336   6.749
10565TIP3   OH231637   4.276   2.532   6.829
10565TIP3    H131638   4.327   2.532   6.746
10565TIP3    H231639   4.306   2.615   6.870
10566TIP3   OH231640   6.220   2.575   6.984
10566TIP3    H131641   6.136   2.617   7.013
10566TIP3    H231642   6.184   2.501   6.930
10567TIP3   OH231643   5.853   2.207   5.573
10567TIP3    H131644   5.894   2.138   5.516
10567TIP3    H231645   5.920   2.278   5.571
10568TIP3   OH231646   4.265   2.038   6.330
10568TIP3    H131647   4.172   2.031   6.360
10568TIP3    H231648   4.256   2.097   6.252
10569TIP3   OH231649   5.422   3.743   5.839
10569TIP3    H131650   5.475   3.734   5.757
10569TIP3    H231651   5.472   3.810   5.888
10570TIP3   OH231652   4.485   2.112   7.143
10570TIP3    H131653   4.436   2.113   7.227
10570TIP3    H231654   4.420   2.154   7.084
10571TIP3   OH231655   4.523   3.547   7.218
10571TIP3    H131656   4.428   3.523   7.208
10571TIP3    H231657   4.538   3.532   7.312
10572TIP3   OH231658   4.705   3.581   6.768
10572TIP3    H131659   4.662   3.659   6.729
10572TIP3    H231660   4.793   3.591   6.726
10573TIP3   OH231661   5.142   3.823   6.906
10573TIP3    H131662   5.184   3.821   6.995
10573TIP3    H231663   5.208   3.876   6.857
10574TIP3   OH231664   5.323   3.978   6.771
10574TIP3    H131665   5.394   3.928   6.729
10574TIP3    H231666   5.375   4.036   6.832
10575TIP3   OH231667   6.122   2.337   6.868
10575TIP3    H131668   6.033   2.330   6.829
10575TIP3    H231669   6.156   2.245   6.859
10576TIP3   OH231670   4.371   3.856   6.802
10576TIP3    H131671   4.370   3.947   6.764
10576TIP3    H231672   4.401   3.879   6.892
10577TIP3   OH231673   4.613   3.812   6.654
10577TIP3    H131674   4.524   3.819   6.692
10577TIP3    H231675   4.600   3.845   6.563
10578TIP3   OH231676   5.039   3.840   6.454
10578TIP3    H131677   4.971   3.860   6.386
10578TIP3    H231678   5.052   3.928   6.495
10579TIP3   OH231679   5.309   3.779   6.504
10579TIP3    H131680   5.215   3.799   6.485
10579TIP3    H231681   5.355   3.852   6.460
10580TIP3   OH231682   5.511   3.970   6.415
10580TIP3    H131683   5.500   4.055   6.368
10580TIP3    H231684   5.540   3.911   6.342
10581TIP3   OH231685   4.289   3.626   6.543
10581TIP3    H131686   4.310   3.593   6.633
10581TIP3    H231687   4.363   3.584   6.493
10582TIP3   OH231688   4.484   3.502   6.401
10582TIP3    H131689   4.500   3.418   6.449
10582TIP3    H231690   4.575   3.539   6.397
10583TIP3   OH231691   4.751   3.592   6.408
10583TIP3    H131692   4.781   3.500   6.397
10583TIP3    H231693   4.803   3.617   6.487
10584TIP3   OH231694   5.334   2.252   6.489
10584TIP3    H131695   5.286   2.183   6.537
10584TIP3    H231696   5.405   2.200   6.445
10585TIP3   OH231697   5.844   2.133   6.391
10585TIP3    H131698   5.888   2.181   6.318
10585TIP3    H231699   5.756   2.173   6.390
10586TIP3   OH231700   5.942   2.228   6.156
10586TIP3    H131701   6.016   2.176   6.118
10586TIP3    H231702   5.977   2.319   6.142
10587TIP3   OH231703   4.572   1.958   6.501
10587TIP3    H131704   4.480   1.925   6.505
10587TIP3    H231705   4.621   1.873   6.496
10588TIP3   OH231706   4.366   1.832   6.157
10588TIP3    H131707   4.391   1.888   6.082
10588TIP3    H231708   4.336   1.899   6.223
10589TIP3   OH231709   5.020   1.991   6.382
10589TIP3    H131710   5.075   2.037   6.318
10589TIP3    H231711   5.042   2.036   6.465
10590TIP3   OH231712   5.547   2.112   6.367
10590TIP3    H131713   5.557   2.118   6.271
10590TIP3    H231714   5.583   2.023   6.383
10591TIP3   OH231715   5.595   2.067   5.931
10591TIP3    H131716   5.508   2.108   5.946
10591TIP3    H231717   5.581   1.979   5.973
10592TIP3   OH231718   4.076   3.407   5.926
10592TIP3    H131719   3.988   3.377   5.894
10592TIP3    H231720   4.073   3.499   5.892
10593TIP3   OH231721   4.483   1.990   5.911
10593TIP3    H131722   4.529   1.923   5.855
10593TIP3    H231723   4.558   2.039   5.948
10594TIP3   OH231724   4.989   2.167   6.012
10594TIP3    H131725   5.050   2.120   6.071
10594TIP3    H231726   5.011   2.260   6.037
10595TIP3   OH231727   4.853   3.588   5.517
10595TIP3    H131728   4.940   3.613   5.479
10595TIP3    H231729   4.831   3.515   5.454
10596TIP3   OH231730   5.569   3.710   5.607
10596TIP3    H131731   5.560   3.613   5.596
10596TIP3    H231732   5.524   3.743   5.527
10597TIP3   OH231733   4.782   2.236   7.390
10597TIP3    H131734   4.745   2.168   7.450
10597TIP3    H231735   4.875   2.237   7.421
10598TIP3   OH231736   5.030   2.235   7.511
10598TIP3    H131737   5.119   2.213   7.478
10598TIP3    H231738   5.018   2.166   7.580
10599TIP3   OH231739   4.151   3.420   5.565
10599TIP3    H131740   4.155   3.452   5.656
10599TIP3    H231741   4.239   3.379   5.552
10600TIP3   OH231742   5.857   2.300   7.300
10600TIP3    H131743   5.875   2.271   7.392
10600TIP3    H231744   5.947   2.298   7.261
10601TIP3   OH231745   5.792   3.851   6.792
10601TIP3    H131746   5.713   3.822   6.741
10601TIP3    H231747   5.773   3.947   6.800
10602TIP3   OH231748   7.062   3.227   5.553
10602TIP3    H131749   7.031   3.317   5.533
10602TIP3    H231750   6.986   3.175   5.523
10603TIP3   OH231751   7.061   3.226   5.946
10603TIP3    H131752   7.098   3.204   6.034
10603TIP3    H231753   7.020   3.142   5.920
10604TIP3   OH231754   6.356   3.116   6.308
10604TIP3    H131755   6.387   3.047   6.370
10604TIP3    H231756   6.436   3.170   6.301
10605TIP3   OH231757   7.307   3.530   5.625
10605TIP3    H131758   7.291   3.463   5.693
10605TIP3    H231759   7.338   3.606   5.678
10606TIP3   OH231760   6.333   3.530   6.025
10606TIP3    H131761   6.325   3.432   6.027
10606TIP3    H231762   6.430   3.539   6.019
10607TIP3   OH231763   6.038   2.728   5.808
10607TIP3    H131764   5.993   2.811   5.828
10607TIP3    H231765   5.966   2.680   5.763
10608TIP3   OH231766   6.094   3.019   5.991
10608TIP3    H131767   6.146   2.941   6.024
10608TIP3    H231768   6.158   3.061   5.933
10609TIP3   OH231769   6.959   3.990   5.640
10609TIP3    H131770   6.999   3.918   5.588
10609TIP3    H231771   6.947   3.948   5.726
10610TIP3   OH231772   6.858   3.452   5.988
10610TIP3    H131773   6.900   3.375   5.946
10610TIP3    H231774   6.939   3.500   6.014
10611TIP3   OH231775   7.874   2.771   5.985
10611TIP3    H131776   7.904   2.854   6.027
10611TIP3    H231777   7.903   2.785   5.893
10612TIP3   OH231778   7.272   2.951   6.017
10612TIP3    H131779   7.315   2.866   6.038
10612TIP3    H231780   7.239   2.932   5.926
10613TIP3   OH231781   6.614   2.611   5.983
10613TIP3    H131782   6.594   2.684   5.920
10613TIP3    H231783   6.564   2.538   5.940
10614TIP3   OH231784   7.308   2.703   5.603
10614TIP3    H131785   7.378   2.690   5.671
10614TIP3    H231786   7.362   2.738   5.530
10615TIP3   OH231787   6.244   2.813   6.092
10615TIP3    H131788   6.327   2.795   6.140
10615TIP3    H231789   6.259   2.758   6.012
10616TIP3   OH231790   6.683   3.011   5.890
10616TIP3    H131791   6.777   2.987   5.901
10616TIP3    H231792   6.645   2.926   5.856
10617TIP3   OH231793   7.948   2.980   6.159
10617TIP3    H131794   7.863   3.025   6.142
10617TIP3    H231795   7.976   3.022   6.242
10618TIP3   OH231796   6.607   2.595   6.419
10618TIP3    H131797   6.548   2.633   6.351
10618TIP3    H231798   6.554   2.612   6.500
10619TIP3   OH231799   6.948   3.445   5.424
10619TIP3    H131800   6.908   3.434   5.336
10619TIP3    H231801   6.904   3.528   5.454
10620TIP3   OH231802   6.713   3.371   6.209
10620TIP3    H131803   6.654   3.441   6.245
10620TIP3    H231804   6.757   3.418   6.135
10621TIP3   OH231805   7.509   2.711   5.785
10621TIP3    H131806   7.492   2.670   5.871
10621TIP3    H231807   7.562   2.789   5.810
10622TIP3   OH231808   6.479   2.710   6.202
10622TIP3    H131809   6.540   2.783   6.226
10622TIP3    H231810   6.530   2.670   6.127
10623TIP3   OH231811   6.544   3.569   6.310
10623TIP3    H131812   6.519   3.657   6.275
10623TIP3    H231813   6.464   3.551   6.365
10624TIP3   OH231814   5.930   3.257   5.547
10624TIP3    H131815   5.892   3.285   5.461
10624TIP3    H231816   5.963   3.343   5.582
10625TIP3   OH231817   7.372   3.774   5.785
10625TIP3    H131818   7.283   3.765   5.825
10625TIP3    H231819   7.364   3.861   5.741
10626TIP3   OH231820   7.669   2.666   6.150
10626TIP3    H131821   7.582   2.697   6.118
10626TIP3    H231822   7.730   2.701   6.082
10627TIP3   OH231823   6.956   2.309   6.134
10627TIP3    H131824   6.942   2.215   6.156
10627TIP3    H231825   6.881   2.349   6.182
10628TIP3   OH231826   7.071   3.816   5.456
10628TIP3    H131827   7.122   3.733   5.438
10628TIP3    H231828   7.134   3.882   5.418
10629TIP3   OH231829   7.218   3.600   5.374
10629TIP3    H131830   7.177   3.520   5.339
10629TIP3    H231831   7.257   3.568   5.458
10630TIP3   OH231832   7.598   3.682   6.131
10630TIP3    H131833   7.586   3.605   6.071
10630TIP3    H231834   7.581   3.757   6.071
10631TIP3   OH231835   6.891   3.076   5.391
10631TIP3    H131836   6.812   3.130   5.372
10631TIP3    H231837   6.937   3.077   5.306
10632TIP3   OH231838   6.849   2.867   5.099
10632TIP3    H131839   6.915   2.917   5.151
10632TIP3    H231840   6.908   2.803   5.054
10633TIP3   OH231841   7.793   3.322   5.979
10633TIP3    H131842   7.710   3.373   5.982
10633TIP3    H231843   7.825   3.346   5.889
10634TIP3   OH231844   7.240   3.159   5.358
10634TIP3    H131845   7.186   3.184   5.436
10634TIP3    H231846   7.325   3.136   5.402
10635TIP3   OH231847   7.473   3.196   6.280
10635TIP3    H131848   7.471   3.279   6.331
10635TIP3    H231849   7.387   3.202   6.233
10636TIP3   OH231850   6.472   3.155   5.779
10636TIP3    H131851   6.432   3.097   5.711
10636TIP3    H231852   6.548   3.102   5.810
10637TIP3   OH231853   6.601   3.568   5.924
10637TIP3    H131854   6.583   3.536   5.835
10637TIP3    H231855   6.690   3.531   5.942
10638TIP3   OH231856   6.603   3.130   6.132
10638TIP3    H131857   6.639   3.103   6.044
10638TIP3    H231858   6.649   3.214   6.149
10639TIP3   OH231859   7.133   3.767   5.910
10639TIP3    H131860   7.120   3.847   5.964
10639TIP3    H231861   7.117   3.694   5.973
10640TIP3   OH231862   6.748   3.684   6.457
10640TIP3    H131863   6.686   3.745   6.503
10640TIP3    H231864   6.684   3.631   6.405
10641TIP3   OH231865   7.078   3.018   5.186
10641TIP3    H131866   7.137   3.079   5.236
10641TIP3    H231867   7.104   3.039   5.093
10642TIP3   OH231868   6.503   3.238   6.563
10642TIP3    H131869   6.507   3.327   6.603
10642TIP3    H231870   6.408   3.218   6.576
10643TIP3   OH231871   6.826   3.693   5.462
10643TIP3    H131872   6.909   3.745   5.468
10643TIP3    H231873   6.766   3.756   5.420
10644TIP3   OH231874   6.540   3.849   6.544
10644TIP3    H131875   6.505   3.853   6.453
10644TIP3    H231876   6.459   3.828   6.596
10645TIP3   OH231877   7.594   2.256   5.237
10645TIP3    H131878   7.513   2.279   5.287
10645TIP3    H231879   7.609   2.339   5.187
10646TIP3   OH231880   6.340   3.000   5.578
10646TIP3    H131881   6.269   3.044   5.527
10646TIP3    H231882   6.302   2.913   5.593
10647TIP3   OH231883   7.397   3.625   4.785
10647TIP3    H131884   7.404   3.721   4.767
10647TIP3    H231885   7.489   3.596   4.773
10648TIP3   OH231886   6.118   3.385   6.491
10648TIP3    H131887   6.051   3.363   6.423
10648TIP3    H231888   6.157   3.297   6.512
10649TIP3   OH231889   5.974   3.576   6.122
10649TIP3    H131890   6.071   3.572   6.113
10649TIP3    H231891   5.964   3.654   6.178
10650TIP3   OH231892   7.836   4.031   6.181
10650TIP3    H131893   7.836   3.935   6.196
10650TIP3    H231894   7.753   4.056   6.227
10651TIP3   OH231895   6.943   3.813   6.314
10651TIP3    H131896   6.938   3.906   6.346
10651TIP3    H231897   6.872   3.772   6.368
10652TIP3   OH231898   6.709   3.940   5.267
10652TIP3    H131899   6.660   3.925   5.184
10652TIP3    H231900   6.674   4.027   5.295
10653TIP3   OH231901   6.143   3.789   5.652
10653TIP3    H131902   6.191   3.781   5.738
10653TIP3    H231903   6.092   3.706   5.652
10654TIP3   OH231904   6.906   3.845   4.903
10654TIP3    H131905   6.964   3.774   4.868
10654TIP3    H231906   6.941   3.856   4.993
10655TIP3   OH231907   6.959   3.893   5.171
10655TIP3    H131908   6.870   3.903   5.213
10655TIP3    H231909   7.011   3.857   5.245
10656TIP3   OH231910   7.725   3.156   6.456
10656TIP3    H131911   7.642   3.165   6.406
10656TIP3    H231912   7.743   3.060   6.448
10657TIP3   OH231913   6.324   3.567   6.473
10657TIP3    H131914   6.372   3.551   6.556
10657TIP3    H231915   6.249   3.504   6.482
10658TIP3   OH231916   6.721   2.389   6.266
10658TIP3    H131917   6.633   2.359   6.237
10658TIP3    H231918   6.695   2.469   6.316
10659TIP3   OH231919   7.258   2.504   6.459
10659TIP3    H131920   7.328   2.474   6.521
10659TIP3    H231921   7.176   2.484   6.508
10660TIP3   OH231922   7.492   2.933   6.375
10660TIP3    H131923   7.442   2.931   6.460
10660TIP3    H231924   7.471   3.021   6.340
10661TIP3   OH231925   7.153   3.053   4.928
10661TIP3    H131926   7.121   3.035   4.838
10661TIP3    H231927   7.237   3.100   4.908
10662TIP3   OH231928   6.868   2.437   5.236
10662TIP3    H131929   6.833   2.434   5.327
10662TIP3    H231930   6.828   2.355   5.201
10663TIP3   OH231931   6.654   2.907   6.281
10663TIP3    H131932   6.605   2.928   6.364
10663TIP3    H231933   6.637   2.989   6.229
10664TIP3   OH231934   6.538   2.793   5.796
10664TIP3    H131935   6.446   2.767   5.815
10664TIP3    H231936   6.550   2.751   5.707
10665TIP3   OH231937   7.028   2.876   5.526
10665TIP3    H131938   6.978   2.948   5.482
10665TIP3    H231939   7.084   2.842   5.453
10666TIP3   OH231940   7.203   3.151   6.608
10666TIP3    H131941   7.181   3.079   6.670
10666TIP3    H231942   7.297   3.165   6.630
10667TIP3   OH231943   7.184   2.901   5.761
10667TIP3    H131944   7.121   2.929   5.692
10667TIP3    H231945   7.221   2.822   5.716
10668TIP3   OH231946   6.474   2.933   6.491
10668TIP3    H131947   6.507   2.996   6.556
10668TIP3    H231948   6.464   2.851   6.543
10669TIP3   OH231949   6.525   2.413   5.199
10669TIP3    H131950   6.515   2.412   5.297
10669TIP3    H231951   6.447   2.467   5.174
10670TIP3   OH231952   6.067   2.451   6.075
10670TIP3    H131953   6.140   2.487   6.129
10670TIP3    H231954   6.111   2.427   5.992
10671TIP3   OH231955   6.028   2.434   5.590
10671TIP3    H131956   6.074   2.471   5.511
10671TIP3    H231957   5.968   2.509   5.609
10672TIP3   OH231958   7.193   3.148   6.181
10672TIP3    H131959   7.228   3.077   6.122
10672TIP3    H231960   7.164   3.094   6.258
10673TIP3   OH231961   6.872   2.611   5.855
10673TIP3    H131962   6.792   2.611   5.912
10673TIP3    H231963   6.943   2.604   5.921
10674TIP3   OH231964   6.300   2.672   5.863
10674TIP3    H131965   6.206   2.678   5.834
10674TIP3    H231966   6.325   2.580   5.840
10675TIP3   OH231967   6.563   2.663   5.556
10675TIP3    H131968   6.657   2.679   5.535
10675TIP3    H231969   6.517   2.686   5.472
10676TIP3   OH231970   7.358   2.690   6.059
10676TIP3    H131971   7.328   2.703   6.152
10676TIP3    H231972   7.289   2.630   6.026
10677TIP3   OH231973   6.417   2.700   5.329
10677TIP3    H131974   6.347   2.655   5.279
10677TIP3    H231975   6.469   2.739   5.256
10678TIP3   OH231976   7.533   4.379   6.281
10678TIP3    H131977   7.530   4.403   6.186
10678TIP3    H231978   7.613   4.425   6.310
10679TIP3   OH231979   6.486   3.489   6.697
10679TIP3    H131980   6.566   3.518   6.746
10679TIP3    H231981   6.421   3.487   6.770
10680TIP3   OH231982   6.947   2.944   5.954
10680TIP3    H131983   7.022   2.905   5.907
10680TIP3    H231984   6.952   2.900   6.041
10681TIP3   OH231985   6.464   2.429   5.839
10681TIP3    H131986   6.429   2.352   5.889
10681TIP3    H231987   6.512   2.386   5.767
10682TIP3   OH231988   6.924   2.845   6.241
10682TIP3    H131989   6.834   2.879   6.258
10682TIP3    H231990   6.981   2.905   6.293
10683TIP3   OH231991   6.661   3.227   5.338
10683TIP3    H131992   6.588   3.164   5.325
10683TIP3    H231993   6.640   3.262   5.428
10684TIP3   OH231994   7.559   3.466   5.964
10684TIP3    H131995   7.584   3.517   5.883
10684TIP3    H231996   7.475   3.424   5.936
10685TIP3   OH231997   7.117   2.542   5.199
10685TIP3    H131998   7.022   2.520   5.214
10685TIP3    H231999   7.125   2.634   5.231
10686TIP3   OH232000   7.057   3.547   6.337
10686TIP3    H132001   7.094   3.533   6.425
10686TIP3    H232002   7.021   3.637   6.343
10687TIP3   OH232003   7.186   2.789   5.308
10687TIP3    H132004   7.282   2.795   5.324
10687TIP3    H232005   7.168   2.871   5.258
10688TIP3   OH232006   6.353   3.250   6.012
10688TIP3    H132007   6.393   3.224   5.926
10688TIP3    H232008   6.404   3.196   6.074
10689TIP3   OH232009   6.807   3.379   5.162
10689TIP3    H132010   6.757   3.464   5.165
10689TIP3    H232011   6.752   3.324   5.223
10690TIP3   OH232012   6.239   3.172   6.628
10690TIP3    H132013   6.257   3.159   6.723
10690TIP3    H232014   6.169   3.106   6.613
10691TIP3   OH232015   6.964   3.290   6.647
10691TIP3    H132016   6.903   3.229   6.602
10691TIP3    H232017   7.051   3.253   6.618
10692TIP3   OH232018   7.218   3.807   6.235
10692TIP3    H132019   7.122   3.808   6.248
10692TIP3    H232020   7.247   3.861   6.312
10693TIP3   OH232021   7.625   2.884   5.142
10693TIP3    H132022   7.564   2.840   5.078
10693TIP3    H232023   7.623   2.974   5.102
10694TIP3   OH232024   7.849   3.742   6.219
10694TIP3    H132025   7.751   3.734   6.211
10694TIP3    H232026   7.876   3.711   6.130
10695TIP3   OH232027   7.333   3.701   5.051
10695TIP3    H132028   7.304   3.632   5.112
10695TIP3    H232029   7.345   3.652   4.967
10696TIP3   OH232030   7.326   3.330   5.878
10696TIP3    H132031   7.232   3.306   5.893
10696TIP3    H232032   7.359   3.249   5.836
10697TIP3   OH232033   6.458   3.559   5.640
10697TIP3    H132034   6.455   3.639   5.585
10697TIP3    H232035   6.364   3.541   5.653
10698TIP3   OH232036   6.022   2.859   5.348
10698TIP3    H132037   6.066   2.944   5.369
10698TIP3    H232038   5.945   2.864   5.408
10699TIP3   OH232039   6.584   3.319   5.579
10699TIP3    H132040   6.553   3.410   5.600
10699TIP3    H232041   6.551   3.270   5.657
10700TIP3   OH232042   6.727   3.899   6.107
10700TIP3    H132043   6.769   3.972   6.056
10700TIP3    H232044   6.804   3.862   6.153
10701TIP3   OH232045   6.374   3.795   5.491
10701TIP3    H132046   6.288   3.805   5.537
10701TIP3    H232047   6.408   3.887   5.494
10702TIP3   OH232048   7.109   3.535   6.069
10702TIP3    H132049   7.097   3.533   6.167
10702TIP3    H232050   7.189   3.483   6.058
10703TIP3   OH232051   7.091   3.429   4.952
10703TIP3    H132052   7.144   3.404   5.031
10703TIP3    H232053   7.003   3.402   4.980
10704TIP3   OH232054   7.360   4.064   6.117
10704TIP3    H132055   7.279   4.010   6.111
10704TIP3    H232056   7.344   4.129   6.044
10705TIP3   OH232057   7.428   3.906   4.764
10705TIP3    H132058   7.474   3.986   4.733
10705TIP3    H232059   7.346   3.947   4.798
10706TIP3   OH232060   6.446   2.677   6.633
10706TIP3    H132061   6.349   2.677   6.647
10706TIP3    H232062   6.476   2.624   6.709
10707TIP3   OH232063   7.252   3.357   5.163
10707TIP3    H132064   7.241   3.293   5.236
10707TIP3    H232065   7.349   3.356   5.153
10708TIP3   OH232066   6.163   3.760   6.265
10708TIP3    H132067   6.218   3.691   6.305
10708TIP3    H232068   6.189   3.837   6.318
10709TIP3   OH232069   6.454   3.406   4.951
10709TIP3    H132070   6.464   3.313   4.926
10709TIP3    H232071   6.431   3.399   5.046
10710TIP3   OH232072   6.395   3.413   5.223
10710TIP3    H132073   6.470   3.387   5.278
10710TIP3    H232074   6.397   3.511   5.230
10711TIP3   OH232075   6.128   3.104   5.429
10711TIP3    H132076   6.062   3.150   5.484
10711TIP3    H232077   6.142   3.172   5.359
10712TIP3   OH232078   7.287   2.740   6.319
10712TIP3    H132079   7.367   2.780   6.357
10712TIP3    H232080   7.275   2.660   6.374
10713TIP3   OH232081   7.168   2.488   5.488
10713TIP3    H132082   7.155   2.513   5.395
10713TIP3    H232083   7.209   2.570   5.525
10714TIP3   OH232084   6.664   3.608   5.170
10714TIP3    H132085   6.577   3.632   5.207
10714TIP3    H232086   6.680   3.686   5.114
10715TIP3   OH232087   6.847   2.675   5.587
10715TIP3    H132088   6.911   2.748   5.570
10715TIP3    H232089   6.855   2.665   5.684
10716TIP3   OH232090   7.123   2.988   6.390
10716TIP3    H132091   7.148   3.040   6.470
10716TIP3    H232092   7.176   2.906   6.401
10717TIP3   OH232093   6.993   2.391   5.685
10717TIP3    H132094   6.988   2.468   5.745
10717TIP3    H232095   7.057   2.425   5.618
10718TIP3   OH232096   6.410   3.684   5.241
10718TIP3    H132097   6.381   3.754   5.179
10718TIP3    H232098   6.394   3.727   5.328
10719TIP3   OH232099   6.508   2.399   5.476
10719TIP3    H132100   6.505   2.489   5.515
10719TIP3    H232101   6.604   2.382   5.484
10720TIP3   OH232102   7.760   2.890   6.381
10720TIP3    H132103   7.662   2.887   6.383
10720TIP3    H232104   7.777   2.852   6.293
10721TIP3   OH232105   7.411   3.085   5.762
10721TIP3    H132106   7.336   3.025   5.775
10721TIP3    H232107   7.483   3.038   5.810
10722TIP3   OH232108   6.127   3.307   5.231
10722TIP3    H132109   6.197   3.375   5.239
10722TIP3    H232110   6.170   3.249   5.164
10723TIP3   OH232111   6.066   2.588   5.367
10723TIP3    H132112   6.070   2.686   5.365
10723TIP3    H232113   5.988   2.571   5.313
10724TIP3   OH232114   7.382   4.045   5.709
10724TIP3    H132115   7.339   4.091   5.633
10724TIP3    H232116   7.476   4.063   5.688
10725TIP3   OH232117   6.456   2.309   6.236
10725TIP3    H132118   6.427   2.274   6.149
10725TIP3    H232119   6.446   2.231   6.294
10726TIP3   OH232120   5.989   3.524   5.613
10726TIP3    H132121   5.930   3.557   5.682
10726TIP3    H232122   5.954   3.570   5.533
10727TIP3   OH232123   6.157   4.079   6.690
10727TIP3    H132124   6.244   4.080   6.738
10727TIP3    H232125   6.139   3.984   6.689
10728TIP3   OH232126   6.630   4.029   6.735
10728TIP3    H132127   6.725   4.013   6.741
10728TIP3    H232128   6.605   3.967   6.663
10729TIP3   OH232129   6.615   3.609   4.858
10729TIP3    H132130   6.560   3.537   4.898
10729TIP3    H232131   6.691   3.558   4.825
10730TIP3   OH232132   7.272   3.942   6.469
10730TIP3    H132133   7.266   3.872   6.538
10730TIP3    H232134   7.349   3.994   6.498
10731TIP3   OH232135   7.050   3.647   4.776
10731TIP3    H132136   7.091   3.582   4.836
10731TIP3    H232137   7.108   3.643   4.697
10732TIP3   OH232138   6.284   3.479   6.889
10732TIP3    H132139   6.299   3.383   6.898
10732TIP3    H232140   6.197   3.481   6.844
10733TIP3   OH232141   6.263   3.122   5.087
10733TIP3    H132142   6.322   3.095   5.161
10733TIP3    H232143   6.329   3.129   5.015
10734TIP3   OH232144   6.890   3.566   6.665
10734TIP3    H132145   6.850   3.587   6.578
10734TIP3    H232146   6.922   3.474   6.652
10735TIP3   OH232147   6.781   3.326   4.893
10735TIP3    H132148   6.780   3.339   4.990
10735TIP3    H232149   6.777   3.228   4.887
10736TIP3   OH232150   7.382   3.578   6.272
10736TIP3    H132151   7.460   3.619   6.228
10736TIP3    H232152   7.315   3.647   6.255
10737TIP3   OH232153   6.404   3.215   6.874
10737TIP3    H132154   6.482   3.165   6.847
10737TIP3    H232155   6.432   3.247   6.963
10738TIP3   OH232156   6.464   3.034   5.302
10738TIP3    H132157   6.439   2.996   5.387
10738TIP3    H232158   6.503   2.958   5.255
10739TIP3   OH232159   6.737   3.094   6.533
10739TIP3    H132160   6.660   3.155   6.535
10739TIP3    H232161   6.789   3.129   6.457
10740TIP3   OH232162   6.572   2.829   5.145
10740TIP3    H132163   6.547   2.838   5.050
10740TIP3    H232164   6.670   2.832   5.137
10741TIP3   OH232165   7.256   3.498   6.666
10741TIP3    H132166   7.334   3.466   6.618
10741TIP3    H232167   7.249   3.434   6.739
10742TIP3   OH232168   7.387   3.152   4.815
10742TIP3    H132169   7.369   3.111   4.728
10742TIP3    H232170   7.355   3.244   4.795
10743TIP3   OH232171   6.863   2.886   6.658
10743TIP3    H132172   6.864   2.808   6.599
10743TIP3    H232173   6.818   2.954   6.601
10744TIP3   OH232174   6.865   2.673   6.467
10744TIP3    H132175   6.894   2.714   6.383
10744TIP3    H232176   6.772   2.650   6.448
10745TIP3   OH232177   6.887   3.205   6.340
10745TIP3    H132178   6.974   3.221   6.301
10745TIP3    H232179   6.831   3.271   6.294
10746TIP3   OH232180   7.471   3.171   6.718
10746TIP3    H132181   7.518   3.086   6.728
10746TIP3    H232182   7.540   3.227   6.681
10747TIP3   OH232183   7.512   3.427   6.455
10747TIP3    H132184   7.454   3.483   6.398
10747TIP3    H232185   7.600   3.449   6.417
10748TIP3   OH232186   6.741   2.990   6.893
10748TIP3    H132187   6.673   2.922   6.910
10748TIP3    H232188   6.774   2.963   6.804
10749TIP3   OH232189   6.996   2.433   6.537
10749TIP3    H132190   6.946   2.515   6.515
10749TIP3    H232191   6.927   2.365   6.527
10750TIP3   OH232192   7.122   2.935   6.752
10750TIP3    H132193   7.107   2.919   6.847
10750TIP3    H232194   7.032   2.912   6.718
10751TIP3   OH232195   7.359   2.888   6.606
10751TIP3    H132196   7.285   2.888   6.669
10751TIP3    H232197   7.434   2.861   6.662
10752TIP3   OH232198   7.591   2.839   6.753
10752TIP3    H132199   7.602   2.742   6.763
10752TIP3    H232200   7.586   2.869   6.846
10753TIP3   OH232201   6.578   2.771   6.948
10753TIP3    H132202   6.583   2.678   6.917
10753TIP3    H232203   6.617   2.761   7.037
10754TIP3   OH232204   7.089   2.444   6.795
10754TIP3    H132205   7.154   2.372   6.788
10754TIP3    H232206   7.049   2.440   6.706
10755TIP3   OH232207   7.157   2.661   6.949
10755TIP3    H132208   7.135   2.587   6.887
10755TIP3    H232209   7.077   2.717   6.944
10756TIP3   OH232210   6.380   3.885   5.053
10756TIP3    H132211   6.476   3.877   5.033
10756TIP3    H232212   6.352   3.939   4.976
10757TIP3   OH232213   5.857   3.270   5.266
10757TIP3    H132214   5.952   3.291   5.252
10757TIP3    H232215   5.851   3.181   5.224
10758TIP3   OH232216   5.775   3.879   5.686
10758TIP3    H132217   5.709   3.819   5.645
10758TIP3    H232218   5.819   3.818   5.749
10759TIP3   OH232219   5.910   3.722   5.869
10759TIP3    H132220   5.897   3.656   5.939
10759TIP3    H232221   5.962   3.788   5.919
10760TIP3   OH232222   7.639   4.130   5.672
10760TIP3    H132223   7.665   4.162   5.760
10760TIP3    H232224   7.705   4.171   5.614
10761TIP3   OH232225   7.665   4.151   5.955
10761TIP3    H132226   7.619   4.064   5.949
10761TIP3    H232227   7.739   4.126   6.012
10762TIP3   OH232228   7.712   3.828   6.526
10762TIP3    H132229   7.640   3.839   6.592
10762TIP3    H232230   7.755   3.916   6.530
10763TIP3   OH232231   7.530   3.340   5.142
10763TIP3    H132232   7.595   3.407   5.113
10763TIP3    H232233   7.575   3.304   5.222
10764TIP3   OH232234   7.657   3.209   5.348
10764TIP3    H132235   7.590   3.168   5.408
10764TIP3    H232236   7.722   3.244   5.411
10765TIP3   OH232237   7.713   3.604   5.779
10765TIP3    H132238   7.766   3.535   5.734
10765TIP3    H232239   7.710   3.675   5.712
10766TIP3   OH232240   7.538   3.902   5.973
10766TIP3    H132241   7.466   3.944   6.023
10766TIP3    H232242   7.489   3.857   5.901
10767TIP3   OH232243   7.592   3.117   4.992
10767TIP3    H132244   7.520   3.120   4.926
10767TIP3    H232245   7.566   3.193   5.048
10768TIP3   OH232246   7.463   2.789   4.946
10768TIP3    H132247   7.416   2.825   4.869
10768TIP3    H232248   7.441   2.693   4.937
10769TIP3   OH232249   7.467   3.069   5.493
10769TIP3    H132250   7.476   2.973   5.486
10769TIP3    H232251   7.452   3.082   5.589
10770TIP3   OH232252   6.093   3.139   6.242
10770TIP3    H132253   6.090   3.105   6.151
10770TIP3    H232254   6.190   3.140   6.258
10771TIP3   OH232255   7.759   3.493   6.352
10771TIP3    H132256   7.829   3.425   6.340
10771TIP3    H232257   7.785   3.560   6.287
10772TIP3   OH232258   7.939   3.292   6.360
10772TIP3    H132259   7.865   3.242   6.400
10772TIP3    H232260   8.012   3.229   6.375
10773TIP3   OH232261   7.407   2.522   4.925
10773TIP3    H132262   7.482   2.493   4.982
10773TIP3    H232263   7.335   2.463   4.950
10774TIP3   OH232264   7.465   2.784   5.383
10774TIP3    H132265   7.507   2.695   5.398
10774TIP3    H232266   7.523   2.818   5.313
10775TIP3   OH232267   7.624   2.953   5.883
10775TIP3    H132268   7.709   2.977   5.840
10775TIP3    H232269   7.640   2.990   5.971
10776TIP3   OH232270   7.698   3.100   6.113
10776TIP3    H132271   7.621   3.135   6.162
10776TIP3    H232272   7.731   3.181   6.068
10777TIP3   OH232273   6.312   2.823   6.907
10777TIP3    H132274   6.410   2.819   6.917
10777TIP3    H232275   6.289   2.737   6.949
10778TIP3   OH232276   8.184   2.698   6.655
10778TIP3    H132277   8.199   2.613   6.608
10778TIP3    H232278   8.130   2.746   6.589
10779TIP3   OH232279   7.574   2.534   5.424
10779TIP3    H132280   7.623   2.518   5.508
10779TIP3    H232281   7.513   2.458   5.424
10780TIP3   OH232282   6.273   2.519   6.247
10780TIP3    H132283   6.335   2.444   6.255
10780TIP3    H232284   6.336   2.593   6.237
10781TIP3   OH232285   6.071   2.790   6.315
10781TIP3    H132286   6.123   2.789   6.232
10781TIP3    H232287   6.100   2.873   6.355
10782TIP3   OH232288   8.010   2.820   6.485
10782TIP3    H132289   7.926   2.869   6.494
10782TIP3    H232290   7.982   2.752   6.421
10783TIP3   OH232291   7.648   2.465   5.058
10783TIP3    H132292   7.692   2.395   5.005
10783TIP3    H232293   7.716   2.535   5.060
10784TIP3   OH232294   6.061   2.292   5.817
10784TIP3    H132295   5.969   2.288   5.847
10784TIP3    H232296   6.055   2.352   5.739
10785TIP3   OH232297   7.220   3.999   5.325
10785TIP3    H132298   7.273   3.991   5.243
10785TIP3    H232299   7.269   4.066   5.375
10786TIP3   OH232300   6.281   2.373   6.632
10786TIP3    H132301   6.232   2.373   6.716
10786TIP3    H232302   6.214   2.411   6.571
10787TIP3   OH232303   6.319   3.806   6.707
10787TIP3    H132304   6.225   3.782   6.694
10787TIP3    H232305   6.331   3.786   6.801
10788TIP3   OH232306   6.501   3.840   6.257
10788TIP3    H132307   6.454   3.917   6.219
10788TIP3    H232308   6.587   3.853   6.212
10789TIP3   OH232309   6.938   4.080   6.394
10789TIP3    H132310   6.980   4.078   6.482
10789TIP3    H232311   7.004   4.132   6.343
10790TIP3   OH232312   7.119   4.235   6.258
10790TIP3    H132313   7.189   4.184   6.214
10790TIP3    H232314   7.172   4.292   6.318
10791TIP3   OH232315   7.915   2.591   6.354
10791TIP3    H132316   7.826   2.578   6.318
10791TIP3    H232317   7.953   2.500   6.344
10792TIP3   OH232318   6.173   4.091   6.285
10792TIP3    H132319   6.083   4.122   6.261
10792TIP3    H232320   6.189   4.142   6.365
10793TIP3   OH232321   6.410   4.072   6.142
10793TIP3    H132322   6.322   4.084   6.184
10793TIP3    H232323   6.392   4.105   6.051
10794TIP3   OH232324   6.835   4.097   5.940
10794TIP3    H132325   6.766   4.115   5.874
10794TIP3    H232326   6.847   4.186   5.980
10795TIP3   OH232327   7.105   4.037   5.992
10795TIP3    H132328   7.011   4.055   5.972
10795TIP3    H232329   7.149   4.109   5.945
10796TIP3   OH232330   7.310   4.228   5.902
10796TIP3    H132331   7.296   4.313   5.854
10796TIP3    H232332   7.337   4.168   5.829
10797TIP3   OH232333   6.084   3.884   6.025
10797TIP3    H132334   6.111   3.856   6.115
10797TIP3    H232335   6.157   3.843   5.973
10798TIP3   OH232336   6.282   3.759   5.886
10798TIP3    H132337   6.297   3.675   5.936
10798TIP3    H232338   6.373   3.795   5.883
10799TIP3   OH232339   6.548   3.849   5.893
10799TIP3    H132340   6.578   3.756   5.883
10799TIP3    H232341   6.598   3.873   5.973
10800TIP3   OH232342   7.118   2.506   5.972
10800TIP3    H132343   7.079   2.434   6.025
10800TIP3    H232344   7.195   2.462   5.930
10801TIP3   OH232345   7.639   2.387   5.874
10801TIP3    H132346   7.677   2.440   5.801
10801TIP3    H232347   7.545   2.412   5.871
10802TIP3   OH232348   7.738   2.487   5.640
10802TIP3    H132349   7.813   2.434   5.605
10802TIP3    H232350   7.773   2.578   5.626
10803TIP3   OH232351   6.369   2.214   5.988
10803TIP3    H132352   6.276   2.181   5.992
10803TIP3    H232353   6.417   2.128   5.985
10804TIP3   OH232354   6.159   2.088   5.640
10804TIP3    H132355   6.189   2.144   5.567
10804TIP3    H232356   6.132   2.155   5.707
10805TIP3   OH232357   6.817   2.248   5.872
10805TIP3    H132358   6.872   2.295   5.807
10805TIP3    H232359   6.848   2.285   5.956
10806TIP3   OH232360   7.353   2.396   5.854
10806TIP3    H132361   7.361   2.354   5.768
10806TIP3    H232362   7.344   2.318   5.913
10807TIP3   OH232363   7.390   2.322   5.418
10807TIP3    H132364   7.305   2.366   5.438
10807TIP3    H232365   7.377   2.235   5.462
10808TIP3   OH232366   5.872   3.665   5.415
10808TIP3    H132367   5.786   3.633   5.382
10808TIP3    H232368   5.866   3.758   5.387
10809TIP3   OH232369   6.278   2.244   5.400
10809TIP3    H132370   6.325   2.181   5.343
10809TIP3    H232371   6.352   2.298   5.435
10810TIP3   OH232372   6.785   2.425   5.499
10810TIP3    H132373   6.845   2.378   5.560
10810TIP3    H232374   6.805   2.517   5.524
10811TIP3   OH232375   6.647   3.840   5.001
10811TIP3    H132376   6.734   3.865   4.963
10811TIP3    H232377   6.625   3.767   4.940
10812TIP3   OH232378   7.367   3.968   5.093
10812TIP3    H132379   7.359   3.870   5.082
10812TIP3    H232380   7.320   3.999   5.013
10813TIP3   OH232381   6.578   2.495   6.879
10813TIP3    H132382   6.542   2.425   6.937
10813TIP3    H232383   6.672   2.495   6.908
10814TIP3   OH232384   6.827   2.493   6.999
10814TIP3    H132385   6.913   2.466   6.963
10814TIP3    H232386   6.814   2.425   7.068
10815TIP3   OH232387   5.948   3.677   5.052
10815TIP3    H132388   5.955   3.703   5.145
10815TIP3    H232389   6.035   3.635   5.035
10816TIP3   OH232390   7.647   2.568   6.770
10816TIP3    H132391   7.659   2.534   6.862
10816TIP3    H232392   7.739   2.561   6.735
10817TIP3   OH232393   7.587   4.108   6.279
10817TIP3    H132394   7.509   4.078   6.228
10817TIP3    H232395   7.568   4.203   6.286
10818TIP3   OH232396   8.151   3.372   5.794
10818TIP3    H132397   8.177   3.302   5.859
10818TIP3    H232398   8.229   3.429   5.797
10819TIP3   OH232399   8.125   3.788   5.514
10819TIP3    H132400   8.118   3.690   5.515
10819TIP3    H232401   8.222   3.799   5.506
10820TIP3   OH232402   7.833   2.986   5.294
10820TIP3    H132403   7.787   3.069   5.316
10820TIP3    H232404   7.761   2.936   5.252
10821TIP3   OH232405   7.891   3.275   5.479
10821TIP3    H132406   7.941   3.197   5.512
10821TIP3    H232407   7.953   3.312   5.415
10822TIP3   OH232408   8.762   4.212   5.108
10822TIP3    H132409   8.853   4.173   5.103
10822TIP3    H232410   8.754   4.219   5.205
10823TIP3   OH232411   8.661   3.698   5.475
10823TIP3    H132412   8.673   3.672   5.382
10823TIP3    H232413   8.740   3.754   5.492
10824TIP3   OH232414   8.380   2.868   5.484
10824TIP3    H132415   8.398   2.934   5.415
10824TIP3    H232416   8.344   2.795   5.431
10825TIP3   OH232417   8.041   3.070   5.578
10825TIP3    H132418   8.121   3.050   5.630
10825TIP3    H232419   8.059   3.016   5.498
10826TIP3   OH232420   8.464   3.270   5.372
10826TIP3    H132421   8.556   3.239   5.384
10826TIP3    H232422   8.421   3.187   5.340
10827TIP3   OH232423   8.406   2.860   5.916
10827TIP3    H132424   8.350   2.892   5.843
10827TIP3    H232425   8.348   2.880   5.993
10828TIP3   OH232426   8.514   3.625   5.706
10828TIP3    H132427   8.451   3.692   5.742
10828TIP3    H232428   8.557   3.674   5.634
10829TIP3   OH232429   8.266   2.970   5.703
10829TIP3    H132430   8.331   3.041   5.722
10829TIP3    H232431   8.311   2.928   5.625
10830TIP3   OH232432   8.341   3.824   5.798
10830TIP3    H132433   8.315   3.912   5.763
10830TIP3    H232434   8.262   3.805   5.852
10831TIP3   OH232435   7.728   3.514   5.033
10831TIP3    H132436   7.688   3.542   4.949
10831TIP3    H232437   7.760   3.600   5.069
10832TIP3   OH232438   8.256   3.414   5.264
10832TIP3    H132439   8.219   3.356   5.194
10832TIP3    H232440   8.333   3.362   5.295
10833TIP3   OH232441   8.387   3.829   5.408
10833TIP3    H132442   8.365   3.798   5.318
10833TIP3    H232443   8.471   3.784   5.427
10834TIP3   OH232444   8.398   3.388   5.616
10834TIP3    H132445   8.429   3.360   5.527
10834TIP3    H232446   8.445   3.473   5.632
10835TIP3   OH232447   8.539   3.937   5.954
10835TIP3    H132448   8.477   4.001   5.995
10835TIP3    H232449   8.476   3.885   5.900
10836TIP3   OH232450   8.295   3.505   6.045
10836TIP3    H132451   8.298   3.591   6.091
10836TIP3    H232452   8.203   3.478   6.064
10837TIP3   OH232453   8.633   3.994   4.983
10837TIP3    H132454   8.660   4.082   5.015
10837TIP3    H232455   8.573   4.016   4.911
10838TIP3   OH232456   8.335   4.107   6.031
10838TIP3    H132457   8.300   4.110   5.940
10838TIP3    H232458   8.253   4.087   6.083
10839TIP3   OH232459   8.136   3.255   5.063
10839TIP3    H132460   8.065   3.298   5.010
10839TIP3    H232461   8.096   3.171   5.085
10840TIP3   OH232462   7.915   3.642   5.977
10840TIP3    H132463   7.848   3.620   5.910
10840TIP3    H232464   7.953   3.555   6.000
10841TIP3   OH232465   7.771   3.833   5.607
10841TIP3    H132466   7.867   3.828   5.599
10841TIP3    H232467   7.760   3.911   5.664
10842TIP3   OH232468   8.723   4.053   5.788
10842TIP3    H132469   8.730   4.144   5.823
10842TIP3    H232470   8.655   4.016   5.849
10843TIP3   OH232471   8.503   4.191   4.755
10843TIP3    H132472   8.460   4.178   4.668
10843TIP3    H232473   8.471   4.281   4.779
10844TIP3   OH232474   7.938   4.046   5.139
10844TIP3    H132475   7.986   4.038   5.225
10844TIP3    H232476   7.889   3.962   5.137
10845TIP3   OH232477   8.768   4.159   4.684
10845TIP3    H132478   8.675   4.172   4.714
10845TIP3    H232479   8.783   4.065   4.708
10846TIP3   OH232480   8.121   3.823   5.960
10846TIP3    H132481   8.169   3.807   6.044
10846TIP3    H232482   8.046   3.760   5.968
10847TIP3   OH232483   8.502   2.629   5.780
10847TIP3    H132484   8.416   2.611   5.739
10847TIP3    H232485   8.490   2.721   5.810
10848TIP3   OH232486   8.443   3.169   5.769
10848TIP3    H132487   8.393   3.188   5.851
10848TIP3    H232488   8.424   3.249   5.716
10849TIP3   OH232489   8.337   3.048   5.277
10849TIP3    H132490   8.247   3.016   5.301
10849TIP3    H232491   8.348   3.005   5.189
10850TIP3   OH232492   8.258   3.189   5.980
10850TIP3    H132493   8.318   3.240   6.038
10850TIP3    H232494   8.249   3.105   6.029
10851TIP3   OH232495   8.301   2.618   4.670
10851TIP3    H132496   8.295   2.642   4.764
10851TIP3    H232497   8.249   2.690   4.629
10852TIP3   OH232498   7.865   2.708   5.556
10852TIP3    H132499   7.934   2.746   5.616
10852TIP3    H232500   7.916   2.680   5.479
10853TIP3   OH232501   7.823   2.691   5.076
10853TIP3    H132502   7.870   2.729   4.999
10853TIP3    H232503   7.764   2.766   5.098
10854TIP3   OH232504   8.097   2.931   5.345
10854TIP3    H132505   8.002   2.935   5.319
10854TIP3    H232506   8.120   2.838   5.330
10855TIP3   OH232507   8.371   2.926   5.031
10855TIP3    H132508   8.454   2.941   4.984
10855TIP3    H232509   8.305   2.941   4.959
10856TIP3   OH232510   8.213   2.950   4.816
10856TIP3    H132511   8.146   2.904   4.762
10856TIP3    H232512   8.268   2.990   4.745
10857TIP3   OH232513   8.282   3.748   6.185
10857TIP3    H132514   8.362   3.775   6.235
10857TIP3    H232515   8.217   3.744   6.259
10858TIP3   OH232516   8.251   2.685   5.320
10858TIP3    H132517   8.219   2.612   5.379
10858TIP3    H232518   8.301   2.635   5.255
10859TIP3   OH232519   8.713   3.094   5.786
10859TIP3    H132520   8.621   3.119   5.761
10859TIP3    H232521   8.761   3.178   5.776
10860TIP3   OH232522   8.421   3.516   4.824
10860TIP3    H132523   8.374   3.431   4.820
10860TIP3    H232524   8.429   3.530   4.921
10861TIP3   OH232525   8.816   3.770   5.855
10861TIP3    H132526   8.854   3.761   5.943
10861TIP3    H232527   8.796   3.865   5.850
10862TIP3   OH232528   8.150   3.513   5.501
10862TIP3    H132529   8.185   3.481   5.415
10862TIP3    H232530   8.194   3.453   5.564
10863TIP3   OH232531   8.560   3.631   4.618
10863TIP3    H132532   8.537   3.722   4.644
10863TIP3    H232533   8.531   3.582   4.697
10864TIP3   OH232534   8.035   3.433   6.117
10864TIP3    H132535   8.061   3.417   6.209
10864TIP3    H232536   7.969   3.362   6.103
10865TIP3   OH232537   8.766   3.551   6.132
10865TIP3    H132538   8.724   3.502   6.058
10865TIP3    H232539   8.855   3.512   6.134
10866TIP3   OH232540   8.256   3.815   5.132
10866TIP3    H132541   8.255   3.894   5.074
10866TIP3    H232542   8.162   3.795   5.136
10867TIP3   OH232543   7.817   3.117   4.833
10867TIP3    H132544   7.862   3.201   4.855
10867TIP3    H232545   7.740   3.120   4.894
10868TIP3   OH232546   8.399   3.578   5.090
10868TIP3    H132547   8.359   3.667   5.097
10868TIP3    H232548   8.347   3.528   5.155
10869TIP3   OH232549   8.521   4.151   5.594
10869TIP3    H132550   8.557   4.229   5.546
10869TIP3    H232551   8.599   4.120   5.643
10870TIP3   OH232552   8.170   4.053   4.979
10870TIP3    H132553   8.085   4.063   5.025
10870TIP3    H232554   8.204   4.145   4.981
10871TIP3   OH232555   8.232   2.939   6.119
10871TIP3    H132556   8.135   2.939   6.129
10871TIP3    H232557   8.260   2.882   6.192
10872TIP3   OH232558   7.959   4.017   5.752
10872TIP3    H132559   8.014   3.945   5.789
10872TIP3    H232560   7.985   4.091   5.808
10873TIP3   OH232561   8.243   3.661   4.440
10873TIP3    H132562   8.250   3.567   4.416
10873TIP3    H232563   8.226   3.656   4.536
10874TIP3   OH232564   8.197   3.665   4.711
10874TIP3    H132565   8.280   3.633   4.752
10874TIP3    H232566   8.203   3.763   4.724
10875TIP3   OH232567   7.925   3.360   4.915
10875TIP3    H132568   7.858   3.406   4.970
10875TIP3    H232569   7.940   3.428   4.847
10876TIP3   OH232570   8.461   3.878   4.667
10876TIP3    H132571   8.371   3.899   4.697
10876TIP3    H232572   8.484   3.959   4.619
10877TIP3   OH232573   8.201   3.941   4.728
10877TIP3    H132574   8.169   4.011   4.666
10877TIP3    H232575   8.187   3.984   4.815
10878TIP3   OH232576   8.314   2.663   4.952
10878TIP3    H132577   8.298   2.743   5.005
10878TIP3    H232578   8.399   2.689   4.909
10879TIP3   OH232579   7.926   3.563   4.717
10879TIP3    H132580   7.997   3.628   4.729
10879TIP3    H232581   7.969   3.507   4.649
10880TIP3   OH232582   7.865   2.846   4.855
10880TIP3    H132583   7.869   2.944   4.852
10880TIP3    H232584   7.786   2.829   4.803
10881TIP3   OH232585   8.235   2.568   5.722
10881TIP3    H132586   8.221   2.530   5.633
10881TIP3    H232587   8.234   2.489   5.780
10882TIP3   OH232588   7.788   3.782   5.101
10882TIP3    H132589   7.727   3.813   5.169
10882TIP3    H232590   7.752   3.827   5.021
10883TIP3   OH232591   7.953   4.335   6.177
10883TIP3    H132592   8.040   4.336   6.224
10883TIP3    H232593   7.935   4.240   6.175
10884TIP3   OH232594   8.426   4.287   6.220
10884TIP3    H132595   8.520   4.266   6.229
10884TIP3    H232596   8.400   4.226   6.148
10885TIP3   OH232597   8.402   3.864   4.349
10885TIP3    H132598   8.343   3.793   4.384
10885TIP3    H232599   8.489   3.829   4.374
10886TIP3   OH232600   8.080   3.738   6.376
10886TIP3    H132601   8.093   3.644   6.395
10886TIP3    H232602   7.993   3.737   6.330
10887TIP3   OH232603   8.066   3.379   4.571
10887TIP3    H132604   8.121   3.353   4.647
10887TIP3    H232605   8.135   3.386   4.502
10888TIP3   OH232606   8.703   3.826   6.149
10888TIP3    H132607   8.649   3.842   6.068
10888TIP3    H232608   8.719   3.730   6.145
10889TIP3   OH232609   8.554   3.560   4.361
10889TIP3    H132610   8.571   3.596   4.451
10889TIP3    H232611   8.477   3.505   4.382
10890TIP3   OH232612   8.214   3.457   6.352
10890TIP3    H132613   8.299   3.415   6.332
10890TIP3    H232614   8.232   3.494   6.441
10891TIP3   OH232615   8.258   3.286   4.785
10891TIP3    H132616   8.234   3.247   4.871
10891TIP3    H232617   8.305   3.212   4.741
10892TIP3   OH232618   8.496   3.326   6.041
10892TIP3    H132619   8.432   3.401   6.047
10892TIP3    H232620   8.560   3.366   5.977
10893TIP3   OH232621   8.370   3.077   4.631
10893TIP3    H132622   8.334   3.089   4.541
10893TIP3    H232623   8.462   3.051   4.607
10894TIP3   OH232624   8.657   3.135   6.150
10894TIP3    H132625   8.664   3.051   6.101
10894TIP3    H232626   8.600   3.190   6.092
10895TIP3   OH232627   8.669   2.912   5.981
10895TIP3    H132628   8.680   2.968   5.901
10895TIP3    H232629   8.579   2.876   5.965
10896TIP3   OH232630   8.659   3.458   5.872
10896TIP3    H132631   8.731   3.452   5.807
10896TIP3    H232632   8.600   3.522   5.826
10897TIP3   OH232633   8.479   3.275   6.347
10897TIP3    H132634   8.429   3.192   6.364
10897TIP3    H232635   8.520   3.256   6.261
10898TIP3   OH232636   8.364   3.034   6.416
10898TIP3    H132637   8.371   2.939   6.396
10898TIP3    H232638   8.410   3.036   6.504
10899TIP3   OH232639   8.165   4.144   4.541
10899TIP3    H132640   8.262   4.139   4.530
10899TIP3    H232641   8.143   4.198   4.463
10900TIP3   OH232642   7.655   3.528   4.752
10900TIP3    H132643   7.750   3.548   4.738
10900TIP3    H232644   7.648   3.439   4.711
10901TIP3   OH232645   7.573   4.136   5.172
10901TIP3    H132646   7.505   4.076   5.132
10901TIP3    H232647   7.616   4.076   5.236
10902TIP3   OH232648   7.705   3.981   5.357
10902TIP3    H132649   7.692   3.913   5.426
10902TIP3    H232650   7.757   4.046   5.407
10903TIP3   OH232651   7.888   3.396   5.729
10903TIP3    H132652   7.885   3.361   5.637
10903TIP3    H232653   7.985   3.396   5.745
10904TIP3   OH232654   8.097   3.073   6.394
10904TIP3    H132655   8.195   3.076   6.396
10904TIP3    H232656   8.081   2.990   6.443
10905TIP3   OH232657   8.061   2.780   5.738
10905TIP3    H132658   8.121   2.702   5.741
10905TIP3    H232659   8.127   2.852   5.732
10906TIP3   OH232660   7.867   3.048   5.801
10906TIP3    H132661   7.920   3.043   5.719
10906TIP3    H232662   7.902   3.129   5.841
10907TIP3   OH232663   7.856   2.540   5.298
10907TIP3    H132664   7.766   2.543   5.335
10907TIP3    H232665   7.849   2.605   5.225
10908TIP3   OH232666   8.075   2.637   6.122
10908TIP3    H132667   8.022   2.630   6.202
10908TIP3    H232668   8.010   2.672   6.059
10909TIP3   OH232669   8.114   4.065   6.193
10909TIP3    H132670   8.021   4.039   6.181
10909TIP3    H232671   8.130   4.040   6.285
10910TIP3   OH232672   8.297   4.095   5.745
10910TIP3    H132673   8.249   4.170   5.706
10910TIP3    H232674   8.382   4.107   5.699
10911TIP3   OH232675   8.727   4.321   5.883
10911TIP3    H132676   8.775   4.328   5.968
10911TIP3    H232677   8.777   4.381   5.824
10912TIP3   OH232678   8.868   4.489   5.700
10912TIP3    H132679   8.920   4.481   5.616
10912TIP3    H232680   8.916   4.560   5.744
10913TIP3   OH232681   7.969   4.350   5.770
10913TIP3    H132682   7.879   4.381   5.748
10913TIP3    H232683   7.984   4.397   5.853
10914TIP3   OH232684   8.204   4.326   5.628
10914TIP3    H132685   8.117   4.338   5.671
10914TIP3    H232686   8.186   4.358   5.538
10915TIP3   OH232687   8.602   4.363   5.430
10915TIP3    H132688   8.530   4.374   5.365
10915TIP3    H232689   8.615   4.454   5.462
10916TIP3   OH232690   8.855   4.260   5.400
10916TIP3    H132691   8.766   4.298   5.414
10916TIP3    H232692   8.913   4.337   5.424
10917TIP3   OH232693   7.880   4.142   5.512
10917TIP3    H132694   7.908   4.113   5.602
10917TIP3    H232695   7.953   4.100   5.460
10918TIP3   OH232696   8.076   4.017   5.373
10918TIP3    H132697   8.090   3.933   5.422
10918TIP3    H232698   8.168   4.052   5.370
10919TIP3   OH232699   8.343   4.109   5.378
10919TIP3    H132700   8.370   4.017   5.366
10919TIP3    H232701   8.393   4.131   5.459
10920TIP3   OH232702   8.164   2.474   5.468
10920TIP3    H132703   8.073   2.438   5.477
10920TIP3    H232704   8.214   2.389   5.463
10921TIP3   OH232705   7.953   2.346   5.114
10921TIP3    H132706   7.983   2.408   5.045
10921TIP3    H232707   7.927   2.407   5.185
10922TIP3   OH232708   7.668   3.918   4.901
10922TIP3    H132709   7.583   3.885   4.867
10922TIP3    H232710   7.659   4.013   4.881
10923TIP3   OH232711   8.071   2.504   4.890
10923TIP3    H132712   8.113   2.445   4.825
10923TIP3    H232713   8.146   2.558   4.920
10924TIP3   OH232714   8.432   4.100   4.496
10924TIP3    H132715   8.525   4.110   4.464
10924TIP3    H232716   8.404   4.029   4.434
10925TIP3   OH232717   8.378   2.762   6.369
10925TIP3    H132718   8.351   2.700   6.439
10925TIP3    H232719   8.470   2.737   6.354
10926TIP3   OH232720   7.744   3.933   4.541
10926TIP3    H132721   7.755   3.955   4.634
10926TIP3    H232722   7.831   3.891   4.520
10927TIP3   OH232723   1.312   4.272   6.730
10927TIP3    H132724   1.279   4.362   6.709
10927TIP3    H232725   1.235   4.219   6.701
10928TIP3   OH232726   1.312   4.271   7.122
10928TIP3    H132727   1.348   4.246   7.209
10928TIP3    H232728   1.267   4.188   7.095
10929TIP3   OH232729   0.640   4.144   7.436
10929TIP3    H132730   0.607   4.097   7.514
10929TIP3    H232731   0.685   4.220   7.476
10930TIP3   OH232732   1.557   4.574   6.802
10930TIP3    H132733   1.538   4.507   6.869
10930TIP3    H232734   1.587   4.649   6.855
10931TIP3   OH232735   0.588   4.557   7.140
10931TIP3    H132736   0.571   4.463   7.160
10931TIP3    H232737   0.676   4.568   7.178
10932TIP3   OH232738   0.359   4.060   7.118
10932TIP3    H132739   0.396   4.012   7.194
10932TIP3    H232740   0.412   4.141   7.117
10933TIP3   OH232741   1.208   5.033   6.819
10933TIP3    H132742   1.247   4.964   6.761
10933TIP3    H232743   1.202   4.985   6.903
10934TIP3   OH232744   1.108   4.496   7.164
10934TIP3    H132745   1.149   4.418   7.123
10934TIP3    H232746   1.191   4.543   7.191
10935TIP3   OH232747   2.127   3.815   7.162
10935TIP3    H132748   2.155   3.900   7.202
10935TIP3    H232749   2.146   3.831   7.068
10936TIP3   OH232750   1.524   3.995   7.192
10936TIP3    H132751   1.564   3.909   7.214
10936TIP3    H232752   1.488   3.977   7.103
10937TIP3   OH232753   0.867   3.656   7.159
10937TIP3    H132754   0.845   3.728   7.096
10937TIP3    H232755   0.818   3.582   7.117
10938TIP3   OH232756   1.556   3.748   6.779
10938TIP3    H132757   1.627   3.734   6.847
10938TIP3    H232758   1.610   3.783   6.706
10939TIP3   OH232759   0.496   3.860   7.271
10939TIP3    H132760   0.578   3.851   7.323
10939TIP3    H232761   0.522   3.816   7.188
10940TIP3   OH232762   0.937   4.054   7.047
10940TIP3    H132763   1.029   4.030   7.070
10940TIP3    H232764   0.898   3.968   7.023
10941TIP3   OH232765   2.199   4.028   7.330
10941TIP3    H132766   2.114   4.071   7.307
10941TIP3    H232767   2.206   4.052   7.423
10942TIP3   OH232768   0.854   3.627   7.591
10942TIP3    H132769   0.799   3.677   7.527
10942TIP3    H232770   0.808   3.646   7.674
10943TIP3   OH232771   1.197   4.491   6.601
10943TIP3    H132772   1.156   4.478   6.514
10943TIP3    H232773   1.152   4.573   6.631
10944TIP3   OH232774   0.961   4.423   7.390
10944TIP3    H132775   0.901   4.489   7.430
10944TIP3    H232776   1.001   4.472   7.316
10945TIP3   OH232777   1.758   3.755   6.961
10945TIP3    H132778   1.738   3.713   7.046
10945TIP3    H232779   1.809   3.834   6.990
10946TIP3   OH232780   0.735   3.753   7.379
10946TIP3    H132781   0.792   3.829   7.404
10946TIP3    H232782   0.787   3.717   7.303
10947TIP3   OH232783   0.775   4.599   7.511
10947TIP3    H132784   0.713   4.652   7.458
10947TIP3    H232785   0.713   4.558   7.574
10948TIP3   OH232786   1.622   4.820   6.965
10948TIP3    H132787   1.532   4.809   7.004
10948TIP3    H232788   1.612   4.906   6.919
10949TIP3   OH232789   1.918   3.717   7.330
10949TIP3    H132790   1.829   3.740   7.297
10949TIP3    H232791   1.976   3.748   7.257
10950TIP3   OH232792   1.209   3.349   7.310
10950TIP3    H132793   1.193   3.255   7.331
10950TIP3    H232794   1.132   3.390   7.355
10951TIP3   OH232795   1.319   4.861   6.632
10951TIP3    H132796   1.370   4.779   6.615
10951TIP3    H232797   1.383   4.927   6.595
10952TIP3   OH232798   1.466   4.645   6.551
10952TIP3    H132799   1.424   4.565   6.517
10952TIP3    H232800   1.505   4.612   6.635
10953TIP3   OH232801   1.849   4.727   7.307
10953TIP3    H132802   1.834   4.650   7.248
10953TIP3    H232803   1.830   4.802   7.247
10954TIP3   OH232804   1.140   4.121   6.569
10954TIP3    H132805   1.061   4.174   6.549
10954TIP3    H232806   1.186   4.120   6.483
10955TIP3   OH232807   1.097   3.911   6.277
10955TIP3    H132808   1.164   3.962   6.327
10955TIP3    H232809   1.155   3.847   6.230
10956TIP3   OH232810   2.043   4.370   7.158
10956TIP3    H132811   1.958   4.419   7.160
10956TIP3    H232812   2.074   4.392   7.067
10957TIP3   OH232813   1.490   4.205   6.534
10957TIP3    H132814   1.434   4.229   6.613
10957TIP3    H232815   1.574   4.181   6.579
10958TIP3   OH232816   1.722   4.243   7.452
10958TIP3    H132817   1.716   4.327   7.502
10958TIP3    H232818   1.635   4.243   7.407
10959TIP3   OH232819   0.724   4.195   6.953
10959TIP3    H132820   0.684   4.136   6.886
10959TIP3    H232821   0.803   4.144   6.980
10960TIP3   OH232822   0.869   4.630   7.095
10960TIP3    H132823   0.838   4.581   7.017
10960TIP3    H232824   0.955   4.586   7.113
10961TIP3   OH232825   0.913   4.163   7.305
10961TIP3    H132826   0.915   4.154   7.208
10961TIP3    H232827   0.921   4.259   7.320
10962TIP3   OH232828   1.381   4.812   7.087
10962TIP3    H132829   1.371   4.890   7.143
10962TIP3    H232830   1.366   4.738   7.149
10963TIP3   OH232831   0.994   4.727   7.631
10963TIP3    H132832   0.936   4.785   7.685
10963TIP3    H232833   0.925   4.672   7.588
10964TIP3   OH232834   1.326   4.063   6.364
10964TIP3    H132835   1.385   4.124   6.413
10964TIP3    H232836   1.353   4.083   6.271
10965TIP3   OH232837   0.727   4.261   7.710
10965TIP3    H132838   0.747   4.345   7.756
10965TIP3    H232839   0.632   4.271   7.699
10966TIP3   OH232840   1.075   4.738   6.637
10966TIP3    H132841   1.158   4.790   6.644
10966TIP3    H232842   1.015   4.802   6.595
10967TIP3   OH232843   0.778   4.887   7.711
10967TIP3    H132844   0.750   4.897   7.618
10967TIP3    H232845   0.699   4.847   7.753
10968TIP3   OH232846   1.844   3.300   6.414
10968TIP3    H132847   1.762   3.321   6.464
10968TIP3    H232848   1.857   3.383   6.364
10969TIP3   OH232849   0.603   4.033   6.753
10969TIP3    H132850   0.534   4.075   6.698
10969TIP3    H232851   0.559   3.953   6.781
10970TIP3   OH232852   1.645   4.669   5.960
10970TIP3    H132853   1.653   4.766   5.947
10970TIP3    H232854   1.738   4.640   5.947
10971TIP3   OH232855   2.085   5.075   7.358
10971TIP3    H132856   2.083   4.979   7.371
10971TIP3    H232857   2.001   5.101   7.403
10972TIP3   OH232858   1.189   4.856   7.487
10972TIP3    H132859   1.187   4.948   7.520
10972TIP3    H232860   1.119   4.815   7.542
10973TIP3   OH232861   0.957   4.984   6.445
10973TIP3    H132862   0.909   4.973   6.361
10973TIP3    H232863   0.927   5.072   6.475
10974TIP3   OH232864   1.155   4.889   6.078
10974TIP3    H132865   1.214   4.819   6.044
10974TIP3    H232866   1.190   4.901   6.169
10975TIP3   OH232867   1.207   4.938   6.348
10975TIP3    H132868   1.118   4.947   6.390
10975TIP3    H232869   1.259   4.902   6.421
10976TIP3   OH232870   1.972   4.202   7.633
10976TIP3    H132871   1.889   4.213   7.585
10976TIP3    H232872   1.989   4.107   7.620
10977TIP3   OH232873   0.972   3.434   7.430
10977TIP3    H132874   0.884   3.402   7.402
10977TIP3    H232875   0.945   3.514   7.480
10978TIP3   OH232876   1.509   3.556   7.616
10978TIP3    H132877   1.581   3.523   7.675
10978TIP3    H232878   1.427   3.534   7.665
10979TIP3   OH232879   1.749   3.983   7.556
10979TIP3    H132880   1.698   3.976   7.640
10979TIP3    H232881   1.718   4.067   7.518
10980TIP3   OH232882   1.404   4.100   6.107
10980TIP3    H132883   1.369   4.081   6.019
10980TIP3    H232884   1.487   4.147   6.085
10981TIP3   OH232885   1.117   3.481   6.413
10981TIP3    H132886   1.081   3.477   6.504
10981TIP3    H232887   1.077   3.399   6.377
10982TIP3   OH232888   0.906   3.946   7.464
10982TIP3    H132889   0.854   3.971   7.543
10982TIP3    H232890   0.901   4.029   7.409
10983TIP3   OH232891   0.784   3.833   6.972
10983TIP3    H132892   0.690   3.812   6.987
10983TIP3    H232893   0.797   3.794   6.883
10984TIP3   OH232894   1.277   3.921   6.704
10984TIP3    H132895   1.227   3.992   6.659
10984TIP3    H232896   1.332   3.887   6.631
10985TIP3   OH232897   1.465   4.209   7.775
10985TIP3    H132898   1.437   4.131   7.825
10985TIP3    H232899   1.559   4.215   7.801
10986TIP3   OH232900   1.434   3.947   6.937
10986TIP3    H132901   1.369   3.974   6.869
10986TIP3    H232902   1.470   3.868   6.891
10987TIP3   OH232903   0.732   3.973   7.682
10987TIP3    H132904   0.756   4.061   7.715
10987TIP3    H232905   0.650   3.956   7.731
10988TIP3   OH232906   0.774   3.457   6.375
10988TIP3    H132907   0.762   3.457   6.472
10988TIP3    H232908   0.695   3.507   6.347
10989TIP3   OH232909   0.346   3.538   7.224
10989TIP3    H132910   0.415   3.535   7.292
10989TIP3    H232911   0.356   3.454   7.178
10990TIP3   OH232912   0.305   3.536   6.799
10990TIP3    H132913   0.332   3.549   6.705
10990TIP3    H232914   0.303   3.628   6.828
10991TIP3   OH232915   1.450   4.195   7.357
10991TIP3    H132916   1.482   4.123   7.297
10991TIP3    H232917   1.416   4.141   7.431
10992TIP3   OH232918   1.123   3.657   7.032
10992TIP3    H132919   1.043   3.657   7.088
10992TIP3    H232920   1.194   3.648   7.099
10993TIP3   OH232921   0.546   3.701   7.040
10993TIP3    H132922   0.458   3.665   7.059
10993TIP3    H232923   0.597   3.619   7.024
10994TIP3   OH232924   0.811   3.708   6.731
10994TIP3    H132925   0.906   3.724   6.711
10994TIP3    H232926   0.766   3.732   6.647
10995TIP3   OH232927   1.609   3.733   7.236
10995TIP3    H132928   1.578   3.749   7.328
10995TIP3    H232929   1.539   3.673   7.204
10996TIP3   OH232930   0.664   3.748   6.504
10996TIP3    H132931   0.600   3.701   6.447
10996TIP3    H232932   0.720   3.789   6.435
10997TIP3   OH232933   1.779   5.422   7.453
10997TIP3    H132934   1.770   5.454   7.362
10997TIP3    H232935   1.860   5.470   7.480
10998TIP3   OH232936   0.743   4.493   7.848
10998TIP3    H132937   0.813   4.557   7.876
10998TIP3    H232938   0.698   4.481   7.933
10999TIP3   OH232939   1.195   3.990   7.132
10999TIP3    H132940   1.269   3.946   7.087
10999TIP3    H232941   1.195   3.947   7.220
11000TIP3   OH232942   0.711   3.476   7.018
11000TIP3    H132943   0.674   3.398   7.065
11000TIP3    H232944   0.757   3.433   6.945
11001TIP3   OH232945   1.173   3.893   7.410
11001TIP3    H132946   1.082   3.927   7.428
11001TIP3    H232947   1.229   3.953   7.463
11002TIP3   OH232948   0.910   4.272   6.513
11002TIP3    H132949   0.837   4.208   6.501
11002TIP3    H232950   0.890   4.306   6.604
11003TIP3   OH232951   1.807   4.510   7.142
11003TIP3    H132952   1.832   4.561   7.062
11003TIP3    H232953   1.723   4.467   7.114
11004TIP3   OH232954   1.366   3.584   6.381
11004TIP3    H132955   1.271   3.563   6.392
11004TIP3    H232956   1.372   3.678   6.409
11005TIP3   OH232957   1.312   4.596   7.513
11005TIP3    H132958   1.332   4.575   7.605
11005TIP3    H232959   1.271   4.684   7.519
11006TIP3   OH232960   1.434   3.835   6.485
11006TIP3    H132961   1.531   3.841   6.500
11006TIP3    H232962   1.415   3.916   6.435
11007TIP3   OH232963   0.607   4.287   7.193
11007TIP3    H132964   0.655   4.242   7.121
11007TIP3    H232965   0.618   4.226   7.269
11008TIP3   OH232966   1.055   4.424   6.338
11008TIP3    H132967   1.005   4.510   6.341
11008TIP3    H232968   1.001   4.369   6.399
11009TIP3   OH232969   1.214   4.335   7.806
11009TIP3    H132970   1.150   4.272   7.769
11009TIP3    H232971   1.299   4.297   7.775
11010TIP3   OH232972   1.467   4.854   7.405
11010TIP3    H132973   1.371   4.850   7.421
11010TIP3    H232974   1.497   4.908   7.481
11011TIP3   OH232975   1.876   3.929   6.317
11011TIP3    H132976   1.815   3.885   6.253
11011TIP3    H232977   1.872   4.019   6.278
11012TIP3   OH232978   2.099   4.789   7.395
11012TIP3    H132979   2.001   4.780   7.386
11012TIP3    H232980   2.126   4.756   7.306
11013TIP3   OH232981   1.573   4.740   6.224
11013TIP3    H132982   1.552   4.670   6.288
11013TIP3    H232983   1.591   4.691   6.142
11014TIP3   OH232984   1.575   4.374   7.056
11014TIP3    H132985   1.481   4.349   7.071
11014TIP3    H232986   1.608   4.293   7.013
11015TIP3   OH232987   0.708   4.601   6.813
11015TIP3    H132988   0.697   4.681   6.758
11015TIP3    H232989   0.626   4.600   6.864
11016TIP3   OH232990   0.276   3.913   6.534
11016TIP3    H132991   0.334   3.990   6.553
11016TIP3    H232992   0.189   3.951   6.548
11017TIP3   OH232993   0.835   4.362   6.756
11017TIP3    H132994   0.801   4.452   6.775
11017TIP3    H232995   0.802   4.312   6.833
11018TIP3   OH232996   0.983   4.947   7.285
11018TIP3    H132997   1.028   5.016   7.232
11018TIP3    H232998   1.059   4.907   7.331
11019TIP3   OH232999   0.621   4.844   6.672
11019TIP3    H133000   0.542   4.870   6.722
11019TIP3    H233001   0.668   4.931   6.670
11020TIP3   OH233002   1.358   4.579   7.245
11020TIP3    H133003   1.348   4.579   7.343
11020TIP3    H233004   1.436   4.523   7.234
11021TIP3   OH233005   1.340   4.473   6.128
11021TIP3    H133006   1.394   4.448   6.207
11021TIP3    H233007   1.252   4.446   6.157
11022TIP3   OH233008   1.610   5.109   7.293
11022TIP3    H133009   1.529   5.054   7.288
11022TIP3    H233010   1.593   5.174   7.221
11023TIP3   OH233011   1.676   4.946   5.946
11023TIP3    H133012   1.716   5.024   5.903
11023TIP3    H233013   1.594   4.988   5.979
11024TIP3   OH233014   1.501   4.403   6.340
11024TIP3    H133015   1.490   4.338   6.413
11024TIP3    H233016   1.598   4.400   6.329
11025TIP3   OH233017   0.701   4.448   6.125
11025TIP3    H133018   0.713   4.354   6.103
11025TIP3    H233019   0.680   4.443   6.220
11026TIP3   OH233020   0.648   4.458   6.400
11026TIP3    H133021   0.725   4.432   6.452
11026TIP3    H233022   0.652   4.557   6.407
11027TIP3   OH233023   0.399   4.144   6.610
11027TIP3    H133024   0.354   4.196   6.677
11027TIP3    H233025   0.411   4.211   6.540
11028TIP3   OH233026   1.538   3.796   7.495
11028TIP3    H133027   1.620   3.828   7.535
11028TIP3    H233028   1.522   3.711   7.542
11029TIP3   OH233029   1.416   3.533   6.665
11029TIP3    H133030   1.402   3.555   6.572
11029TIP3    H233031   1.456   3.615   6.701
11030TIP3   OH233032   0.913   4.655   6.346
11030TIP3    H133033   0.826   4.679   6.385
11030TIP3    H233034   0.930   4.734   6.293
11031TIP3   OH233035   1.095   3.720   6.764
11031TIP3    H133036   1.159   3.793   6.748
11031TIP3    H233037   1.103   3.710   6.862
11032TIP3   OH233038   1.369   4.031   7.558
11032TIP3    H133039   1.387   4.076   7.642
11032TIP3    H233040   1.420   3.948   7.566
11033TIP3   OH233041   1.241   3.437   6.862
11033TIP3    H133042   1.235   3.515   6.921
11033TIP3    H233043   1.305   3.470   6.795
11034TIP3   OH233044   0.659   4.729   6.421
11034TIP3    H133045   0.631   4.799   6.356
11034TIP3    H233046   0.641   4.775   6.506
11035TIP3   OH233047   0.756   3.444   6.653
11035TIP3    H133048   0.755   3.534   6.691
11035TIP3    H233049   0.852   3.425   6.660
11036TIP3   OH233050   2.012   3.933   7.547
11036TIP3    H133051   1.914   3.938   7.559
11036TIP3    H233052   2.015   3.881   7.466
11037TIP3   OH233053   1.661   4.128   6.938
11037TIP3    H133054   1.583   4.071   6.951
11037TIP3    H233055   1.731   4.080   6.988
11038TIP3   OH233056   0.385   4.360   6.445
11038TIP3    H133057   0.469   4.411   6.436
11038TIP3    H233058   0.390   4.309   6.362
11039TIP3   OH233059   0.295   3.636   6.545
11039TIP3    H133060   0.302   3.734   6.545
11039TIP3    H233061   0.270   3.620   6.453
11040TIP3   OH233062   1.624   5.090   6.886
11040TIP3    H133063   1.580   5.136   6.811
11040TIP3    H233064   1.718   5.110   6.865
11041TIP3   OH233065   0.708   3.350   7.409
11041TIP3    H133066   0.679   3.317   7.321
11041TIP3    H233067   0.697   3.270   7.464
11042TIP3   OH233068   0.853   5.097   7.879
11042TIP3    H133069   0.933   5.094   7.934
11042TIP3    H233070   0.859   5.016   7.827
11043TIP3   OH233071   0.862   4.652   6.034
11043TIP3    H133072   0.806   4.581   6.074
11043TIP3    H233073   0.939   4.601   6.007
11044TIP3   OH233074   1.525   4.994   7.633
11044TIP3    H133075   1.512   4.918   7.695
11044TIP3    H233076   1.599   5.042   7.674
11045TIP3   OH233077   1.299   4.690   5.952
11045TIP3    H133078   1.339   4.627   6.015
11045TIP3    H233079   1.360   4.687   5.876
11046TIP3   OH233080   0.509   4.172   6.271
11046TIP3    H133081   0.571   4.146   6.342
11046TIP3    H233082   0.572   4.176   6.195
11047TIP3   OH233083   1.164   4.612   7.822
11047TIP3    H133084   1.112   4.632   7.741
11047TIP3    H233085   1.182   4.516   7.811
11048TIP3   OH233086   1.028   4.372   6.069
11048TIP3    H133087   1.028   4.384   6.166
11048TIP3    H233088   1.028   4.274   6.063
11049TIP3   OH233089   1.633   4.622   7.450
11049TIP3    H133090   1.707   4.666   7.404
11049TIP3    H233091   1.560   4.686   7.434
11050TIP3   OH233092   0.713   4.079   6.479
11050TIP3    H133093   0.694   4.038   6.565
11050TIP3    H233094   0.753   4.005   6.428
11051TIP3   OH233095   0.991   4.147   7.713
11051TIP3    H133096   0.909   4.199   7.707
11051TIP3    H233097   1.040   4.177   7.633
11052TIP3   OH233098   0.822   3.876   6.322
11052TIP3    H133099   0.796   3.882   6.228
11052TIP3    H233100   0.920   3.877   6.314
11053TIP3   OH233101   1.510   4.537   7.845
11053TIP3    H133102   1.577   4.501   7.785
11053TIP3    H233103   1.502   4.466   7.912
11054TIP3   OH233104   1.637   4.198   5.990
11054TIP3    H133105   1.616   4.155   5.905
11054TIP3    H233106   1.605   4.289   5.970
11055TIP3   OH233107   1.107   3.924   7.831
11055TIP3    H133108   1.095   3.849   7.769
11055TIP3    H233109   1.049   3.994   7.793
11056TIP3   OH233110   1.106   3.725   7.632
11056TIP3    H133111   1.133   3.773   7.551
11056TIP3    H233112   1.014   3.701   7.613
11057TIP3   OH233113   1.138   4.254   7.516
11057TIP3    H133114   1.221   4.265   7.468
11057TIP3    H233115   1.078   4.315   7.469
11058TIP3   OH233116   1.729   4.205   7.889
11058TIP3    H133117   1.765   4.116   7.905
11058TIP3    H233118   1.804   4.248   7.845
11059TIP3   OH233119   1.760   4.472   7.633
11059TIP3    H133120   1.702   4.527   7.575
11059TIP3    H233121   1.848   4.493   7.594
11060TIP3   OH233122   1.245   3.485   7.671
11060TIP3    H133123   1.198   3.570   7.661
11060TIP3    H233124   1.174   3.421   7.656
11061TIP3   OH233125   1.363   3.980   7.882
11061TIP3    H133126   1.344   4.021   7.969
11061TIP3    H233127   1.272   3.951   7.858
11062TIP3   OH233128   1.620   3.933   7.785
11062TIP3    H133129   1.532   3.931   7.829
11062TIP3    H233130   1.680   3.909   7.859
11063TIP3   OH233131   1.837   3.910   7.973
11063TIP3    H133132   1.867   3.816   7.965
11063TIP3    H233133   1.826   3.914   8.071
11064TIP3   OH233134   1.270   3.326   7.903
11064TIP3    H133135   1.314   3.375   7.975
11064TIP3    H233136   1.266   3.393   7.833
11065TIP3   OH233137   0.630   4.922   6.227
11065TIP3    H133138   0.726   4.921   6.207
11065TIP3    H233139   0.599   4.983   6.158
11066TIP3   OH233140   1.878   5.175   6.849
11066TIP3    H133141   1.915   5.199   6.936
11066TIP3    H233142   1.955   5.189   6.789
11067TIP3   OH233143   1.922   5.196   7.127
11067TIP3    H133144   1.872   5.112   7.123
11067TIP3    H233145   1.991   5.170   7.191
11068TIP3   OH233146   1.962   4.872   7.708
11068TIP3    H133147   1.886   4.883   7.769
11068TIP3    H233148   2.001   4.962   7.709
11069TIP3   OH233149   1.777   4.384   6.320
11069TIP3    H133150   1.843   4.449   6.288
11069TIP3    H233151   1.824   4.348   6.399
11070TIP3   OH233152   1.906   4.251   6.524
11070TIP3    H133153   1.838   4.211   6.583
11070TIP3    H233154   1.970   4.289   6.588
11071TIP3   OH233155   1.964   4.648   6.960
11071TIP3    H133156   2.014   4.579   6.911
11071TIP3    H233157   1.966   4.723   6.897
11072TIP3   OH233158   1.789   4.950   7.149
11072TIP3    H133159   1.716   4.991   7.200
11072TIP3    H233160   1.740   4.903   7.078
11073TIP3   OH233161   1.841   4.162   6.169
11073TIP3    H133162   1.768   4.164   6.103
11073TIP3    H233163   1.814   4.238   6.225
11074TIP3   OH233164   1.714   3.832   6.120
11074TIP3    H133165   1.663   3.868   6.047
11074TIP3    H233166   1.692   3.737   6.113
11075TIP3   OH233167   1.716   4.113   6.669
11075TIP3    H133168   1.723   4.017   6.662
11075TIP3    H233169   1.701   4.125   6.766
11076TIP3   OH233170   2.007   4.538   7.531
11076TIP3    H133171   2.077   4.471   7.517
11076TIP3    H233172   2.027   4.604   7.461
11077TIP3   OH233173   2.187   4.337   7.534
11077TIP3    H133174   2.112   4.289   7.574
11077TIP3    H233175   2.259   4.273   7.554
11078TIP3   OH233176   1.656   3.566   6.101
11078TIP3    H133177   1.726   3.534   6.162
11078TIP3    H233178   1.580   3.510   6.125
11079TIP3   OH233179   1.715   3.829   6.560
11079TIP3    H133180   1.756   3.740   6.575
11079TIP3    H233181   1.773   3.862   6.490
11080TIP3   OH233182   1.874   3.995   7.060
11080TIP3    H133183   1.959   4.020   7.018
11080TIP3    H233184   1.888   4.034   7.149
11081TIP3   OH233185   1.947   4.145   7.288
11081TIP3    H133186   1.869   4.178   7.338
11081TIP3    H233187   1.978   4.228   7.245
11082TIP3   OH233188   2.426   3.756   7.837
11082TIP3    H133189   2.474   3.687   7.787
11082TIP3    H233190   2.380   3.804   7.765
11083TIP3   OH233191   1.823   3.578   6.600
11083TIP3    H133192   1.870   3.561   6.685
11083TIP3    H233193   1.761   3.502   6.599
11084TIP3   OH233194   0.535   3.562   7.428
11084TIP3    H133195   0.597   3.486   7.430
11084TIP3    H233196   0.596   3.635   7.407
11085TIP3   OH233197   2.262   3.868   7.652
11085TIP3    H133198   2.178   3.914   7.671
11085TIP3    H233199   2.228   3.801   7.589
11086TIP3   OH233200   1.898   3.508   6.237
11086TIP3    H133201   1.938   3.439   6.181
11086TIP3    H233202   1.965   3.579   6.234
11087TIP3   OH233203   0.334   3.354   7.002
11087TIP3    H133204   0.242   3.348   7.031
11087TIP3    H233205   0.329   3.420   6.929
11088TIP3   OH233206   1.469   5.045   6.504
11088TIP3    H133207   1.518   5.033   6.420
11088TIP3    H233208   1.521   5.114   6.547
11089TIP3   OH233209   0.744   4.919   7.428
11089TIP3    H133210   0.727   4.998   7.373
11089TIP3    H233211   0.835   4.899   7.398
11090TIP3   OH233212   1.187   5.120   7.565
11090TIP3    H133213   1.226   5.119   7.655
11090TIP3    H233214   1.252   5.176   7.518
11091TIP3   OH233215   1.367   5.281   7.434
11091TIP3    H133216   1.437   5.227   7.394
11091TIP3    H233217   1.420   5.336   7.495
11092TIP3   OH233218   2.166   3.632   7.521
11092TIP3    H133219   2.074   3.622   7.489
11092TIP3    H233220   2.199   3.539   7.512
11093TIP3   OH233221   0.659   5.147   7.293
11093TIP3    H133222   0.633   5.238   7.319
11093TIP3    H233223   0.607   5.134   7.212
11094TIP3   OH233224   1.089   5.142   7.118
11094TIP3    H133225   1.040   5.162   7.036
11094TIP3    H233226   1.100   5.231   7.157
11095TIP3   OH233227   1.356   5.082   7.170
11095TIP3    H133228   1.261   5.098   7.151
11095TIP3    H233229   1.398   5.154   7.120
11096TIP3   OH233230   1.566   5.278   7.080
11096TIP3    H133231   1.548   5.360   7.031
11096TIP3    H233232   1.588   5.215   7.007
11097TIP3   OH233233   0.534   4.808   7.049
11097TIP3    H133234   0.540   4.717   7.088
11097TIP3    H233235   0.627   4.837   7.055
11098TIP3   OH233236   0.810   4.901   7.070
11098TIP3    H133237   0.834   4.807   7.055
11098TIP3    H233238   0.863   4.917   7.150
11099TIP3   OH233239   1.368   3.550   7.151
11099TIP3    H133240   1.328   3.478   7.203
11099TIP3    H233241   1.444   3.505   7.108
11100TIP3   OH233242   1.889   3.436   7.054
11100TIP3    H133243   1.924   3.487   6.978
11100TIP3    H233244   1.793   3.454   7.048
11101TIP3   OH233245   1.986   3.531   6.817
11101TIP3    H133246   2.061   3.479   6.780
11101TIP3    H233247   2.020   3.622   6.804
11102TIP3   OH233248   0.614   3.260   7.166
11102TIP3    H133249   0.520   3.231   7.162
11102TIP3    H233250   0.660   3.174   7.161
11103TIP3   OH233251   0.434   3.128   6.827
11103TIP3    H133252   0.450   3.182   6.748
11103TIP3    H233253   0.390   3.191   6.887
11104TIP3   OH233254   1.065   3.295   7.050
11104TIP3    H133255   1.121   3.341   6.985
11104TIP3    H233256   1.101   3.327   7.134
11105TIP3   OH233257   1.606   3.441   7.030
11105TIP3    H133258   1.608   3.398   6.943
11105TIP3    H233259   1.596   3.363   7.089
11106TIP3   OH233260   1.639   3.367   6.595
11106TIP3    H133261   1.554   3.410   6.613
11106TIP3    H233262   1.626   3.280   6.639
11107TIP3   OH233263   0.528   3.288   6.585
11107TIP3    H133264   0.573   3.223   6.527
11107TIP3    H233265   0.604   3.340   6.618
11108TIP3   OH233266   1.033   3.470   6.675
11108TIP3    H133267   1.092   3.421   6.736
11108TIP3    H233268   1.054   3.562   6.702
11109TIP3   OH233269   0.898   4.885   6.177
11109TIP3    H133270   0.985   4.908   6.139
11109TIP3    H233271   0.875   4.811   6.116
11110TIP3   OH233272   1.606   5.005   6.269
11110TIP3    H133273   1.598   4.907   6.256
11110TIP3    H233274   1.563   5.038   6.188
11111TIP3   OH233275   1.953   3.661   7.961
11111TIP3    H133276   1.970   3.591   8.028
11111TIP3    H233277   2.015   3.634   7.891
11112TIP3   OH233278   1.835   5.151   7.458
11112TIP3    H133279   1.757   5.121   7.406
11112TIP3    H233280   1.817   5.247   7.462
11113TIP3   OH233281   3.108   4.527   6.218
11113TIP3    H133282   3.076   4.618   6.197
11113TIP3    H233283   3.032   4.476   6.186
11114TIP3   OH233284   3.109   4.527   6.607
11114TIP3    H133285   3.143   4.505   6.696
11114TIP3    H233286   3.065   4.444   6.582
11115TIP3   OH233287   2.403   4.419   6.970
11115TIP3    H133288   2.434   4.350   7.031
11115TIP3    H233289   2.483   4.471   6.958
11116TIP3   OH233290   3.353   4.831   6.288
11116TIP3    H133291   3.335   4.765   6.357
11116TIP3    H233292   3.383   4.907   6.340
11117TIP3   OH233293   2.381   4.834   6.701
11117TIP3    H133294   2.372   4.736   6.698
11117TIP3    H233295   2.476   4.843   6.683
11118TIP3   OH233296   2.084   4.031   6.471
11118TIP3    H133297   2.036   4.114   6.492
11118TIP3    H233298   2.013   3.981   6.428
11119TIP3   OH233299   2.139   4.321   6.656
11119TIP3    H133300   2.191   4.243   6.687
11119TIP3    H233301   2.200   4.361   6.593
11120TIP3   OH233302   3.004   5.292   6.304
11120TIP3    H133303   3.045   5.220   6.252
11120TIP3    H233304   2.988   5.250   6.389
11121TIP3   OH233305   2.902   4.753   6.653
11121TIP3    H133306   2.944   4.678   6.607
11121TIP3    H233307   2.984   4.801   6.679
11122TIP3   OH233308   3.318   4.249   6.681
11122TIP3    H133309   3.359   4.163   6.701
11122TIP3    H233310   3.284   4.233   6.591
11123TIP3   OH233311   2.661   3.912   6.645
11123TIP3    H133312   2.639   3.985   6.583
11123TIP3    H233313   2.611   3.839   6.603
11124TIP3   OH233314   3.353   4.006   6.268
11124TIP3    H133315   3.425   3.991   6.332
11124TIP3    H233316   3.404   4.040   6.192
11125TIP3   OH233317   2.289   4.114   6.756
11125TIP3    H133318   2.372   4.095   6.804
11125TIP3    H233319   2.303   4.059   6.676
11126TIP3   OH233320   2.727   4.311   6.554
11126TIP3    H133321   2.822   4.288   6.564
11126TIP3    H233322   2.689   4.228   6.519
11127TIP3   OH233323   3.989   4.257   6.840
11127TIP3    H133324   3.918   4.308   6.796
11127TIP3    H233325   4.022   4.322   6.906
11128TIP3   OH233326   2.651   3.898   7.084
11128TIP3    H133327   2.593   3.934   7.014
11128TIP3    H233328   2.596   3.916   7.163
11129TIP3   OH233329   2.993   4.746   6.089
11129TIP3    H133330   2.954   4.735   6.001
11129TIP3    H233331   2.950   4.829   6.118
11130TIP3   OH233332   2.757   4.673   6.873
11130TIP3    H133333   2.699   4.743   6.909
11130TIP3    H233334   2.801   4.719   6.799
11131TIP3   OH233335   3.553   4.009   6.452
11131TIP3    H133336   3.526   3.975   6.538
11131TIP3    H233337   3.606   4.087   6.477
11132TIP3   OH233338   2.526   4.010   6.864
11132TIP3    H133339   2.587   4.084   6.888
11132TIP3    H233340   2.575   3.971   6.789
11133TIP3   OH233341   2.589   4.872   6.975
11133TIP3    H133342   2.563   4.957   6.935
11133TIP3    H233343   2.509   4.855   7.030
11134TIP3   OH233344   1.972   4.548   6.207
11134TIP3    H133345   1.933   4.583   6.125
11134TIP3    H233346   2.001   4.633   6.250
11135TIP3   OH233347   3.418   5.075   6.448
11135TIP3    H133348   3.328   5.066   6.489
11135TIP3    H233349   3.409   5.162   6.404
11136TIP3   OH233350   3.707   3.968   6.780
11136TIP3    H133351   3.611   3.980   6.793
11136TIP3    H233352   3.724   4.041   6.719
11137TIP3   OH233353   3.004   3.611   6.801
11137TIP3    H133354   2.986   3.516   6.818
11137TIP3    H233355   2.927   3.651   6.847
11138TIP3   OH233356   3.117   5.117   6.121
11138TIP3    H133357   3.168   5.035   6.102
11138TIP3    H233358   3.180   5.183   6.082
11139TIP3   OH233359   3.262   4.902   6.037
11139TIP3    H133360   3.223   4.821   6.001
11139TIP3    H233361   3.302   4.868   6.121
11140TIP3   OH233362   3.643   4.983   6.794
11140TIP3    H133363   3.631   4.906   6.735
11140TIP3    H233364   3.625   5.058   6.734
11141TIP3   OH233365   2.936   4.377   6.058
11141TIP3    H133366   2.857   4.431   6.037
11141TIP3    H233367   2.982   4.375   5.972
11142TIP3   OH233368   2.895   4.169   5.760
11142TIP3    H133369   2.960   4.219   5.813
11142TIP3    H233370   2.956   4.107   5.713
11143TIP3   OH233371   3.841   4.625   6.645
11143TIP3    H133372   3.756   4.674   6.649
11143TIP3    H233373   3.870   4.648   6.554
11144TIP3   OH233374   3.285   4.461   6.021
11144TIP3    H133375   3.231   4.486   6.100
11144TIP3    H233376   3.370   4.437   6.066
11145TIP3   OH233377   3.517   4.496   6.944
11145TIP3    H133378   3.519   4.578   6.997
11145TIP3    H233379   3.432   4.506   6.897
11146TIP3   OH233380   2.516   4.456   6.442
11146TIP3    H133381   2.477   4.398   6.373
11146TIP3    H233382   2.593   4.403   6.472
11147TIP3   OH233383   2.643   4.866   6.589
11147TIP3    H133384   2.625   4.837   6.498
11147TIP3    H233385   2.732   4.830   6.606
11148TIP3   OH233386   2.650   4.430   6.797
11148TIP3    H133387   2.683   4.404   6.708
11148TIP3    H233388   2.694   4.516   6.813
11149TIP3   OH233389   3.179   5.067   6.574
11149TIP3    H133390   3.165   5.148   6.626
11149TIP3    H233391   3.161   4.996   6.638
11150TIP3   OH233392   2.793   4.985   7.121
11150TIP3    H133393   2.732   5.047   7.167
11150TIP3    H233394   2.729   4.933   7.069
11151TIP3   OH233395   3.119   4.322   5.852
11151TIP3    H133396   3.180   4.380   5.903
11151TIP3    H233397   3.141   4.348   5.760
11152TIP3   OH233398   2.548   4.536   7.231
11152TIP3    H133399   2.552   4.626   7.268
11152TIP3    H233400   2.452   4.518   7.240
11153TIP3   OH233401   2.873   4.993   6.124
11153TIP3    H133402   2.954   5.046   6.131
11153TIP3    H233403   2.810   5.056   6.086
11154TIP3   OH233404   2.586   5.150   7.206
11154TIP3    H133405   2.553   5.156   7.114
11154TIP3    H233406   2.504   5.129   7.256
11155TIP3   OH233407   3.640   3.553   5.903
11155TIP3    H133408   3.557   3.581   5.947
11155TIP3    H233409   3.662   3.634   5.852
11156TIP3   OH233410   2.386   4.301   6.240
11156TIP3    H133411   2.315   4.347   6.190
11156TIP3    H233412   2.345   4.215   6.257
11157TIP3   OH233413   3.438   4.925   5.447
11157TIP3    H133414   3.450   5.022   5.433
11157TIP3    H233415   3.529   4.892   5.434
11158TIP3   OH233416   2.164   4.686   7.154
11158TIP3    H133417   2.095   4.668   7.086
11158TIP3    H233418   2.201   4.598   7.172
11159TIP3   OH233419   2.023   4.870   6.796
11159TIP3    H133420   2.112   4.874   6.759
11159TIP3    H233421   2.009   4.960   6.830
11160TIP3   OH233422   3.881   5.332   6.845
11160TIP3    H133423   3.881   5.236   6.862
11160TIP3    H233424   3.798   5.358   6.890
11161TIP3   OH233425   2.989   5.114   6.978
11161TIP3    H133426   2.984   5.206   7.010
11161TIP3    H233427   2.917   5.072   7.032
11162TIP3   OH233428   2.754   5.243   5.930
11162TIP3    H133429   2.704   5.228   5.848
11162TIP3    H233430   2.719   5.329   5.961
11163TIP3   OH233431   2.196   5.084   6.302
11163TIP3    H133432   2.240   5.077   6.390
11163TIP3    H233433   2.103   5.083   6.329
11164TIP3   OH233434   2.951   5.143   5.566
11164TIP3    H133435   3.011   5.072   5.532
11164TIP3    H233436   2.986   5.156   5.656
11165TIP3   OH233437   3.004   5.195   5.834
11165TIP3    H133438   2.915   5.205   5.877
11165TIP3    H233439   3.055   5.158   5.907
11166TIP3   OH233440   3.779   4.446   7.092
11166TIP3    H133441   3.686   4.463   7.070
11166TIP3    H233442   3.778   4.353   7.119
11167TIP3   OH233443   2.369   4.870   7.139
11167TIP3    H133444   2.417   4.852   7.222
11167TIP3    H233445   2.294   4.806   7.145
11168TIP3   OH233446   2.767   3.691   6.930
11168TIP3    H133447   2.679   3.660   6.899
11168TIP3    H233448   2.740   3.771   6.978
11169TIP3   OH233449   3.303   3.803   7.123
11169TIP3    H133450   3.372   3.777   7.188
11169TIP3    H233451   3.220   3.785   7.171
11170TIP3   OH233452   3.543   4.237   7.037
11170TIP3    H133453   3.491   4.234   7.121
11170TIP3    H233454   3.519   4.325   7.001
11171TIP3   OH233455   3.178   4.391   5.596
11171TIP3    H133456   3.204   4.317   5.539
11171TIP3    H233457   3.256   4.448   5.582
11172TIP3   OH233458   2.908   3.742   5.897
11172TIP3    H133459   2.874   3.736   5.989
11172TIP3    H233460   2.873   3.658   5.862
11173TIP3   OH233461   2.701   4.208   6.945
11173TIP3    H133462   2.649   4.227   7.026
11173TIP3    H233463   2.684   4.289   6.893
11174TIP3   OH233464   2.584   4.093   6.459
11174TIP3    H133465   2.491   4.068   6.478
11174TIP3    H233466   2.594   4.052   6.370
11175TIP3   OH233467   3.074   4.177   6.191
11175TIP3    H133468   3.023   4.248   6.147
11175TIP3    H233469   3.129   4.143   6.117
11176TIP3   OH233470   3.250   4.453   7.268
11176TIP3    H133471   3.231   4.381   7.333
11176TIP3    H233472   3.343   4.473   7.291
11177TIP3   OH233473   3.229   4.204   6.425
11177TIP3    H133474   3.166   4.233   6.356
11177TIP3    H233475   3.265   4.125   6.378
11178TIP3   OH233476   2.521   4.235   7.152
11178TIP3    H133477   2.546   4.301   7.219
11178TIP3    H233478   2.507   4.155   7.206
11179TIP3   OH233479   2.567   3.713   5.863
11179TIP3    H133480   2.558   3.712   5.961
11179TIP3    H233481   2.490   3.768   5.839
11180TIP3   OH233482   2.112   3.754   6.736
11180TIP3    H133483   2.187   3.788   6.790
11180TIP3    H233484   2.154   3.726   6.654
11181TIP3   OH233485   2.074   3.736   6.252
11181TIP3    H133486   2.121   3.773   6.174
11181TIP3    H233487   2.014   3.810   6.272
11182TIP3   OH233488   3.236   4.448   6.844
11182TIP3    H133489   3.272   4.377   6.786
11182TIP3    H233490   3.207   4.394   6.921
11183TIP3   OH233491   2.918   3.909   6.519
11183TIP3    H133492   2.835   3.910   6.571
11183TIP3    H233493   2.985   3.912   6.590
11184TIP3   OH233494   2.345   3.973   6.526
11184TIP3    H133495   2.251   3.981   6.498
11184TIP3    H233496   2.367   3.881   6.504
11185TIP3   OH233497   2.608   3.965   6.219
11185TIP3    H133498   2.702   3.980   6.196
11185TIP3    H233499   2.561   3.987   6.135
11186TIP3   OH233500   3.405   3.986   6.722
11186TIP3    H133501   3.374   4.002   6.814
11186TIP3    H233502   3.333   3.927   6.690
11187TIP3   OH233503   2.461   3.999   5.993
11187TIP3    H133504   2.389   3.957   5.943
11187TIP3    H233505   2.514   4.038   5.919
11188TIP3   OH233506   3.577   5.680   6.944
11188TIP3    H133507   3.574   5.705   6.850
11188TIP3    H233508   3.658   5.728   6.974
11189TIP3   OH233509   2.530   4.789   7.362
11189TIP3    H133510   2.611   4.818   7.409
11189TIP3    H233511   2.466   4.789   7.435
11190TIP3   OH233512   2.992   4.244   6.617
11190TIP3    H133513   3.068   4.207   6.568
11190TIP3    H233514   2.999   4.200   6.704
11191TIP3   OH233515   2.511   3.729   6.503
11191TIP3    H133516   2.474   3.653   6.552
11191TIP3    H233517   2.552   3.685   6.427
11192TIP3   OH233518   2.970   4.144   6.908
11192TIP3    H133519   2.879   4.179   6.921
11192TIP3    H233520   3.026   4.207   6.957
11193TIP3   OH233521   2.707   4.529   6.002
11193TIP3    H133522   2.633   4.466   5.989
11193TIP3    H233523   2.686   4.564   6.092
11194TIP3   OH233524   3.605   4.766   6.627
11194TIP3    H133525   3.629   4.818   6.547
11194TIP3    H233526   3.520   4.725   6.600
11195TIP3   OH233527   3.166   3.834   5.879
11195TIP3    H133528   3.070   3.816   5.878
11195TIP3    H233529   3.171   3.931   5.893
11196TIP3   OH233530   3.100   4.847   7.002
11196TIP3    H133531   3.143   4.837   7.088
11196TIP3    H233532   3.066   4.938   7.005
11197TIP3   OH233533   3.230   4.093   5.973
11197TIP3    H133534   3.327   4.098   5.985
11197TIP3    H233535   3.211   4.170   5.917
11198TIP3   OH233536   2.400   4.554   6.675
11198TIP3    H133537   2.437   4.527   6.589
11198TIP3    H233538   2.447   4.495   6.736
11199TIP3   OH233539   2.849   4.678   5.821
11199TIP3    H133540   2.801   4.765   5.825
11199TIP3    H233541   2.796   4.625   5.884
11200TIP3   OH233542   2.282   4.469   7.291
11200TIP3    H133543   2.292   4.454   7.387
11200TIP3    H233544   2.210   4.408   7.269
11201TIP3   OH233545   3.010   4.589   7.313
11201TIP3    H133546   2.949   4.532   7.264
11201TIP3    H233547   3.096   4.555   7.282
11202TIP3   OH233548   3.263   5.107   6.901
11202TIP3    H133549   3.167   5.109   6.912
11202TIP3    H233550   3.292   5.161   6.977
11203TIP3   OH233551   3.664   4.175   5.798
11203TIP3    H133552   3.602   4.125   5.742
11203TIP3    H233553   3.659   4.263   5.755
11204TIP3   OH233554   3.893   5.039   6.885
11204TIP3    H133555   3.796   5.034   6.876
11204TIP3    H233556   3.920   5.010   6.795
11205TIP3   OH233557   3.381   5.000   5.712
11205TIP3    H133558   3.344   4.932   5.770
11205TIP3    H233559   3.386   4.954   5.626
11206TIP3   OH233560   3.371   4.631   6.542
11206TIP3    H133561   3.278   4.606   6.557
11206TIP3    H233562   3.404   4.549   6.500
11207TIP3   OH233563   2.500   4.860   6.304
11207TIP3    H133564   2.498   4.940   6.247
11207TIP3    H233565   2.407   4.853   6.328
11208TIP3   OH233566   2.064   4.162   6.008
11208TIP3    H133567   2.109   4.246   6.031
11208TIP3    H233568   1.988   4.165   6.070
11209TIP3   OH233569   2.628   4.622   6.243
11209TIP3    H133570   2.594   4.712   6.262
11209TIP3    H233571   2.594   4.572   6.320
11210TIP3   OH233572   2.772   5.200   6.773
11210TIP3    H133573   2.813   5.273   6.721
11210TIP3    H233574   2.850   5.164   6.819
11211TIP3   OH233575   2.424   5.091   6.151
11211TIP3    H133576   2.337   5.095   6.197
11211TIP3    H233577   2.450   5.186   6.153
11212TIP3   OH233578   3.153   4.835   6.734
11212TIP3    H133579   3.142   4.833   6.831
11212TIP3    H233580   3.235   4.786   6.723
11213TIP3   OH233581   3.122   4.738   5.625
11213TIP3    H133582   3.187   4.708   5.691
11213TIP3    H233583   3.040   4.705   5.664
11214TIP3   OH233584   3.404   5.365   6.780
11214TIP3    H133585   3.323   5.312   6.773
11214TIP3    H233586   3.389   5.431   6.708
11215TIP3   OH233587   3.471   5.201   5.431
11215TIP3    H133588   3.506   5.275   5.379
11215TIP3    H233589   3.391   5.244   5.468
11216TIP3   OH233590   2.481   3.979   7.292
11216TIP3    H133591   2.383   3.987   7.300
11216TIP3    H233592   2.501   3.915   7.362
11217TIP3   OH233593   3.297   4.659   5.826
11217TIP3    H133594   3.287   4.594   5.899
11217TIP3    H233595   3.394   4.658   5.815
11218TIP3   OH233596   2.227   5.075   6.948
11218TIP3    H133597   2.256   4.983   6.939
11218TIP3    H233598   2.272   5.097   7.030
11219TIP3   OH233599   2.496   4.707   5.613
11219TIP3    H133600   2.512   4.613   5.592
11219TIP3    H233601   2.476   4.701   5.709
11220TIP3   OH233602   2.441   4.713   5.884
11220TIP3    H133603   2.512   4.688   5.945
11220TIP3    H233604   2.442   4.812   5.893
11221TIP3   OH233605   2.174   4.404   6.091
11221TIP3    H133606   2.106   4.448   6.147
11221TIP3    H233607   2.186   4.473   6.023
11222TIP3   OH233608   3.338   4.037   6.980
11222TIP3    H133609   3.408   4.083   7.029
11222TIP3    H233610   3.321   3.959   7.037
11223TIP3   OH233611   3.210   3.789   6.154
11223TIP3    H133612   3.195   3.807   6.059
11223TIP3    H233613   3.249   3.873   6.185
11224TIP3   OH233614   2.710   4.910   5.832
11224TIP3    H133615   2.622   4.932   5.869
11224TIP3    H233616   2.727   4.991   5.782
11225TIP3   OH233617   2.893   3.975   6.250
11225TIP3    H133618   2.957   4.048   6.232
11225TIP3    H233619   2.901   3.968   6.348
11226TIP3   OH233620   3.167   4.290   7.056
11226TIP3    H133621   3.191   4.347   7.132
11226TIP3    H233622   3.221   4.211   7.073
11227TIP3   OH233623   3.036   3.695   6.351
11227TIP3    H133624   3.020   3.776   6.403
11227TIP3    H233625   3.100   3.728   6.284
11228TIP3   OH233626   2.455   4.984   5.902
11228TIP3    H133627   2.425   5.056   5.843
11228TIP3    H233628   2.441   5.025   5.991
11229TIP3   OH233629   2.553   3.701   6.140
11229TIP3    H133630   2.550   3.791   6.178
11229TIP3    H233631   2.649   3.684   6.148
11230TIP3   OH233632   3.801   4.152   7.040
11230TIP3    H133633   3.705   4.171   7.036
11230TIP3    H233634   3.833   4.188   6.955
11231TIP3   OH233635   3.462   4.380   6.428
11231TIP3    H133636   3.383   4.325   6.439
11231TIP3    H233637   3.529   4.331   6.479
11232TIP3   OH233638   2.171   4.608   5.894
11232TIP3    H133639   2.238   4.679   5.906
11232TIP3    H233640   2.218   4.553   5.828
11233TIP3   OH233641   2.111   3.891   6.028
11233TIP3    H133642   2.114   3.989   6.027
11233TIP3    H233643   2.027   3.873   5.985
11234TIP3   OH233644   3.427   5.345   6.372
11234TIP3    H133645   3.384   5.392   6.297
11234TIP3    H233646   3.521   5.364   6.351
11235TIP3   OH233647   2.504   3.610   6.898
11235TIP3    H133648   2.472   3.576   6.811
11235TIP3    H233649   2.492   3.532   6.956
11236TIP3   OH233650   2.027   4.801   6.284
11236TIP3    H133651   1.982   4.855   6.351
11236TIP3    H233652   2.024   4.860   6.206
11237TIP3   OH233653   2.186   5.359   7.372
11237TIP3    H133654   2.278   5.371   7.402
11237TIP3    H233655   2.179   5.262   7.365
11238TIP3   OH233656   2.674   5.326   7.402
11238TIP3    H133657   2.770   5.315   7.406
11238TIP3    H233658   2.651   5.267   7.328
11239TIP3   OH233659   2.657   4.909   5.520
11239TIP3    H133660   2.601   4.838   5.561
11239TIP3    H233661   2.736   4.858   5.497
11240TIP3   OH233662   3.316   5.244   7.133
11240TIP3    H133663   3.310   5.173   7.202
11240TIP3    H233664   3.394   5.295   7.162
11241TIP3   OH233665   3.099   4.943   5.443
11241TIP3    H133666   3.130   4.873   5.505
11241TIP3    H233667   3.168   4.941   5.375
11242TIP3   OH233668   2.327   4.780   7.554
11242TIP3    H133669   2.344   4.684   7.558
11242TIP3    H233670   2.241   4.783   7.507
11243TIP3   OH233671   2.310   4.423   5.749
11243TIP3    H133672   2.366   4.397   5.825
11243TIP3    H233673   2.379   4.430   5.680
11244TIP3   OH233674   2.933   4.867   7.329
11244TIP3    H133675   2.895   4.889   7.242
11244TIP3    H233676   2.967   4.776   7.315
11245TIP3   OH233677   2.815   4.624   5.553
11245TIP3    H133678   2.821   4.638   5.650
11245TIP3    H233679   2.818   4.526   5.548
11246TIP3   OH233680   3.427   4.880   6.934
11246TIP3    H133681   3.505   4.920   6.892
11246TIP3    H233682   3.360   4.950   6.919
11247TIP3   OH233683   2.447   4.521   7.541
11247TIP3    H133684   2.524   4.474   7.507
11247TIP3    H233685   2.478   4.549   7.630
11248TIP3   OH233686   2.508   4.336   5.964
11248TIP3    H133687   2.482   4.300   6.051
11248TIP3    H233688   2.548   4.259   5.920
11249TIP3   OH233689   2.785   4.396   7.200
11249TIP3    H133690   2.706   4.455   7.201
11249TIP3    H233691   2.835   4.432   7.121
11250TIP3   OH233692   2.618   4.129   5.809
11250TIP3    H133693   2.594   4.137   5.714
11250TIP3    H233694   2.716   4.131   5.802
11251TIP3   OH233695   3.300   4.798   7.329
11251TIP3    H133696   3.384   4.775   7.288
11251TIP3    H233697   3.296   4.735   7.404
11252TIP3   OH233698   3.433   4.467   5.463
11252TIP3    H133699   3.457   4.378   5.424
11252TIP3    H233700   3.504   4.525   5.423
11253TIP3   OH233701   2.911   4.188   7.319
11253TIP3    H133702   2.909   4.110   7.260
11253TIP3    H233703   2.866   4.256   7.264
11254TIP3   OH233704   2.910   3.973   7.132
11254TIP3    H133705   2.938   4.016   7.048
11254TIP3    H233706   2.817   3.951   7.113
11255TIP3   OH233707   2.932   4.507   7.005
11255TIP3    H133708   3.018   4.525   6.965
11255TIP3    H233709   2.875   4.573   6.959
11256TIP3   OH233710   3.522   4.477   7.381
11256TIP3    H133711   3.572   4.396   7.399
11256TIP3    H233712   3.594   4.540   7.363
11257TIP3   OH233713   3.557   4.724   7.114
11257TIP3    H133714   3.500   4.782   7.058
11257TIP3    H233715   3.645   4.746   7.076
11258TIP3   OH233716   2.788   4.294   7.551
11258TIP3    H133717   2.716   4.228   7.559
11258TIP3    H233718   2.822   4.274   7.462
11259TIP3   OH233719   3.041   3.736   7.203
11259TIP3    H133720   2.992   3.816   7.176
11259TIP3    H233721   2.973   3.666   7.189
11260TIP3   OH233722   3.171   4.234   7.413
11260TIP3    H133723   3.156   4.225   7.508
11260TIP3    H233724   3.081   4.213   7.380
11261TIP3   OH233725   3.402   4.181   7.262
11261TIP3    H133726   3.329   4.189   7.326
11261TIP3    H233727   3.478   4.158   7.320
11262TIP3   OH233728   3.625   4.130   7.419
11262TIP3    H133729   3.645   4.036   7.435
11262TIP3    H233730   3.625   4.168   7.510
11263TIP3   OH233731   2.617   4.078   7.587
11263TIP3    H133732   2.623   3.983   7.564
11263TIP3    H233733   2.636   4.077   7.682
11264TIP3   OH233734   3.125   3.743   7.463
11264TIP3    H133735   3.194   3.673   7.456
11264TIP3    H233736   3.091   3.740   7.371
11265TIP3   OH233737   3.197   3.959   7.615
11265TIP3    H133738   3.178   3.891   7.547
11265TIP3    H233739   3.122   4.022   7.601
11266TIP3   OH233740   2.425   5.186   5.714
11266TIP3    H133741   2.520   5.177   5.696
11266TIP3    H233742   2.399   5.241   5.638
11267TIP3   OH233743   1.901   4.573   5.923
11267TIP3    H133744   1.997   4.593   5.915
11267TIP3    H233745   1.897   4.483   5.884
11268TIP3   OH233746   1.799   5.178   6.357
11268TIP3    H133747   1.740   5.111   6.316
11268TIP3    H233748   1.859   5.121   6.409
11269TIP3   OH233749   1.966   5.024   6.515
11269TIP3    H133750   1.941   4.958   6.580
11269TIP3    H233751   2.017   5.087   6.570
11270TIP3   OH233752   3.684   5.429   6.336
11270TIP3    H133753   3.709   5.462   6.424
11270TIP3    H233754   3.748   5.474   6.278
11271TIP3   OH233755   3.710   5.452   6.618
11271TIP3    H133756   3.664   5.365   6.613
11271TIP3    H233757   3.783   5.427   6.676
11272TIP3   OH233758   3.749   5.137   7.182
11272TIP3    H133759   3.682   5.144   7.254
11272TIP3    H233760   3.796   5.222   7.191
11273TIP3   OH233761   3.577   4.639   5.804
11273TIP3    H133762   3.640   4.709   5.776
11273TIP3    H233763   3.621   4.605   5.885
11274TIP3   OH233764   3.702   4.508   6.011
11274TIP3    H133765   3.635   4.469   6.071
11274TIP3    H233766   3.767   4.545   6.075
11275TIP3   OH233767   3.759   4.906   6.444
11275TIP3    H133768   3.810   4.837   6.396
11275TIP3    H233769   3.755   4.978   6.378
11276TIP3   OH233770   3.583   5.203   6.636
11276TIP3    H133771   3.511   5.245   6.687
11276TIP3    H233772   3.533   5.158   6.564
11277TIP3   OH233773   3.628   4.411   5.660
11277TIP3    H133774   3.543   4.409   5.611
11277TIP3    H233775   3.613   4.492   5.713
11278TIP3   OH233776   3.512   4.369   6.156
11278TIP3    H133777   3.518   4.273   6.147
11278TIP3    H233778   3.499   4.380   6.253
11279TIP3   OH233779   2.138   4.436   6.908
11279TIP3    H133780   2.134   4.404   6.815
11279TIP3    H233781   2.235   4.439   6.921
11280TIP3   OH233782   3.802   4.791   7.010
11280TIP3    H133783   3.875   4.726   7.001
11280TIP3    H233784   3.831   4.863   6.951
11281TIP3   OH233785   3.991   4.595   7.014
11281TIP3    H133786   3.915   4.546   7.053
11281TIP3    H233787   4.063   4.532   7.034
11282TIP3   OH233788   3.511   4.086   6.049
11282TIP3    H133789   3.551   3.997   6.065
11282TIP3    H233790   3.570   4.118   5.978
11283TIP3   OH233791   3.677   4.236   6.556
11283TIP3    H133792   3.758   4.267   6.508
11283TIP3    H233793   3.689   4.289   6.638
11284TIP3   OH233794   3.742   4.397   6.772
11284TIP3    H133795   3.670   4.433   6.827
11284TIP3    H233796   3.778   4.479   6.732
11285TIP3   OH233797   2.349   4.125   7.582
11285TIP3    H133798   2.447   4.121   7.572
11285TIP3    H233799   2.330   4.037   7.619
11286TIP3   OH233800   4.190   3.989   7.336
11286TIP3    H133801   4.255   3.929   7.294
11286TIP3    H233802   4.161   4.044   7.259
11287TIP3   OH233803   3.616   3.837   6.092
11287TIP3    H133804   3.665   3.817   6.174
11287TIP3    H233805   3.556   3.759   6.087
11288TIP3   OH233806   2.320   3.820   6.909
11288TIP3    H133807   2.381   3.744   6.916
11288TIP3    H233808   2.382   3.894   6.899
11289TIP3   OH233809   2.119   4.091   6.982
11289TIP3    H133810   2.169   4.088   6.897
11289TIP3    H233811   2.143   4.179   7.015
11290TIP3   OH233812   4.061   4.129   7.142
11290TIP3    H133813   3.993   4.175   7.197
11290TIP3    H233814   4.005   4.095   7.070
11291TIP3   OH233815   3.726   3.758   5.744
11291TIP3    H133816   3.739   3.696   5.669
11291TIP3    H233817   3.778   3.836   5.718
11292TIP3   OH233818   2.106   3.595   6.481
11292TIP3    H133819   2.014   3.589   6.512
11292TIP3    H233820   2.098   3.654   6.404
11293TIP3   OH233821   3.264   5.301   5.989
11293TIP3    H133822   3.317   5.291   5.907
11293TIP3    H233823   3.315   5.368   6.037
11294TIP3   OH233824   2.329   3.682   7.297
11294TIP3    H133825   2.273   3.671   7.375
11294TIP3    H233826   2.263   3.718   7.233
11295TIP3   OH233827   2.363   5.105   7.366
11295TIP3    H133828   2.270   5.078   7.356
11295TIP3    H233829   2.378   5.093   7.460
11296TIP3   OH233830   2.543   5.147   6.921
11296TIP3    H133831   2.493   5.219   6.877
11296TIP3    H233832   2.630   5.161   6.876
11297TIP3   OH233833   2.983   5.380   7.057
11297TIP3    H133834   3.025   5.380   7.146
11297TIP3    H233835   3.048   5.433   7.007
11298TIP3   OH233836   3.163   5.536   6.922
11298TIP3    H133837   3.233   5.486   6.877
11298TIP3    H233838   3.216   5.593   6.982
11299TIP3   OH233839   3.958   3.895   6.981
11299TIP3    H133840   3.863   3.905   7.000
11299TIP3    H233841   3.978   3.808   7.020
11300TIP3   OH233842   2.182   5.440   6.954
11300TIP3    H133843   2.161   5.381   6.878
11300TIP3    H233844   2.206   5.376   7.024
11301TIP3   OH233845   2.442   5.376   6.800
11301TIP3    H133846   2.378   5.434   6.843
11301TIP3    H233847   2.408   5.383   6.707
11302TIP3   OH233848   2.880   5.397   6.604
11302TIP3    H133849   2.807   5.412   6.541
11302TIP3    H233850   2.891   5.486   6.643
11303TIP3   OH233851   3.150   5.337   6.656
11303TIP3    H133852   3.056   5.355   6.636
11303TIP3    H233853   3.194   5.409   6.609
11304TIP3   OH233854   3.355   5.529   6.566
11304TIP3    H133855   3.341   5.614   6.518
11304TIP3    H233856   3.382   5.469   6.492
11305TIP3   OH233857   2.112   5.178   6.709
11305TIP3    H133858   2.175   5.142   6.775
11305TIP3    H233859   2.172   5.222   6.646
11306TIP3   OH233860   2.326   5.056   6.540
11306TIP3    H133861   2.345   4.980   6.599
11306TIP3    H233862   2.411   5.104   6.541
11307TIP3   OH233863   2.597   5.151   6.553
11307TIP3    H133864   2.622   5.057   6.543
11307TIP3    H233865   2.646   5.173   6.634
11308TIP3   OH233866   3.173   3.810   6.648
11308TIP3    H133867   3.125   3.740   6.695
11308TIP3    H233868   3.239   3.760   6.598
11309TIP3   OH233869   3.696   3.702   6.550
11309TIP3    H133870   3.726   3.749   6.468
11309TIP3    H233871   3.599   3.714   6.543
11310TIP3   OH233872   3.784   3.783   6.306
11310TIP3    H133873   3.858   3.734   6.263
11310TIP3    H233874   3.815   3.876   6.291
11311TIP3   OH233875   2.414   3.516   6.652
11311TIP3    H133876   2.321   3.483   6.656
11311TIP3    H233877   2.461   3.430   6.647
11312TIP3   OH233878   2.204   3.390   6.305
11312TIP3    H133879   2.233   3.447   6.231
11312TIP3    H233880   2.177   3.457   6.371
11313TIP3   OH233881   2.863   3.547   6.534
11313TIP3    H133882   2.919   3.595   6.470
11313TIP3    H233883   2.887   3.590   6.617
11314TIP3   OH233884   3.414   3.697   6.517
11314TIP3    H133885   3.406   3.660   6.429
11314TIP3    H233886   3.399   3.618   6.574
11315TIP3   OH233887   3.436   3.624   6.084
11315TIP3    H133888   3.349   3.667   6.096
11315TIP3    H233889   3.419   3.537   6.125
11316TIP3   OH233890   1.924   4.964   6.078
11316TIP3    H133891   1.837   4.933   6.048
11316TIP3    H233892   1.915   5.059   6.064
11317TIP3   OH233893   2.323   3.547   6.062
11317TIP3    H133894   2.370   3.483   6.005
11317TIP3    H233895   2.397   3.600   6.098
11318TIP3   OH233896   2.829   3.725   6.162
11318TIP3    H133897   2.889   3.677   6.222
11318TIP3    H233898   2.851   3.817   6.187
11319TIP3   OH233899   2.692   5.141   5.663
11319TIP3    H133900   2.780   5.165   5.627
11319TIP3    H233901   2.669   5.067   5.603
11320TIP3   OH233902   3.412   5.267   5.757
11320TIP3    H133903   3.406   5.169   5.745
11320TIP3    H233904   3.365   5.298   5.677
11321TIP3   OH233905   2.625   3.803   7.560
11321TIP3    H133906   2.591   3.724   7.604
11321TIP3    H233907   2.720   3.798   7.581
11322TIP3   OH233908   2.900   3.798   7.668
11322TIP3    H133909   2.968   3.783   7.599
11322TIP3    H233910   2.897   3.709   7.710
11323TIP3   OH233911   1.991   4.980   5.717
11323TIP3    H133912   1.993   4.999   5.812
11323TIP3    H233913   2.080   4.939   5.703
11324TIP3   OH233914   3.700   3.860   7.450
11324TIP3    H133915   3.715   3.830   7.542
11324TIP3    H233916   3.791   3.854   7.413
11325TIP3   OH233917   3.633   5.410   6.942
11325TIP3    H133918   3.554   5.380   6.892
11325TIP3    H233919   3.613   5.505   6.949
11326TIP3   OH233920   4.903   4.786   5.705
11326TIP3    H133921   4.871   4.875   5.682
11326TIP3    H233922   4.830   4.732   5.669
11327TIP3   OH233923   4.904   4.786   6.096
11327TIP3    H133924   4.939   4.760   6.183
11327TIP3    H233925   4.862   4.704   6.066
11328TIP3   OH233926   4.198   4.676   6.456
11328TIP3    H133927   4.229   4.607   6.518
11328TIP3    H233928   4.276   4.733   6.452
11329TIP3   OH233929   5.149   5.090   5.773
11329TIP3    H133930   5.130   5.021   5.838
11329TIP3    H233931   5.179   5.164   5.830
11330TIP3   OH233932   4.175   5.088   6.176
11330TIP3    H133933   4.166   4.990   6.177
11330TIP3    H233934   4.272   5.097   6.169
11331TIP3   OH233935   3.876   4.286   5.955
11331TIP3    H133936   3.831   4.369   5.976
11331TIP3    H233937   3.804   4.235   5.914
11332TIP3   OH233938   3.936   4.577   6.142
11332TIP3    H133939   3.987   4.499   6.174
11332TIP3    H233940   3.998   4.617   6.080
11333TIP3   OH233941   4.801   5.549   5.791
11333TIP3    H133942   4.841   5.477   5.738
11333TIP3    H233943   4.786   5.505   5.876
11334TIP3   OH233944   4.699   5.010   6.139
11334TIP3    H133945   4.740   4.934   6.095
11334TIP3    H233946   4.781   5.058   6.165
11335TIP3   OH233947   5.718   4.327   6.136
11335TIP3    H133948   5.747   4.412   6.177
11335TIP3    H233949   5.743   4.341   6.043
11336TIP3   OH233950   5.111   4.507   6.167
11336TIP3    H133951   5.155   4.423   6.188
11336TIP3    H233952   5.080   4.490   6.076
11337TIP3   OH233953   4.455   4.169   6.134
11337TIP3    H133954   4.436   4.242   6.071
11337TIP3    H233955   4.407   4.096   6.090
11338TIP3   OH233956   5.149   4.263   5.754
11338TIP3    H133957   5.221   4.249   5.820
11338TIP3    H233958   5.201   4.297   5.679
11339TIP3   OH233959   4.085   4.369   6.243
11339TIP3    H133960   4.168   4.351   6.291
11339TIP3    H233961   4.099   4.315   6.163
11340TIP3   OH233962   4.524   4.568   6.039
11340TIP3    H133963   4.619   4.544   6.049
11340TIP3    H233964   4.486   4.484   6.005
11341TIP3   OH233965   5.790   4.538   6.307
11341TIP3    H133966   5.705   4.583   6.287
11341TIP3    H233967   5.809   4.572   6.395
11342TIP3   OH233968   4.440   4.148   6.574
11342TIP3    H133969   4.387   4.189   6.503
11342TIP3    H233970   4.387   4.173   6.653
11343TIP3   OH233971   4.791   5.004   5.573
11343TIP3    H133972   4.751   4.989   5.486
11343TIP3    H233973   4.744   5.086   5.602
11344TIP3   OH233974   4.553   4.930   6.359
11344TIP3    H133975   4.494   4.999   6.395
11344TIP3    H233976   4.597   4.977   6.285
11345TIP3   OH233977   5.351   4.268   5.936
11345TIP3    H133978   5.333   4.229   6.022
11345TIP3    H233979   5.404   4.347   5.960
11346TIP3   OH233980   4.321   4.266   6.354
11346TIP3    H133981   4.381   4.341   6.376
11346TIP3    H233982   4.369   4.228   6.277
11347TIP3   OH233983   4.385   5.127   6.461
11347TIP3    H133984   4.359   5.215   6.425
11347TIP3    H233985   4.305   5.109   6.516
11348TIP3   OH233986   3.774   4.816   5.697
11348TIP3    H133987   3.732   4.846   5.615
11348TIP3    H233988   3.806   4.902   5.734
11349TIP3   OH233989   5.215   5.332   5.937
11349TIP3    H133990   5.125   5.322   5.977
11349TIP3    H233991   5.205   5.419   5.892
11350TIP3   OH233992   5.510   4.225   6.302
11350TIP3    H133993   5.423   4.254   6.269
11350TIP3    H233994   5.571   4.259   6.232
11351TIP3   OH233995   4.799   3.867   6.284
11351TIP3    H133996   4.784   3.773   6.303
11351TIP3    H233997   4.723   3.907   6.332
11352TIP3   OH233998   4.912   5.375   5.606
11352TIP3    H133999   4.963   5.291   5.590
11352TIP3    H234000   4.976   5.439   5.567
11353TIP3   OH234001   5.060   5.160   5.521
11353TIP3    H134002   5.018   5.080   5.487
11353TIP3    H234003   5.099   5.128   5.605
11354TIP3   OH234004   5.441   5.239   6.282
11354TIP3    H134005   5.428   5.162   6.222
11354TIP3    H234006   5.422   5.314   6.221
11355TIP3   OH234007   4.734   4.637   5.543
11355TIP3    H134008   4.654   4.688   5.521
11355TIP3    H234009   4.776   4.628   5.456
11356TIP3   OH234010   4.691   4.421   5.264
11356TIP3    H134011   4.764   4.473   5.301
11356TIP3    H234012   4.742   4.358   5.208
11357TIP3   OH234013   5.636   4.881   6.130
11357TIP3    H134014   5.551   4.932   6.132
11357TIP3    H234015   5.667   4.904   6.039
11358TIP3   OH234016   5.082   4.721   5.508
11358TIP3    H134017   5.027   4.744   5.587
11358TIP3    H234018   5.166   4.695   5.551
11359TIP3   OH234019   5.314   4.754   6.430
11359TIP3    H134020   5.311   4.837   6.480
11359TIP3    H234021   5.228   4.758   6.383
11360TIP3   OH234022   4.312   4.713   5.930
11360TIP3    H134023   4.271   4.655   5.862
11360TIP3    H234024   4.389   4.660   5.959
11361TIP3   OH234025   4.442   5.127   6.074
11361TIP3    H134026   4.423   5.095   5.985
11361TIP3    H234027   4.531   5.090   6.091
11362TIP3   OH234028   4.448   4.686   6.282
11362TIP3    H134029   4.481   4.661   6.193
11362TIP3    H234030   4.492   4.772   6.299
11363TIP3   OH234031   4.975   5.325   6.061
11363TIP3    H134032   4.961   5.404   6.115
11363TIP3    H234033   4.958   5.252   6.123
11364TIP3   OH234034   4.588   5.242   6.608
11364TIP3    H134035   4.526   5.303   6.654
11364TIP3    H234036   4.524   5.189   6.556
11365TIP3   OH234037   4.918   4.576   5.339
11365TIP3    H134038   4.978   4.637   5.389
11365TIP3    H234039   4.945   4.596   5.246
11366TIP3   OH234040   4.344   4.793   6.715
11366TIP3    H134041   4.349   4.884   6.753
11366TIP3    H234042   4.249   4.775   6.729
11367TIP3   OH234043   4.667   5.250   5.614
11367TIP3    H134044   4.749   5.304   5.619
11367TIP3    H234045   4.607   5.310   5.568
11368TIP3   OH234046   4.381   5.407   6.695
11368TIP3    H134047   4.345   5.411   6.604
11368TIP3    H234048   4.300   5.386   6.748
11369TIP3   OH234049   5.436   3.813   5.388
11369TIP3    H134050   5.355   3.837   5.436
11369TIP3    H234051   5.452   3.895   5.336
11370TIP3   OH234052   4.179   4.558   5.733
11370TIP3    H134053   4.111   4.602   5.679
11370TIP3    H234054   4.143   4.469   5.742
11371TIP3   OH234055   5.237   5.172   4.938
11371TIP3    H134056   5.238   5.258   4.897
11371TIP3    H234057   5.330   5.143   4.927
11372TIP3   OH234058   3.960   4.942   6.641
11372TIP3    H134059   3.891   4.923   6.574
11372TIP3    H234060   3.998   4.854   6.660
11373TIP3   OH234061   3.815   5.134   6.272
11373TIP3    H134062   3.911   5.132   6.264
11373TIP3    H234063   3.801   5.213   6.327
11374TIP3   OH234064   5.678   5.591   6.331
11374TIP3    H134065   5.678   5.494   6.344
11374TIP3    H234066   5.594   5.614   6.377
11375TIP3   OH234067   4.784   5.370   6.465
11375TIP3    H134068   4.779   5.463   6.496
11375TIP3    H234069   4.712   5.329   6.518
11376TIP3   OH234070   4.551   5.499   5.416
11376TIP3    H134071   4.501   5.480   5.334
11376TIP3    H234072   4.514   5.585   5.443
11377TIP3   OH234073   3.984   5.348   5.802
11377TIP3    H134074   4.031   5.339   5.888
11377TIP3    H234075   3.932   5.266   5.801
11378TIP3   OH234076   4.749   5.405   5.053
11378TIP3    H134077   4.806   5.332   5.019
11378TIP3    H234078   4.781   5.412   5.146
11379TIP3   OH234079   4.801   5.452   5.322
11379TIP3    H134080   4.711   5.462   5.362
11379TIP3    H234081   4.848   5.410   5.395
11380TIP3   OH234082   5.566   4.715   6.606
11380TIP3    H134083   5.483   4.725   6.557
11380TIP3    H234084   5.583   4.619   6.597
11381TIP3   OH234085   4.165   5.125   6.624
11381TIP3    H134086   4.213   5.109   6.707
11381TIP3    H234087   4.089   5.062   6.633
11382TIP3   OH234088   4.565   3.944   6.418
11382TIP3    H134089   4.477   3.913   6.386
11382TIP3    H234090   4.538   4.027   6.461
11383TIP3   OH234091   5.102   4.060   6.609
11383TIP3    H134092   5.172   4.034   6.673
11383TIP3    H234093   5.019   4.042   6.659
11384TIP3   OH234094   5.332   4.491   6.527
11384TIP3    H134095   5.282   4.489   6.611
11384TIP3    H234096   5.310   4.579   6.491
11385TIP3   OH234097   5.002   4.621   5.088
11385TIP3    H134098   4.963   4.600   5.001
11385TIP3    H234099   5.087   4.661   5.061
11386TIP3   OH234100   4.708   3.991   5.387
11386TIP3    H134101   4.671   3.988   5.478
11386TIP3    H234102   4.666   3.911   5.350
11387TIP3   OH234103   4.495   4.464   6.432
11387TIP3    H134104   4.446   4.488   6.514
11387TIP3    H234105   4.480   4.545   6.378
11388TIP3   OH234106   4.380   4.349   5.947
11388TIP3    H134107   4.287   4.324   5.965
11388TIP3    H234108   4.391   4.309   5.857
11389TIP3   OH234109   4.869   4.434   5.677
11389TIP3    H134110   4.819   4.506   5.632
11389TIP3    H234111   4.924   4.400   5.604
11390TIP3   OH234112   5.044   4.708   6.757
11390TIP3    H134113   5.021   4.637   6.820
11390TIP3    H234114   5.138   4.723   6.781
11391TIP3   OH234115   5.024   4.460   5.911
11391TIP3    H134116   4.962   4.487   5.841
11391TIP3    H234117   5.061   4.381   5.866
11392TIP3   OH234118   4.315   4.495   6.640
11392TIP3    H134119   4.344   4.563   6.703
11392TIP3    H234120   4.300   4.418   6.697
11393TIP3   OH234121   4.367   3.970   5.350
11393TIP3    H134122   4.354   3.971   5.447
11393TIP3    H234123   4.289   4.022   5.321
11394TIP3   OH234124   3.904   4.011   6.231
11394TIP3    H134125   3.983   4.043   6.279
11394TIP3    H234126   3.940   3.986   6.144
11395TIP3   OH234127   3.882   3.998   5.745
11395TIP3    H134128   3.923   4.035   5.663
11395TIP3    H234129   3.819   4.070   5.764
11396TIP3   OH234130   5.036   4.706   6.332
11396TIP3    H134131   5.069   4.635   6.273
11396TIP3    H234132   5.005   4.652   6.408
11397TIP3   OH234133   4.714   4.167   6.006
11397TIP3    H134134   4.633   4.168   6.061
11397TIP3    H234135   4.785   4.164   6.072
11398TIP3   OH234136   4.139   4.229   6.013
11398TIP3    H134137   4.046   4.236   5.983
11398TIP3    H234138   4.163   4.137   5.989
11399TIP3   OH234139   4.404   4.223   5.705
11399TIP3    H134140   4.498   4.238   5.683
11399TIP3    H234141   4.358   4.245   5.621
11400TIP3   OH234142   5.200   4.247   6.210
11400TIP3    H134143   5.170   4.261   6.302
11400TIP3    H234144   5.131   4.188   6.176
11401TIP3   OH234145   4.257   4.258   5.479
11401TIP3    H134146   4.191   4.211   5.426
11401TIP3    H234147   4.311   4.298   5.407
11402TIP3   OH234148   5.374   5.936   6.431
11402TIP3    H134149   5.370   5.961   6.337
11402TIP3    H234150   5.453   5.985   6.461
11403TIP3   OH234151   4.328   5.045   6.846
11403TIP3    H134152   4.407   5.076   6.895
11403TIP3    H234153   4.263   5.043   6.919
11404TIP3   OH234154   4.789   4.501   6.103
11404TIP3    H134155   4.864   4.465   6.053
11404TIP3    H234156   4.797   4.456   6.189
11405TIP3   OH234157   4.309   3.987   5.987
11405TIP3    H134158   4.273   3.909   6.035
11405TIP3    H234159   4.347   3.946   5.908
11406TIP3   OH234160   4.764   4.399   6.398
11406TIP3    H134161   4.675   4.438   6.409
11406TIP3    H234162   4.822   4.462   6.445
11407TIP3   OH234163   4.501   4.786   5.489
11407TIP3    H134164   4.428   4.721   5.475
11407TIP3    H234165   4.480   4.820   5.579
11408TIP3   OH234166   5.400   5.024   6.114
11408TIP3    H134167   5.425   5.075   6.033
11408TIP3    H234168   5.316   4.981   6.087
11409TIP3   OH234169   4.960   4.091   5.365
11409TIP3    H134170   4.863   4.073   5.366
11409TIP3    H234171   4.965   4.188   5.378
11410TIP3   OH234172   4.900   5.106   6.487
11410TIP3    H134173   4.932   5.090   6.577
11410TIP3    H234174   4.862   5.195   6.493
11411TIP3   OH234175   5.027   4.349   5.461
11411TIP3    H134176   5.124   4.356   5.472
11411TIP3    H234177   5.005   4.427   5.407
11412TIP3   OH234178   4.196   4.810   6.163
11412TIP3    H134179   4.234   4.782   6.078
11412TIP3    H234180   4.242   4.753   6.226
11413TIP3   OH234181   4.650   4.938   5.319
11413TIP3    H134182   4.600   5.023   5.320
11413TIP3    H234183   4.594   4.882   5.376
11414TIP3   OH234184   4.080   4.726   6.779
11414TIP3    H134185   4.086   4.710   6.875
11414TIP3    H234186   4.006   4.668   6.755
11415TIP3   OH234187   4.805   4.849   6.792
11415TIP3    H134188   4.743   4.787   6.751
11415TIP3    H234189   4.892   4.811   6.765
11416TIP3   OH234190   5.060   5.367   6.384
11416TIP3    H134191   4.963   5.365   6.397
11416TIP3    H234192   5.088   5.419   6.462
11417TIP3   OH234193   5.464   4.442   5.291
11417TIP3    H134194   5.404   4.396   5.227
11417TIP3    H234195   5.461   4.531   5.250
11418TIP3   OH234196   5.691   5.302   6.369
11418TIP3    H134197   5.594   5.293   6.362
11418TIP3    H234198   5.718   5.270   6.280
11419TIP3   OH234199   5.173   5.257   5.205
11419TIP3    H134200   5.143   5.193   5.272
11419TIP3    H234201   5.184   5.202   5.126
11420TIP3   OH234202   5.168   4.888   6.030
11420TIP3    H134203   5.074   4.863   6.044
11420TIP3    H234204   5.200   4.806   5.987
11421TIP3   OH234205   4.299   5.117   5.792
11421TIP3    H134206   4.295   5.197   5.736
11421TIP3    H234207   4.205   5.098   5.803
11422TIP3   OH234208   3.862   4.417   5.501
11422TIP3    H134209   3.908   4.501   5.522
11422TIP3    H234210   3.785   4.421   5.561
11423TIP3   OH234211   4.426   4.877   5.731
11423TIP3    H134212   4.394   4.968   5.751
11423TIP3    H234213   4.391   4.828   5.808
11424TIP3   OH234214   4.568   5.457   6.257
11424TIP3    H134215   4.610   5.530   6.207
11424TIP3    H234216   4.645   5.420   6.304
11425TIP3   OH234217   4.215   5.353   5.642
11425TIP3    H134218   4.129   5.363   5.688
11425TIP3    H234219   4.247   5.446   5.645
11426TIP3   OH234220   4.950   5.093   6.219
11426TIP3    H134221   4.939   5.091   6.317
11426TIP3    H234222   5.028   5.038   6.207
11427TIP3   OH234223   4.931   4.990   5.100
11427TIP3    H134224   4.983   4.964   5.179
11427TIP3    H234225   4.843   4.956   5.124
11428TIP3   OH234226   5.201   5.622   6.268
11428TIP3    H134227   5.121   5.566   6.263
11428TIP3    H234228   5.184   5.686   6.195
11429TIP3   OH234229   4.282   4.212   6.792
11429TIP3    H134230   4.189   4.230   6.815
11429TIP3    H234231   4.321   4.194   6.880
11430TIP3   OH234232   5.092   4.920   5.314
11430TIP3    H134233   5.080   4.853   5.384
11430TIP3    H234234   5.189   4.915   5.302
11431TIP3   OH234235   4.005   5.318   6.415
11431TIP3    H134236   4.060   5.248   6.455
11431TIP3    H234237   4.028   5.394   6.470
11432TIP3   OH234238   4.294   4.967   5.104
11432TIP3    H134239   4.304   4.875   5.073
11432TIP3    H234240   4.271   4.954   5.198
11433TIP3   OH234241   4.234   4.970   5.376
11433TIP3    H134242   4.312   4.944   5.428
11433TIP3    H234243   4.238   5.068   5.382
11434TIP3   OH234244   3.970   4.661   5.579
11434TIP3    H134245   3.904   4.710   5.634
11434TIP3    H234246   3.986   4.729   5.510
11435TIP3   OH234247   5.128   4.298   6.470
11435TIP3    H134248   5.208   4.339   6.507
11435TIP3    H234249   5.117   4.217   6.525
11436TIP3   OH234250   5.009   4.044   5.640
11436TIP3    H134251   4.992   4.065   5.546
11436TIP3    H234252   5.047   4.128   5.673
11437TIP3   OH234253   4.506   5.166   5.323
11437TIP3    H134254   4.418   5.191   5.359
11437TIP3    H234255   4.517   5.236   5.256
11438TIP3   OH234256   4.688   4.232   5.737
11438TIP3    H134257   4.752   4.305   5.718
11438TIP3    H234258   4.697   4.223   5.834
11439TIP3   OH234259   4.964   4.545   6.541
11439TIP3    H134260   4.989   4.598   6.620
11439TIP3    H234261   5.017   4.464   6.552
11440TIP3   OH234262   4.834   3.949   5.835
11440TIP3    H134263   4.824   4.028   5.891
11440TIP3    H234264   4.898   3.982   5.768
11441TIP3   OH234265   4.252   5.242   5.392
11441TIP3    H134266   4.222   5.312   5.329
11441TIP3    H234267   4.235   5.285   5.478
11442TIP3   OH234268   4.348   3.958   5.629
11442TIP3    H134269   4.346   4.049   5.664
11442TIP3    H234270   4.445   3.941   5.635
11443TIP3   OH234271   5.600   4.449   6.527
11443TIP3    H134272   5.501   4.447   6.533
11443TIP3    H234273   5.612   4.406   6.441
11444TIP3   OH234274   5.252   4.642   5.913
11444TIP3    H134275   5.176   4.583   5.924
11444TIP3    H234276   5.323   4.594   5.961
11445TIP3   OH234277   3.969   4.865   5.381
11445TIP3    H134278   4.040   4.931   5.390
11445TIP3    H234279   4.012   4.808   5.313
11446TIP3   OH234280   3.903   4.145   5.518
11446TIP3    H134281   3.907   4.243   5.514
11446TIP3    H234282   3.837   4.125   5.450
11447TIP3   OH234283   5.223   5.603   5.859
11447TIP3    H134284   5.179   5.648   5.783
11447TIP3    H234285   5.317   5.622   5.838
11448TIP3   OH234286   4.303   3.860   6.387
11448TIP3    H134287   4.272   3.830   6.299
11448TIP3    H234288   4.291   3.779   6.441
11449TIP3   OH234289   3.831   5.083   5.764
11449TIP3    H134290   3.770   5.114   5.833
11449TIP3    H234291   3.795   5.129   5.684
11450TIP3   OH234292   3.998   5.636   6.841
11450TIP3    H134293   4.084   5.636   6.888
11450TIP3    H234294   3.978   5.541   6.839
11451TIP3   OH234295   4.472   5.588   6.884
11451TIP3    H134296   4.567   5.569   6.891
11451TIP3    H234297   4.445   5.526   6.813
11452TIP3   OH234298   4.458   5.167   5.011
11452TIP3    H134299   4.402   5.095   5.047
11452TIP3    H234300   4.530   5.116   4.969
11453TIP3   OH234301   5.113   5.500   6.619
11453TIP3    H134302   5.108   5.430   6.688
11453TIP3    H234303   5.190   5.552   6.649
11454TIP3   OH234304   4.893   5.206   4.929
11454TIP3    H134305   4.927   5.135   4.988
11454TIP3    H234306   4.945   5.193   4.847
11455TIP3   OH234307   4.129   5.038   7.039
11455TIP3    H134308   4.149   4.944   7.056
11455TIP3    H234309   4.040   5.033   6.997
11456TIP3   OH234310   4.104   4.679   5.237
11456TIP3    H134311   4.162   4.651   5.310
11456TIP3    H234312   4.170   4.686   5.165
11457TIP3   OH234313   4.733   5.125   6.814
11457TIP3    H134314   4.690   5.145   6.729
11457TIP3    H234315   4.763   5.033   6.802
11458TIP3   OH234316   4.630   4.884   5.048
11458TIP3    H134317   4.624   4.895   5.145
11458TIP3    H234318   4.626   4.786   5.040
11459TIP3   OH234319   5.224   5.136   6.423
11459TIP3    H134320   5.300   5.177   6.378
11459TIP3    H234321   5.155   5.202   6.406
11460TIP3   OH234322   4.243   4.778   7.054
11460TIP3    H134323   4.325   4.735   7.024
11460TIP3    H234324   4.240   4.753   7.147
11461TIP3   OH234325   4.305   4.591   5.451
11461TIP3    H134326   4.282   4.548   5.535
11461TIP3    H234327   4.346   4.518   5.401
11462TIP3   OH234328   4.580   4.651   6.682
11462TIP3    H134329   4.503   4.712   6.686
11462TIP3    H234330   4.630   4.687   6.605
11463TIP3   OH234331   4.414   4.388   5.296
11463TIP3    H134332   4.389   4.394   5.201
11463TIP3    H234333   4.512   4.388   5.290
11464TIP3   OH234334   5.097   5.056   6.816
11464TIP3    H134335   5.174   5.022   6.768
11464TIP3    H234336   5.090   4.993   6.890
11465TIP3   OH234337   5.232   4.708   4.960
11465TIP3    H134338   5.211   4.664   4.875
11465TIP3    H234339   5.195   4.798   4.940
11466TIP3   OH234340   4.704   4.442   6.805
11466TIP3    H134341   4.705   4.365   6.745
11466TIP3    H234342   4.661   4.511   6.749
11467TIP3   OH234343   4.703   4.227   6.616
11467TIP3    H134344   4.732   4.271   6.534
11467TIP3    H234345   4.609   4.206   6.596
11468TIP3   OH234346   4.728   4.763   6.489
11468TIP3    H134347   4.815   4.780   6.450
11468TIP3    H234348   4.671   4.829   6.443
11469TIP3   OH234349   5.311   4.728   6.867
11469TIP3    H134350   5.359   4.645   6.882
11469TIP3    H234351   5.380   4.785   6.830
11470TIP3   OH234352   5.353   4.985   6.607
11470TIP3    H134353   5.296   5.041   6.549
11470TIP3    H234354   5.441   5.006   6.568
11471TIP3   OH234355   4.581   4.550   7.037
11471TIP3    H134356   4.514   4.481   7.055
11471TIP3    H234357   4.617   4.520   6.951
11472TIP3   OH234358   4.838   3.992   6.689
11472TIP3    H134359   4.789   4.073   6.664
11472TIP3    H234360   4.771   3.923   6.677
11473TIP3   OH234361   4.963   4.492   6.903
11473TIP3    H134362   4.948   4.479   6.998
11473TIP3    H234363   4.873   4.469   6.869
11474TIP3   OH234364   5.201   4.444   6.757
11474TIP3    H134365   5.126   4.446   6.821
11474TIP3    H234366   5.275   4.415   6.814
11475TIP3   OH234367   5.432   4.389   6.906
11475TIP3    H134368   5.445   4.293   6.921
11475TIP3    H234369   5.427   4.424   6.997
11476TIP3   OH234370   4.418   4.336   7.104
11476TIP3    H134371   4.444   4.244   7.091
11476TIP3    H234372   4.429   4.345   7.201
11477TIP3   OH234373   4.929   4.001   6.948
11477TIP3    H134374   4.996   3.930   6.942
11477TIP3    H234375   4.891   3.998   6.858
11478TIP3   OH234376   4.996   4.218   7.104
11478TIP3    H134377   4.974   4.146   7.041
11478TIP3    H234378   4.917   4.275   7.098
11479TIP3   OH234379   4.222   5.446   5.205
11479TIP3    H134380   4.317   5.436   5.183
11479TIP3    H234381   4.192   5.497   5.127
11480TIP3   OH234382   3.699   4.826   5.414
11480TIP3    H134383   3.795   4.847   5.402
11480TIP3    H234384   3.694   4.736   5.377
11481TIP3   OH234385   3.617   5.438   5.836
11481TIP3    H134386   3.551   5.377   5.795
11481TIP3    H234387   3.660   5.377   5.899
11482TIP3   OH234388   3.751   5.281   6.020
11482TIP3    H134389   3.737   5.214   6.089
11482TIP3    H234390   3.803   5.346   6.070
11483TIP3   OH234391   5.478   5.692   5.820
11483TIP3    H134392   5.503   5.718   5.911
11483TIP3    H234393   5.548   5.732   5.767
11484TIP3   OH234394   5.505   5.708   6.103
11484TIP3    H134395   5.459   5.621   6.099
11484TIP3    H234396   5.580   5.683   6.159
11485TIP3   OH234397   5.553   5.387   6.677
11485TIP3    H134398   5.481   5.397   6.742
11485TIP3    H234399   5.595   5.475   6.681
11486TIP3   OH234400   5.369   4.898   5.294
11486TIP3    H134401   5.436   4.962   5.263
11486TIP3    H234402   5.414   4.860   5.373
11487TIP3   OH234403   5.498   4.767   5.498
11487TIP3    H134404   5.432   4.726   5.558
11487TIP3    H234405   5.566   4.801   5.560
11488TIP3   OH234406   5.555   5.162   5.929
11488TIP3    H134407   5.608   5.092   5.884
11488TIP3    H234408   5.548   5.230   5.860
11489TIP3   OH234409   5.379   5.460   6.123
11489TIP3    H134410   5.307   5.501   6.174
11489TIP3    H234411   5.330   5.414   6.052
11490TIP3   OH234412   5.433   4.675   5.143
11490TIP3    H134413   5.361   4.676   5.076
11490TIP3    H234414   5.405   4.751   5.198
11491TIP3   OH234415   5.304   4.342   5.095
11491TIP3    H134416   5.255   4.379   5.021
11491TIP3    H234417   5.284   4.246   5.083
11492TIP3   OH234418   5.308   4.627   5.643
11492TIP3    H134419   5.316   4.530   5.633
11492TIP3    H234420   5.293   4.637   5.740
11493TIP3   OH234421   3.933   4.694   6.394
11493TIP3    H134422   3.929   4.661   6.302
11493TIP3    H234423   4.031   4.697   6.408
11494TIP3   OH234424   5.601   5.050   6.503
11494TIP3    H134425   5.671   4.982   6.490
11494TIP3    H234426   5.624   5.116   6.435
11495TIP3   OH234427   5.782   4.849   6.508
11495TIP3    H134428   5.707   4.800   6.549
11495TIP3    H234429   5.855   4.786   6.527
11496TIP3   OH234430   5.254   4.071   5.067
11496TIP3    H134431   5.320   4.046   5.135
11496TIP3    H234432   5.173   4.026   5.096
11497TIP3   OH234433   5.308   4.343   5.535
11497TIP3    H134434   5.350   4.255   5.549
11497TIP3    H234435   5.365   4.376   5.462
11498TIP3   OH234436   5.465   4.509   6.034
11498TIP3    H134437   5.550   4.534   5.991
11498TIP3    H234438   5.481   4.548   6.122
11499TIP3   OH234439   5.539   4.658   6.263
11499TIP3    H134440   5.462   4.693   6.311
11499TIP3    H234441   5.572   4.739   6.218
11500TIP3   OH234442   4.152   4.373   7.040
11500TIP3    H134443   4.247   4.380   7.063
11500TIP3    H234444   4.128   4.295   7.094
11501TIP3   OH234445   5.987   4.253   6.818
11501TIP3    H134446   6.049   4.189   6.777
11501TIP3    H234447   5.957   4.304   6.740
11502TIP3   OH234448   5.415   4.093   5.575
11502TIP3    H134449   5.463   4.075   5.659
11502TIP3    H234450   5.354   4.016   5.573
11503TIP3   OH234451   4.122   4.068   6.397
11503TIP3    H134452   4.190   3.998   6.396
11503TIP3    H234453   4.177   4.148   6.391
11504TIP3   OH234454   3.905   4.358   6.462
11504TIP3    H134455   3.959   4.350   6.381
11504TIP3    H234456   3.934   4.444   6.496
11505TIP3   OH234457   5.855   4.386   6.621
11505TIP3    H134458   5.769   4.429   6.638
11505TIP3    H234459   5.825   4.312   6.565
11506TIP3   OH234460   5.492   4.021   5.213
11506TIP3    H134461   5.532   3.954   5.154
11506TIP3    H234462   5.557   4.093   5.210
11507TIP3   OH234463   3.903   3.862   5.979
11507TIP3    H134464   3.808   3.846   5.992
11507TIP3    H234465   3.902   3.914   5.896
11508TIP3   OH234466   5.065   5.555   5.473
11508TIP3    H134467   5.121   5.547   5.394
11508TIP3    H234468   5.110   5.623   5.525
11509TIP3   OH234469   4.160   5.364   6.859
11509TIP3    H134470   4.066   5.340   6.845
11509TIP3    H234471   4.173   5.340   6.951
11510TIP3   OH234472   4.342   5.398   6.408
11510TIP3    H134473   4.294   5.474   6.369
11510TIP3    H234474   4.428   5.411   6.362
11511TIP3   OH234475   4.779   5.637   6.544
11511TIP3    H134476   4.821   5.636   6.633
11511TIP3    H234477   4.845   5.690   6.494
11512TIP3   OH234478   4.959   5.793   6.408
11512TIP3    H134479   5.029   5.742   6.365
11512TIP3    H234480   5.013   5.849   6.468
11513TIP3   OH234481   5.757   4.149   6.505
11513TIP3    H134482   5.668   4.138   6.468
11513TIP3    H234483   5.792   4.057   6.495
11514TIP3   OH234484   4.015   5.650   6.434
11514TIP3    H134485   3.924   5.681   6.411
11514TIP3    H234486   4.029   5.700   6.516
11515TIP3   OH234487   4.251   5.631   6.292
11515TIP3    H134488   4.163   5.642   6.335
11515TIP3    H234489   4.232   5.662   6.202
11516TIP3   OH234490   4.676   5.655   6.090
11516TIP3    H134491   4.606   5.672   6.024
11516TIP3    H234492   4.687   5.743   6.130
11517TIP3   OH234493   4.946   5.595   6.143
11517TIP3    H134494   4.852   5.612   6.123
11517TIP3    H234495   4.990   5.668   6.096
11518TIP3   OH234496   5.152   5.786   6.053
11518TIP3    H134497   5.138   5.870   6.005
11518TIP3    H234498   5.178   5.726   5.980
11519TIP3   OH234499   3.926   5.443   6.175
11519TIP3    H134500   3.952   5.414   6.265
11519TIP3    H234501   3.999   5.401   6.124
11520TIP3   OH234502   4.123   5.317   6.036
11520TIP3    H134503   4.137   5.233   6.086
11520TIP3    H234504   4.214   5.352   6.033
11521TIP3   OH234505   4.390   5.408   6.042
11521TIP3    H134506   4.419   5.315   6.032
11521TIP3    H234507   4.439   5.431   6.123
11522TIP3   OH234508   4.964   4.066   6.127
11522TIP3    H134509   4.922   3.993   6.175
11522TIP3    H234510   5.038   4.023   6.081
11523TIP3   OH234511   5.480   3.946   6.028
11523TIP3    H134512   5.518   3.998   5.953
11523TIP3    H234513   5.386   3.969   6.022
11524TIP3   OH234514   5.579   4.042   5.792
11524TIP3    H134515   5.653   3.990   5.754
11524TIP3    H234516   5.614   4.133   5.778
11525TIP3   OH234517   4.211   3.773   6.140
11525TIP3    H134518   4.118   3.744   6.140
11525TIP3    H234519   4.257   3.686   6.134
11526TIP3   OH234520   4.017   3.642   5.790
11526TIP3    H134521   4.038   3.699   5.714
11526TIP3    H234522   3.972   3.705   5.849
11527TIP3   OH234523   4.661   3.802   6.023
11527TIP3    H134524   4.712   3.851   5.955
11527TIP3    H234525   4.692   3.845   6.105
11528TIP3   OH234526   5.194   3.955   6.005
11528TIP3    H134527   5.200   3.916   5.917
11528TIP3    H234528   5.185   3.874   6.062
11529TIP3   OH234529   5.232   3.881   5.568
11529TIP3    H134530   5.147   3.926   5.585
11529TIP3    H234531   5.216   3.794   5.611
11530TIP3   OH234532   3.713   5.222   5.565
11530TIP3    H134533   3.627   5.189   5.533
11530TIP3    H234534   3.706   5.315   5.535
11531TIP3   OH234535   4.118   3.800   5.551
11531TIP3    H134536   4.166   3.739   5.491
11531TIP3    H234537   4.191   3.855   5.585
11532TIP3   OH234538   4.624   3.981   5.651
11532TIP3    H134539   4.688   3.937   5.710
11532TIP3    H234540   4.645   4.075   5.674
11533TIP3   OH234541   4.488   5.400   5.149
11533TIP3    H134542   4.575   5.424   5.111
11533TIP3    H234543   4.465   5.325   5.088
11534TIP3   OH234544   5.218   5.522   5.240
11534TIP3    H134545   5.207   5.423   5.235
11534TIP3    H234546   5.163   5.550   5.164
11535TIP3   OH234547   4.420   4.037   7.018
11535TIP3    H134548   4.383   3.979   7.088
11535TIP3    H234549   4.513   4.043   7.050
11536TIP3   OH234550   4.668   4.045   7.137
11536TIP3    H134551   4.757   4.022   7.107
11536TIP3    H234552   4.654   3.982   7.210
11537TIP3   OH234553   3.789   5.231   5.202
11537TIP3    H134554   3.796   5.259   5.294
11537TIP3    H234555   3.877   5.191   5.185
11538TIP3   OH234556   5.496   4.118   6.936
11538TIP3    H134557   5.513   4.087   7.028
11538TIP3    H234558   5.585   4.112   6.897
11539TIP3   OH234559   5.428   5.665   6.430
11539TIP3    H134560   5.350   5.635   6.379
11539TIP3    H234561   5.409   5.761   6.437
11540TIP3   OH234562   6.705   5.045   5.190
11540TIP3    H134563   6.671   5.134   5.166
11540TIP3    H234564   6.624   4.992   5.179
11541TIP3   OH234565   6.720   5.046   5.577
11541TIP3    H134566   6.733   5.000   5.661
11541TIP3    H234567   6.656   4.986   5.534
11542TIP3   OH234568   5.994   4.934   5.945
11542TIP3    H134569   6.026   4.864   6.006
11542TIP3    H234570   6.076   4.982   5.926
11543TIP3   OH234571   6.946   5.342   5.261
11543TIP3    H134572   6.922   5.271   5.322
11543TIP3    H234573   6.973   5.413   5.321
11544TIP3   OH234574   5.972   5.341   5.660
11544TIP3    H134575   5.966   5.243   5.659
11544TIP3    H234576   6.067   5.353   5.640
11545TIP3   OH234577   5.670   4.541   5.444
11545TIP3    H134578   5.626   4.626   5.464
11545TIP3    H234579   5.598   4.494   5.399
11546TIP3   OH234580   5.734   4.834   5.628
11546TIP3    H134581   5.783   4.755   5.660
11546TIP3    H234582   5.801   4.880   5.576
11547TIP3   OH234583   6.599   5.807   5.279
11547TIP3    H134584   6.640   5.737   5.224
11547TIP3    H234585   6.579   5.759   5.360
11548TIP3   OH234586   6.481   5.280   5.641
11548TIP3    H134587   6.461   5.209   5.576
11548TIP3    H234588   6.579   5.287   5.635
11549TIP3   OH234589   7.515   4.584   5.624
11549TIP3    H134590   7.543   4.669   5.664
11549TIP3    H234591   7.534   4.600   5.530
11550TIP3   OH234592   6.930   4.771   5.654
11550TIP3    H134593   6.961   4.680   5.669
11550TIP3    H234594   6.873   4.759   5.576
11551TIP3   OH234595   6.255   4.421   5.624
11551TIP3    H134596   6.235   4.496   5.562
11551TIP3    H234597   6.202   4.351   5.580
11552TIP3   OH234598   6.946   4.514   5.239
11552TIP3    H134599   7.016   4.502   5.307
11552TIP3    H234600   6.999   4.552   5.166
11553TIP3   OH234601   5.880   4.627   5.733
11553TIP3    H134602   5.966   4.611   5.777
11553TIP3    H234603   5.893   4.572   5.652
11554TIP3   OH234604   7.587   4.797   5.791
11554TIP3    H134605   7.501   4.840   5.771
11554TIP3    H234606   7.598   4.821   5.884
11555TIP3   OH234607   6.244   4.410   6.057
11555TIP3    H134608   6.187   4.448   5.986
11555TIP3    H234609   6.189   4.429   6.136
11556TIP3   OH234610   6.589   5.262   5.058
11556TIP3    H134611   6.547   5.245   4.972
11556TIP3    H234612   6.543   5.344   5.086
11557TIP3   OH234613   6.349   5.184   5.857
11557TIP3    H134614   6.288   5.256   5.885
11557TIP3    H234615   6.390   5.224   5.777
11558TIP3   OH234616   7.147   4.523   5.422
11558TIP3    H134617   7.123   4.485   5.508
11558TIP3    H234618   7.196   4.604   5.449
11559TIP3   OH234619   6.118   4.524   5.839
11559TIP3    H134620   6.179   4.599   5.860
11559TIP3    H234621   6.167   4.484   5.763
11560TIP3   OH234622   6.182   5.385   5.951
11560TIP3    H134623   6.154   5.468   5.908
11560TIP3    H234624   6.101   5.367   6.005
11561TIP3   OH234625   5.561   5.067   5.180
11561TIP3    H134626   5.523   5.092   5.095
11561TIP3    H234627   5.585   5.156   5.216
11562TIP3   OH234628   7.013   5.590   5.426
11562TIP3    H134629   6.924   5.578   5.467
11562TIP3    H234630   7.000   5.673   5.378
11563TIP3   OH234631   7.305   4.485   5.790
11563TIP3    H134632   7.218   4.509   5.756
11563TIP3    H234633   7.365   4.517   5.719
11564TIP3   OH234634   6.596   4.125   5.774
11564TIP3    H134635   6.579   4.030   5.791
11564TIP3    H234636   6.520   4.165   5.820
11565TIP3   OH234637   6.711   5.634   5.097
11565TIP3    H134638   6.761   5.550   5.080
11565TIP3    H234639   6.775   5.698   5.057
11566TIP3   OH234640   6.853   5.417   5.012
11566TIP3    H134641   6.807   5.338   4.980
11566TIP3    H234642   6.895   5.383   5.095
11567TIP3   OH234643   7.237   5.498   5.764
11567TIP3    H134644   7.221   5.418   5.709
11567TIP3    H234645   7.218   5.570   5.700
11568TIP3   OH234646   6.526   4.887   5.026
11568TIP3    H134647   6.447   4.940   5.004
11568TIP3    H234648   6.575   4.888   4.942
11569TIP3   OH234649   6.483   4.682   4.741
11569TIP3    H134650   6.551   4.731   4.790
11569TIP3    H234651   6.538   4.617   4.694
11570TIP3   OH234652   7.432   5.141   5.618
11570TIP3    H134653   7.346   5.189   5.620
11570TIP3    H234654   7.460   5.162   5.526
11571TIP3   OH234655   6.879   4.975   4.994
11571TIP3    H134656   6.823   4.999   5.071
11571TIP3    H234657   6.963   4.951   5.039
11572TIP3   OH234658   7.114   5.011   5.916
11572TIP3    H134659   7.106   5.096   5.962
11572TIP3    H234660   7.026   5.007   5.872
11573TIP3   OH234661   6.234   5.394   5.562
11573TIP3    H134662   6.215   5.319   5.501
11573TIP3    H234663   6.320   5.361   5.595
11574TIP3   OH234664   6.248   4.946   5.764
11574TIP3    H134665   6.257   4.959   5.666
11574TIP3    H234666   6.288   5.030   5.793
11575TIP3   OH234667   6.774   5.583   5.549
11575TIP3    H134668   6.759   5.656   5.611
11575TIP3    H234669   6.758   5.503   5.604
11576TIP3   OH234670   6.384   5.499   6.096
11576TIP3    H134671   6.321   5.560   6.139
11576TIP3    H234672   6.322   5.446   6.042
11577TIP3   OH234673   6.716   4.832   4.825
11577TIP3    H134674   6.775   4.893   4.875
11577TIP3    H234675   6.744   4.851   4.732
11578TIP3   OH234676   6.141   5.051   6.205
11578TIP3    H134677   6.143   5.141   6.242
11578TIP3    H234678   6.045   5.032   6.211
11579TIP3   OH234679   6.465   5.508   5.093
11579TIP3    H134680   6.545   5.562   5.106
11579TIP3    H234681   6.404   5.571   5.052
11580TIP3   OH234682   6.177   5.666   6.182
11580TIP3    H134683   6.144   5.667   6.089
11580TIP3    H234684   6.095   5.643   6.232
11581TIP3   OH234685   7.232   4.072   4.873
11581TIP3    H134686   7.150   4.092   4.923
11581TIP3    H234687   7.243   4.155   4.822
11582TIP3   OH234688   5.976   4.781   5.165
11582TIP3    H134689   5.898   4.834   5.139
11582TIP3    H234690   5.942   4.724   5.234
11583TIP3   OH234691   7.033   5.439   4.425
11583TIP3    H134692   7.041   5.535   4.407
11583TIP3    H234693   7.126   5.410   4.411
11584TIP3   OH234694   5.756   5.200   6.127
11584TIP3    H134695   5.689   5.179   6.059
11584TIP3    H234696   5.794   5.112   6.148
11585TIP3   OH234697   5.612   5.395   5.751
11585TIP3    H134698   5.707   5.381   5.744
11585TIP3    H234699   5.607   5.469   5.814
11586TIP3   OH234700   7.469   5.837   5.817
11586TIP3    H134701   7.474   5.740   5.835
11586TIP3    H234702   7.387   5.860   5.867
11587TIP3   OH234703   6.579   5.627   5.952
11587TIP3    H134704   6.574   5.720   5.983
11587TIP3    H234705   6.506   5.586   6.005
11588TIP3   OH234706   6.344   5.755   4.904
11588TIP3    H134707   6.298   5.735   4.820
11588TIP3    H234708   6.309   5.843   4.928
11589TIP3   OH234709   5.762   5.592   5.305
11589TIP3    H134710   5.840   5.580   5.365
11589TIP3    H234711   5.692   5.566   5.368
11590TIP3   OH234712   6.541   5.659   4.541
11590TIP3    H134713   6.599   5.589   4.503
11590TIP3    H234714   6.579   5.669   4.630
11591TIP3   OH234715   6.595   5.706   4.812
11591TIP3    H134716   6.506   5.716   4.852
11591TIP3    H234717   6.643   5.661   4.883
11592TIP3   OH234718   7.362   4.973   6.090
11592TIP3    H134719   7.278   4.982   6.042
11592TIP3    H234720   7.379   4.877   6.081
11593TIP3   OH234721   5.959   5.384   6.112
11593TIP3    H134722   6.009   5.364   6.194
11593TIP3    H234723   5.885   5.320   6.118
11594TIP3   OH234724   6.359   4.202   5.904
11594TIP3    H134725   6.271   4.174   5.873
11594TIP3    H234726   6.334   4.285   5.950
11595TIP3   OH234727   6.896   4.318   6.096
11595TIP3    H134728   6.965   4.290   6.160
11595TIP3    H234729   6.813   4.299   6.144
11596TIP3   OH234730   7.132   4.748   6.016
11596TIP3    H134731   7.079   4.747   6.099
11596TIP3    H234732   7.107   4.834   5.977
11597TIP3   OH234733   6.802   4.865   4.572
11597TIP3    H134734   6.759   4.851   4.486
11597TIP3    H234735   6.879   4.919   4.545
11598TIP3   OH234736   6.507   4.248   4.874
11598TIP3    H134737   6.471   4.246   4.965
11598TIP3    H234738   6.464   4.168   4.838
11599TIP3   OH234739   6.293   4.725   5.912
11599TIP3    H134740   6.241   4.750   5.991
11599TIP3    H234741   6.280   4.803   5.854
11600TIP3   OH234742   6.174   4.590   5.434
11600TIP3    H134743   6.079   4.575   5.449
11600TIP3    H234744   6.184   4.559   5.342
11601TIP3   OH234745   6.665   4.692   5.164
11601TIP3    H134746   6.613   4.762   5.119
11601TIP3    H234747   6.719   4.657   5.091
11602TIP3   OH234748   6.841   4.967   6.247
11602TIP3    H134749   6.818   4.893   6.308
11602TIP3    H234750   6.936   4.978   6.268
11603TIP3   OH234751   6.829   4.719   5.395
11603TIP3    H134752   6.762   4.747   5.330
11603TIP3    H234753   6.861   4.639   5.350
11604TIP3   OH234754   6.112   4.750   6.125
11604TIP3    H134755   6.145   4.811   6.192
11604TIP3    H234756   6.101   4.667   6.176
11605TIP3   OH234757   6.163   4.228   4.836
11605TIP3    H134758   6.152   4.230   4.933
11605TIP3    H234759   6.086   4.282   4.809
11606TIP3   OH234760   5.706   4.265   5.713
11606TIP3    H134761   5.779   4.303   5.767
11606TIP3    H234762   5.749   4.245   5.629
11607TIP3   OH234763   5.665   4.248   5.228
11607TIP3    H134764   5.712   4.285   5.149
11607TIP3    H234765   5.606   4.323   5.247
11608TIP3   OH234766   6.850   4.962   5.828
11608TIP3    H134767   6.878   4.894   5.762
11608TIP3    H234768   6.808   4.905   5.896
11609TIP3   OH234769   6.511   4.419   5.492
11609TIP3    H134770   6.427   4.425   5.541
11609TIP3    H234771   6.576   4.419   5.564
11610TIP3   OH234772   5.929   4.481   5.508
11610TIP3    H134773   5.837   4.486   5.474
11610TIP3    H234774   5.959   4.392   5.479
11611TIP3   OH234775   6.201   4.473   5.187
11611TIP3    H134776   6.292   4.499   5.166
11611TIP3    H234777   6.151   4.500   5.107
11612TIP3   OH234778   6.995   4.502   5.697
11612TIP3    H134779   6.963   4.519   5.788
11612TIP3    H234780   6.923   4.444   5.665
11613TIP3   OH234781   6.054   4.507   4.962
11613TIP3    H134782   5.984   4.465   4.909
11613TIP3    H234783   6.105   4.552   4.892
11614TIP3   OH234784   7.167   6.193   5.927
11614TIP3    H134785   7.165   6.222   5.834
11614TIP3    H234786   7.243   6.242   5.963
11615TIP3   OH234787   6.121   5.305   6.335
11615TIP3    H134788   6.201   5.333   6.383
11615TIP3    H234789   6.057   5.301   6.408
11616TIP3   OH234790   6.625   4.771   5.626
11616TIP3    H134791   6.645   4.714   5.551
11616TIP3    H234792   6.598   4.709   5.695
11617TIP3   OH234793   6.100   4.245   5.476
11617TIP3    H134794   6.067   4.165   5.523
11617TIP3    H234795   6.143   4.206   5.399
11618TIP3   OH234796   6.559   4.649   5.886
11618TIP3    H134797   6.470   4.689   5.891
11618TIP3    H234798   6.616   4.716   5.928
11619TIP3   OH234799   6.289   5.047   4.988
11619TIP3    H134800   6.222   4.978   4.966
11619TIP3    H234801   6.277   5.055   5.084
11620TIP3   OH234802   7.195   5.281   5.602
11620TIP3    H134803   7.216   5.330   5.520
11620TIP3    H234804   7.111   5.235   5.577
11621TIP3   OH234805   6.755   4.354   4.839
11621TIP3    H134806   6.659   4.332   4.850
11621TIP3    H234807   6.760   4.448   4.868
11622TIP3   OH234808   6.716   5.375   5.967
11622TIP3    H134809   6.721   5.340   6.057
11622TIP3    H234810   6.659   5.453   5.977
11623TIP3   OH234811   6.823   4.604   4.946
11623TIP3    H134812   6.919   4.612   4.962
11623TIP3    H234813   6.803   4.686   4.897
11624TIP3   OH234814   5.995   5.060   5.640
11624TIP3    H134815   6.068   5.073   5.574
11624TIP3    H234816   6.041   5.001   5.701
11625TIP3   OH234817   6.442   5.190   4.807
11625TIP3    H134818   6.394   5.276   4.806
11625TIP3    H234819   6.385   5.138   4.868
11626TIP3   OH234820   5.873   4.987   6.265
11626TIP3    H134821   5.888   4.970   6.360
11626TIP3    H234822   5.804   4.921   6.245
11627TIP3   OH234823   6.601   5.105   6.284
11627TIP3    H134824   6.540   5.048   6.235
11627TIP3    H234825   6.687   5.067   6.255
11628TIP3   OH234826   6.857   5.651   5.861
11628TIP3    H134827   6.765   5.624   5.877
11628TIP3    H234828   6.881   5.687   5.949
11629TIP3   OH234829   7.266   4.700   4.782
11629TIP3    H134830   7.213   4.654   4.713
11629TIP3    H234831   7.263   4.790   4.742
11630TIP3   OH234832   7.486   5.560   5.852
11630TIP3    H134833   7.388   5.549   5.846
11630TIP3    H234834   7.512   5.526   5.764
11631TIP3   OH234835   6.973   5.512   4.690
11631TIP3    H134836   6.941   5.441   4.747
11631TIP3    H234837   6.984   5.468   4.604
11632TIP3   OH234838   6.970   5.144   5.516
11632TIP3    H134839   6.877   5.118   5.535
11632TIP3    H234840   7.001   5.062   5.473
11633TIP3   OH234841   6.047   5.416   5.307
11633TIP3    H134842   6.087   5.457   5.228
11633TIP3    H234843   6.014   5.331   5.274
11634TIP3   OH234844   5.655   4.673   4.979
11634TIP3    H134845   5.703   4.755   5.003
11634TIP3    H234846   5.580   4.676   5.043
11635TIP3   OH234847   6.362   5.712   5.746
11635TIP3    H134848   6.405   5.784   5.694
11635TIP3    H234849   6.440   5.669   5.786
11636TIP3   OH234850   5.998   5.626   5.106
11636TIP3    H134851   5.927   5.620   5.172
11636TIP3    H234852   6.032   5.717   5.121
11637TIP3   OH234853   6.759   5.348   5.699
11637TIP3    H134854   6.743   5.348   5.796
11637TIP3    H234855   6.821   5.275   5.689
11638TIP3   OH234856   6.727   5.245   4.588
11638TIP3    H134857   6.780   5.219   4.667
11638TIP3    H234858   6.639   5.214   4.614
11639TIP3   OH234859   6.997   5.880   5.761
11639TIP3    H134860   6.925   5.813   5.770
11639TIP3    H234861   6.967   5.932   5.684
11640TIP3   OH234862   7.062   5.713   4.404
11640TIP3    H134863   7.088   5.781   4.340
11640TIP3    H234864   6.983   5.756   4.443
11641TIP3   OH234865   6.080   4.493   6.269
11641TIP3    H134866   5.983   4.494   6.280
11641TIP3    H234867   6.107   4.436   6.343
11642TIP3   OH234868   6.889   5.173   4.799
11642TIP3    H134869   6.878   5.109   4.872
11642TIP3    H234870   6.986   5.171   4.789
11643TIP3   OH234871   5.797   5.575   5.902
11643TIP3    H134872   5.855   5.503   5.932
11643TIP3    H234873   5.827   5.647   5.958
11644TIP3   OH234874   6.089   5.220   4.590
11644TIP3    H134875   6.101   5.127   4.562
11644TIP3    H234876   6.064   5.209   4.684
11645TIP3   OH234877   6.029   5.227   4.863
11645TIP3    H134878   6.109   5.198   4.909
11645TIP3    H234879   6.036   5.325   4.869
11646TIP3   OH234880   5.760   4.918   5.063
11646TIP3    H134881   5.695   4.964   5.120
11646TIP3    H234882   5.778   4.989   4.997
11647TIP3   OH234883   6.924   4.557   5.958
11647TIP3    H134884   7.006   4.593   5.995
11647TIP3    H234885   6.911   4.475   6.011
11648TIP3   OH234886   6.807   4.299   5.125
11648TIP3    H134887   6.790   4.324   5.033
11648TIP3    H234888   6.846   4.382   5.162
11649TIP3   OH234889   6.302   5.420   4.808
11649TIP3    H134890   6.214   5.447   4.842
11649TIP3    H234891   6.318   5.491   4.744
11650TIP3   OH234892   6.488   4.487   5.223
11650TIP3    H134893   6.549   4.562   5.208
11650TIP3    H234894   6.490   4.481   5.320
11651TIP3   OH234895   6.756   4.801   6.027
11651TIP3    H134896   6.784   4.852   6.106
11651TIP3    H234897   6.810   4.720   6.035
11652TIP3   OH234898   6.628   4.207   5.324
11652TIP3    H134899   6.610   4.288   5.376
11652TIP3    H234900   6.693   4.242   5.258
11653TIP3   OH234901   6.048   5.499   4.873
11653TIP3    H134902   6.019   5.569   4.810
11653TIP3    H234903   6.030   5.544   4.958
11654TIP3   OH234904   6.145   4.211   5.114
11654TIP3    H134905   6.143   4.304   5.147
11654TIP3    H234906   6.241   4.194   5.121
11655TIP3   OH234907   7.398   4.705   6.010
11655TIP3    H134908   7.300   4.707   6.020
11655TIP3    H234909   7.404   4.654   5.928
11656TIP3   OH234910   7.051   4.899   5.398
11656TIP3    H134911   6.972   4.843   5.412
11656TIP3    H234912   7.119   4.850   5.449
11657TIP3   OH234913   5.766   5.124   4.865
11657TIP3    H134914   5.844   5.184   4.874
11657TIP3    H234915   5.805   5.061   4.800
11658TIP3   OH234916   5.702   4.402   5.005
11658TIP3    H134917   5.710   4.499   5.001
11658TIP3    H234918   5.623   4.387   4.952
11659TIP3   OH234919   7.019   5.861   5.343
11659TIP3    H134920   6.973   5.911   5.273
11659TIP3    H234921   7.112   5.882   5.321
11660TIP3   OH234922   6.094   4.124   5.872
11660TIP3    H134923   6.064   4.091   5.785
11660TIP3    H234924   6.083   4.046   5.929
11661TIP3   OH234925   5.608   5.331   5.239
11661TIP3    H134926   5.562   5.378   5.311
11661TIP3    H234927   5.676   5.397   5.214
11662TIP3   OH234928   5.794   5.892   6.326
11662TIP3    H134929   5.880   5.890   6.372
11662TIP3    H234930   5.773   5.797   6.324
11663TIP3   OH234931   6.271   5.843   6.372
11663TIP3    H134932   6.365   5.819   6.374
11663TIP3    H234933   6.240   5.783   6.300
11664TIP3   OH234934   6.251   5.424   4.498
11664TIP3    H134935   6.199   5.349   4.535
11664TIP3    H234936   6.326   5.376   4.458
11665TIP3   OH234937   6.908   5.760   6.111
11665TIP3    H134938   6.902   5.687   6.177
11665TIP3    H234939   6.991   5.804   6.138
11666TIP3   OH234940   6.686   5.463   4.413
11666TIP3    H134941   6.728   5.396   4.471
11666TIP3    H234942   6.742   5.458   4.332
11667TIP3   OH234943   5.920   5.294   6.528
11667TIP3    H134944   5.937   5.197   6.533
11667TIP3    H234945   5.834   5.296   6.481
11668TIP3   OH234946   5.899   4.935   4.725
11668TIP3    H134947   5.956   4.905   4.798
11668TIP3    H234948   5.965   4.941   4.653
11669TIP3   OH234949   6.526   5.380   6.302
11669TIP3    H134950   6.484   5.400   6.216
11669TIP3    H234951   6.557   5.288   6.290
11670TIP3   OH234952   6.418   5.141   4.535
11670TIP3    H134953   6.416   5.150   4.632
11670TIP3    H234954   6.419   5.043   4.526
11671TIP3   OH234955   7.026   5.389   5.915
11671TIP3    H134956   7.093   5.439   5.866
11671TIP3    H234957   6.945   5.438   5.893
11672TIP3   OH234958   6.040   5.033   6.513
11672TIP3    H134959   6.116   4.985   6.479
11672TIP3    H234960   6.072   5.062   6.601
11673TIP3   OH234961   6.104   4.852   4.937
11673TIP3    H134962   6.068   4.818   5.022
11673TIP3    H234963   6.139   4.770   4.897
11674TIP3   OH234964   6.376   4.909   6.173
11674TIP3    H134965   6.298   4.969   6.174
11674TIP3    H234966   6.427   4.946   6.097
11675TIP3   OH234967   6.207   4.643   4.781
11675TIP3    H134968   6.183   4.650   4.687
11675TIP3    H234969   6.305   4.647   4.775
11676TIP3   OH234970   6.897   5.314   6.306
11676TIP3    H134971   6.967   5.277   6.251
11676TIP3    H234972   6.888   5.247   6.376
11677TIP3   OH234973   7.031   4.968   4.448
11677TIP3    H134974   7.009   4.926   4.362
11677TIP3    H234975   6.997   5.059   4.430
11678TIP3   OH234976   6.500   4.701   6.295
11678TIP3    H134977   6.500   4.623   6.237
11678TIP3    H234978   6.456   4.768   6.238
11679TIP3   OH234979   6.502   4.486   6.108
11679TIP3    H134980   6.530   4.529   6.025
11679TIP3    H234981   6.409   4.463   6.088
11680TIP3   OH234982   6.528   5.028   5.988
11680TIP3    H134983   6.606   5.025   5.932
11680TIP3    H234984   6.467   5.086   5.937
11681TIP3   OH234985   7.107   4.986   6.356
11681TIP3    H134986   7.153   4.901   6.368
11681TIP3    H234987   7.176   5.040   6.316
11682TIP3   OH234988   7.152   5.243   6.100
11682TIP3    H134989   7.095   5.297   6.041
11682TIP3    H234990   7.239   5.261   6.060
11683TIP3   OH234991   6.380   4.804   6.532
11683TIP3    H134992   6.312   4.735   6.546
11683TIP3    H234993   6.411   4.781   6.442
11684TIP3   OH234994   6.634   4.248   6.176
11684TIP3    H134995   6.584   4.329   6.152
11684TIP3    H234996   6.565   4.179   6.164
11685TIP3   OH234997   6.759   4.749   6.389
11685TIP3    H134998   6.741   4.733   6.483
11685TIP3    H234999   6.670   4.727   6.352
11686TIP3   OH235000   6.998   4.705   6.246
11686TIP3    H135001   6.923   4.703   6.308
11686TIP3    H235002   7.072   4.673   6.302
11687TIP3   OH235003   7.230   4.645   6.393
11687TIP3    H135004   7.242   4.549   6.408
11687TIP3    H235005   7.224   4.680   6.485
11688TIP3   OH235006   6.216   4.585   6.586
11688TIP3    H135007   6.219   4.494   6.552
11688TIP3    H235008   6.255   4.573   6.675
11689TIP3   OH235009   6.725   4.258   6.435
11689TIP3    H135010   6.791   4.186   6.427
11689TIP3    H235011   6.686   4.254   6.345
11690TIP3   OH235012   6.794   4.473   6.591
11690TIP3    H135013   6.773   4.401   6.527
11690TIP3    H235014   6.716   4.531   6.583
11691TIP3   OH235015   6.020   5.706   4.692
11691TIP3    H135016   6.114   5.694   4.672
11691TIP3    H235017   5.992   5.756   4.613
11692TIP3   OH235018   5.496   5.089   4.899
11692TIP3    H135019   5.591   5.110   4.887
11692TIP3    H235020   5.492   4.999   4.860
11693TIP3   OH235021   5.418   5.690   5.316
11693TIP3    H135022   5.348   5.629   5.283
11693TIP3    H235023   5.461   5.632   5.383
11694TIP3   OH235024   5.565   5.538   5.496
11694TIP3    H135025   5.542   5.468   5.560
11694TIP3    H235026   5.608   5.601   5.557
11695TIP3   OH235027   7.274   5.956   5.307
11695TIP3    H135028   7.328   5.963   5.388
11695TIP3    H235029   7.340   5.968   5.237
11696TIP3   OH235030   7.338   5.944   5.594
11696TIP3    H135031   7.268   5.877   5.578
11696TIP3    H235032   7.386   5.895   5.664
11697TIP3   OH235033   7.348   5.647   6.163
11697TIP3    H135034   7.276   5.656   6.229
11697TIP3    H235035   7.392   5.734   6.171
11698TIP3   OH235036   7.167   5.154   4.780
11698TIP3    H135037   7.232   5.220   4.750
11698TIP3    H235038   7.212   5.118   4.860
11699TIP3   OH235039   7.294   5.023   4.987
11699TIP3    H135040   7.226   4.981   5.043
11699TIP3    H235041   7.357   5.059   5.052
11700TIP3   OH235042   7.354   5.420   5.419
11700TIP3    H135043   7.404   5.348   5.375
11700TIP3    H235044   7.342   5.484   5.346
11701TIP3   OH235045   7.175   5.722   5.606
11701TIP3    H135046   7.101   5.755   5.661
11701TIP3    H235047   7.126   5.673   5.536
11702TIP3   OH235048   7.231   4.932   4.631
11702TIP3    H135049   7.160   4.935   4.562
11702TIP3    H235050   7.203   5.007   4.686
11703TIP3   OH235051   7.118   4.610   4.573
11703TIP3    H135052   7.039   4.660   4.547
11703TIP3    H235053   7.086   4.516   4.569
11704TIP3   OH235054   7.105   4.883   5.129
11704TIP3    H135055   7.111   4.786   5.122
11704TIP3    H235056   7.089   4.895   5.226
11705TIP3   OH235057   5.730   4.953   5.879
11705TIP3    H135058   5.727   4.918   5.788
11705TIP3    H235059   5.827   4.955   5.894
11706TIP3   OH235060   7.398   5.307   5.990
11706TIP3    H135061   7.467   5.238   5.978
11706TIP3    H235062   7.418   5.369   5.918
11707TIP3   OH235063   7.578   5.106   5.994
11707TIP3    H135064   7.503   5.057   6.034
11707TIP3    H235065   7.651   5.043   6.013
11708TIP3   OH235066   7.037   4.351   4.563
11708TIP3    H135067   7.111   4.311   4.612
11708TIP3    H235068   6.964   4.287   4.576
11709TIP3   OH235069   7.104   4.600   5.021
11709TIP3    H135070   7.144   4.511   5.035
11709TIP3    H235071   7.163   4.634   4.951
11710TIP3   OH235072   7.262   4.763   5.521
11710TIP3    H135073   7.347   4.789   5.479
11710TIP3    H235074   7.275   4.802   5.609
11711TIP3   OH235075   7.336   4.915   5.749
11711TIP3    H135076   7.258   4.947   5.798
11711TIP3    H235077   7.367   4.997   5.705
11712TIP3   OH235078   5.950   4.639   6.553
11712TIP3    H135079   6.047   4.633   6.557
11712TIP3    H235080   5.926   4.551   6.590
11713TIP3   OH235081   7.784   4.510   6.305
11713TIP3    H135082   7.845   4.445   6.264
11713TIP3    H235083   7.754   4.561   6.227
11714TIP3   OH235084   7.212   4.349   5.060
11714TIP3    H135085   7.259   4.332   5.145
11714TIP3    H235086   7.150   4.273   5.059
11715TIP3   OH235087   5.911   4.335   5.888
11715TIP3    H135088   5.973   4.260   5.892
11715TIP3    H235089   5.973   4.409   5.874
11716TIP3   OH235090   5.709   4.605   5.954
11716TIP3    H135091   5.760   4.600   5.870
11716TIP3    H235092   5.741   4.689   5.990
11717TIP3   OH235093   7.652   4.643   6.107
11717TIP3    H135094   7.566   4.686   6.124
11717TIP3    H235095   7.622   4.568   6.051
11718TIP3   OH235096   7.283   4.280   4.692
11718TIP3    H135097   7.328   4.212   4.638
11718TIP3    H235098   7.350   4.352   4.695
11719TIP3   OH235099   5.697   4.103   5.453
11719TIP3    H135100   5.606   4.102   5.485
11719TIP3    H235101   5.691   4.165   5.377
11720TIP3   OH235102   6.862   5.819   4.966
11720TIP3    H135103   6.902   5.797   4.879
11720TIP3    H235104   6.925   5.885   4.998
11721TIP3   OH235105   5.918   4.188   6.270
11721TIP3    H135106   5.866   4.186   6.352
11721TIP3    H235107   5.853   4.227   6.208
11722TIP3   OH235108   5.956   5.623   6.346
11722TIP3    H135109   5.864   5.597   6.328
11722TIP3    H235110   5.966   5.597   6.438
11723TIP3   OH235111   6.137   5.659   5.898
11723TIP3    H135112   6.091   5.735   5.857
11723TIP3    H235113   6.222   5.668   5.851
11724TIP3   OH235114   6.576   5.895   6.035
11724TIP3    H135115   6.620   5.892   6.122
11724TIP3    H235116   6.641   5.946   5.982
11725TIP3   OH235117   6.754   6.050   5.896
11725TIP3    H135118   6.820   5.994   5.852
11725TIP3    H235119   6.811   6.105   5.954
11726TIP3   OH235120   7.554   4.405   5.992
11726TIP3    H135121   7.464   4.393   5.956
11726TIP3    H235122   7.589   4.313   5.983
11727TIP3   OH235123   5.810   5.908   5.918
11727TIP3    H135124   5.719   5.940   5.897
11727TIP3    H235125   5.824   5.952   6.003
11728TIP3   OH235126   6.049   5.892   5.781
11728TIP3    H135127   5.960   5.901   5.822
11728TIP3    H235128   6.030   5.919   5.688
11729TIP3   OH235129   6.471   5.911   5.577
11729TIP3    H135130   6.401   5.925   5.510
11729TIP3    H235131   6.481   6.000   5.616
11730TIP3   OH235132   6.740   5.861   5.630
11730TIP3    H135133   6.644   5.867   5.611
11730TIP3    H235134   6.776   5.929   5.571
11731TIP3   OH235135   6.965   6.044   5.538
11731TIP3    H135136   6.945   6.124   5.487
11731TIP3    H235137   6.982   5.979   5.467
11732TIP3   OH235138   5.722   5.699   5.662
11732TIP3    H135139   5.747   5.670   5.752
11732TIP3    H235140   5.798   5.659   5.613
11733TIP3   OH235141   5.921   5.578   5.528
11733TIP3    H135142   5.936   5.488   5.564
11733TIP3    H235143   6.013   5.604   5.510
11734TIP3   OH235144   6.192   5.664   5.520
11734TIP3    H135145   6.209   5.567   5.506
11734TIP3    H235146   6.239   5.675   5.604
11735TIP3   OH235147   6.766   4.324   5.622
11735TIP3    H135148   6.720   4.252   5.667
11735TIP3    H235149   6.836   4.277   5.572
11736TIP3   OH235150   7.277   4.202   5.513
11736TIP3    H135151   7.314   4.256   5.439
11736TIP3    H235152   7.182   4.224   5.508
11737TIP3   OH235153   7.375   4.300   5.277
11737TIP3    H135154   7.450   4.249   5.240
11737TIP3    H235155   7.409   4.392   5.264
11738TIP3   OH235156   6.006   4.028   5.626
11738TIP3    H135157   5.913   3.996   5.629
11738TIP3    H235158   6.054   3.943   5.621
11739TIP3   OH235159   5.797   3.902   5.276
11739TIP3    H135160   5.827   3.959   5.203
11739TIP3    H235161   5.769   3.969   5.343
11740TIP3   OH235162   6.456   4.059   5.508
11740TIP3    H135163   6.509   4.108   5.444
11740TIP3    H235164   6.478   4.104   5.591
11741TIP3   OH235165   6.995   4.210   5.489
11741TIP3    H135166   6.994   4.170   5.402
11741TIP3    H235167   6.984   4.132   5.548
11742TIP3   OH235168   7.028   4.137   5.055
11742TIP3    H135169   6.944   4.182   5.074
11742TIP3    H235170   7.013   4.050   5.098
11743TIP3   OH235171   5.915   4.057   5.039
11743TIP3    H135172   5.962   3.996   4.979
11743TIP3    H235173   5.988   4.113   5.073
11744TIP3   OH235174   6.422   4.237   5.136
11744TIP3    H135175   6.484   4.193   5.198
11744TIP3    H235176   6.439   4.330   5.160
11745TIP3   OH235177   6.284   5.656   4.637
11745TIP3    H135178   6.371   5.679   4.600
11745TIP3    H235179   6.261   5.582   4.577
11746TIP3   OH235180   7.002   5.778   4.734
11746TIP3    H135181   6.997   5.680   4.721
11746TIP3    H235182   6.954   5.809   4.654
11747TIP3   OH235183   6.213   4.310   6.519
11747TIP3    H135184   6.179   4.239   6.575
11747TIP3    H235185   6.308   4.310   6.546
11748TIP3   OH235186   6.464   4.310   6.637
11748TIP3    H135187   6.549   4.285   6.596
11748TIP3    H235188   6.453   4.239   6.703
11749TIP3   OH235189   7.292   4.374   6.423
11749TIP3    H135190   7.309   4.343   6.515
11749TIP3    H235191   7.382   4.369   6.384
11750TIP3   OH235192   7.227   5.924   5.912
11750TIP3    H135193   7.146   5.892   5.866
11750TIP3    H235194   7.202   6.017   5.929
11751TIP3   OH235195   8.489   5.302   4.691
11751TIP3    H135196   8.459   5.391   4.661
11751TIP3    H235197   8.422   5.246   4.647
11752TIP3   OH235198   8.477   5.285   5.082
11752TIP3    H135199   8.510   5.204   5.128
11752TIP3    H235200   8.436   5.243   5.005
11753TIP3   OH235201   7.790   5.187   5.430
11753TIP3    H135202   7.818   5.118   5.493
11753TIP3    H235203   7.872   5.236   5.418
11754TIP3   OH235204   8.738   5.597   4.738
11754TIP3    H135205   8.731   5.551   4.822
11754TIP3    H235206   8.768   5.686   4.765
11755TIP3   OH235207   7.765   5.605   5.157
11755TIP3    H135208   7.759   5.507   5.155
11755TIP3    H235209   7.861   5.614   5.139
11756TIP3   OH235210   7.473   4.803   4.934
11756TIP3    H135211   7.423   4.885   4.953
11756TIP3    H235212   7.403   4.751   4.891
11757TIP3   OH235213   7.530   5.091   5.118
11757TIP3    H135214   7.580   5.012   5.149
11757TIP3    H235215   7.585   5.119   5.043
11758TIP3   OH235216   8.390   6.057   4.766
11758TIP3    H135217   8.429   5.988   4.709
11758TIP3    H235218   8.387   6.013   4.852
11759TIP3   OH235219   8.280   5.531   5.109
11759TIP3    H135220   8.331   5.452   5.084
11759TIP3    H235221   8.340   5.603   5.084
11760TIP3   OH235222   8.673   5.066   5.155
11760TIP3    H135223   8.694   4.977   5.189
11760TIP3    H235224   8.649   5.041   5.064
11761TIP3   OH235225   8.042   4.683   5.110
11761TIP3    H135226   8.030   4.754   5.044
11761TIP3    H235227   7.996   4.609   5.064
11762TIP3   OH235228   8.739   4.776   4.747
11762TIP3    H135229   8.804   4.713   4.782
11762TIP3    H235230   8.789   4.810   4.671
11763TIP3   OH235231   7.678   4.883   5.216
11763TIP3    H135232   7.761   4.864   5.264
11763TIP3    H235233   7.691   4.828   5.136
11764TIP3   OH235234   8.118   5.081   5.017
11764TIP3    H135235   8.211   5.053   5.030
11764TIP3    H235236   8.079   4.998   4.982
11765TIP3   OH235237   8.040   4.666   5.544
11765TIP3    H135238   7.981   4.702   5.475
11765TIP3    H235239   7.986   4.684   5.624
11766TIP3   OH235240   8.384   5.520   4.550
11766TIP3    H135241   8.326   5.499   4.476
11766TIP3    H235242   8.341   5.602   4.583
11767TIP3   OH235243   8.148   5.441   5.333
11767TIP3    H135244   8.085   5.508   5.370
11767TIP3    H235245   8.186   5.490   5.257
11768TIP3   OH235246   7.913   4.782   5.327
11768TIP3    H135247   7.977   4.853   5.350
11768TIP3    H235248   7.960   4.741   5.251
11769TIP3   OH235249   7.976   5.637   5.435
11769TIP3    H135250   7.949   5.722   5.394
11769TIP3    H235251   7.897   5.619   5.490
11770TIP3   OH235252   7.364   5.329   4.670
11770TIP3    H135253   7.324   5.353   4.585
11770TIP3    H235254   7.396   5.415   4.703
11771TIP3   OH235255   8.799   5.844   4.844
11771TIP3    H135256   8.785   5.803   4.933
11771TIP3    H235257   8.774   5.937   4.860
11772TIP3   OH235258   8.380   4.373   5.259
11772TIP3    H135259   8.363   4.279   5.279
11772TIP3    H235260   8.304   4.416   5.304
11773TIP3   OH235261   8.502   5.887   4.578
11773TIP3    H135262   8.554   5.806   4.558
11773TIP3    H235263   8.564   5.954   4.542
11774TIP3   OH235264   8.641   5.666   4.493
11774TIP3    H135265   8.579   5.593   4.482
11774TIP3    H235266   8.690   5.639   4.574
11775TIP3   OH235267   9.072   5.744   5.280
11775TIP3    H135268   9.027   5.672   5.232
11775TIP3    H235269   9.040   5.821   5.231
11776TIP3   OH235270   8.332   5.153   4.518
11776TIP3    H135271   8.249   5.200   4.497
11776TIP3    H235272   8.364   5.127   4.429
11777TIP3   OH235273   8.278   4.935   4.247
11777TIP3    H135274   8.368   4.965   4.264
11777TIP3    H235275   8.291   4.879   4.167
11778TIP3   OH235276   8.663   5.232   4.487
11778TIP3    H135277   8.611   5.259   4.566
11778TIP3    H235278   8.737   5.185   4.530
11779TIP3   OH235279   8.857   5.273   5.377
11779TIP3    H135280   8.948   5.301   5.354
11779TIP3    H235281   8.830   5.229   5.294
11780TIP3   OH235282   7.907   5.228   4.903
11780TIP3    H135283   7.863   5.170   4.837
11780TIP3    H235284   7.981   5.171   4.933
11781TIP3   OH235285   8.022   5.639   5.048
11781TIP3    H135286   8.004   5.609   4.957
11781TIP3    H235287   8.110   5.598   5.066
11782TIP3   OH235288   8.038   5.197   5.258
11782TIP3    H135289   8.070   5.169   5.170
11782TIP3    H235290   8.081   5.284   5.270
11783TIP3   OH235291   8.488   5.825   5.072
11783TIP3    H135292   8.499   5.922   5.087
11783TIP3    H235293   8.581   5.796   5.082
11784TIP3   OH235294   8.175   5.752   5.582
11784TIP3    H135295   8.112   5.813   5.626
11784TIP3    H235296   8.113   5.701   5.527
11785TIP3   OH235297   8.511   5.088   4.305
11785TIP3    H135298   8.567   5.149   4.359
11785TIP3    H235299   8.537   5.112   4.214
11786TIP3   OH235300   7.936   5.311   5.686
11786TIP3    H135301   7.939   5.399   5.729
11786TIP3    H235302   7.842   5.289   5.698
11787TIP3   OH235303   8.259   5.764   4.589
11787TIP3    H135304   8.342   5.816   4.591
11787TIP3    H235305   8.199   5.825   4.543
11788TIP3   OH235306   7.972   5.920   5.666
11788TIP3    H135307   7.939   5.921   5.574
11788TIP3    H235308   7.892   5.892   5.717
11789TIP3   OH235309   7.770   5.074   4.710
11789TIP3    H135310   7.700   5.114   4.654
11789TIP3    H235311   7.741   4.982   4.714
11790TIP3   OH235312   8.821   5.701   3.912
11790TIP3    H135313   8.821   5.787   3.870
11790TIP3    H235314   8.900   5.660   3.874
11791TIP3   OH235315   7.553   5.457   5.612
11791TIP3    H135316   7.484   5.436   5.547
11791TIP3    H235317   7.590   5.369   5.634
11792TIP3   OH235318   7.409   5.650   5.237
11792TIP3    H135319   7.503   5.631   5.226
11792TIP3    H235320   7.410   5.719   5.306
11793TIP3   OH235321   8.356   5.892   5.433
11793TIP3    H135322   8.399   5.942   5.503
11793TIP3    H235323   8.294   5.836   5.484
11794TIP3   OH235324   8.141   6.007   4.394
11794TIP3    H135325   8.098   5.990   4.308
11794TIP3    H235326   8.107   6.096   4.417
11795TIP3   OH235327   7.576   5.860   4.775
11795TIP3    H135328   7.621   5.849   4.862
11795TIP3    H235329   7.528   5.775   4.767
11796TIP3   OH235330   8.335   5.908   4.034
11796TIP3    H135331   8.395   5.844   3.991
11796TIP3    H235332   8.378   5.920   4.122
11797TIP3   OH235333   8.393   5.965   4.302
11797TIP3    H135334   8.305   5.972   4.345
11797TIP3    H235335   8.447   5.932   4.375
11798TIP3   OH235336   7.757   5.640   5.599
11798TIP3    H135337   7.806   5.622   5.682
11798TIP3    H235338   7.684   5.575   5.606
11799TIP3   OH235339   8.153   4.459   5.392
11799TIP3    H135340   8.065   4.430   5.360
11799TIP3    H235341   8.127   4.541   5.440
11800TIP3   OH235342   8.654   4.599   5.565
11800TIP3    H135343   8.722   4.557   5.622
11800TIP3    H235344   8.571   4.574   5.612
11801TIP3   OH235345   8.961   5.001   5.519
11801TIP3    H135346   8.901   4.998   5.598
11801TIP3    H235347   8.920   5.067   5.463
11802TIP3   OH235348   8.548   5.170   4.046
11802TIP3    H135349   8.539   5.116   3.963
11802TIP3    H235350   8.640   5.199   4.035
11803TIP3   OH235351   8.311   4.498   4.364
11803TIP3    H135352   8.272   4.499   4.453
11803TIP3    H235353   8.264   4.422   4.324
11804TIP3   OH235354   8.089   4.978   5.410
11804TIP3    H135355   8.035   4.996   5.490
11804TIP3    H235356   8.070   5.058   5.356
11805TIP3   OH235357   7.971   4.866   4.921
11805TIP3    H135358   7.879   4.837   4.940
11805TIP3    H235359   7.984   4.824   4.833
11806TIP3   OH235360   8.466   4.947   4.651
11806TIP3    H135361   8.416   5.017   4.604
11806TIP3    H235362   8.529   4.917   4.582
11807TIP3   OH235363   8.645   5.214   5.730
11807TIP3    H135364   8.598   5.141   5.777
11807TIP3    H235365   8.728   5.209   5.780
11808TIP3   OH235366   8.607   4.983   4.889
11808TIP3    H135367   8.547   4.991   4.811
11808TIP3    H235368   8.651   4.900   4.862
11809TIP3   OH235369   7.907   5.004   5.615
11809TIP3    H135370   7.934   5.064   5.686
11809TIP3    H235371   7.894   4.920   5.664
11810TIP3   OH235372   7.950   4.473   4.328
11810TIP3    H135373   7.941   4.480   4.425
11810TIP3    H235374   7.877   4.532   4.299
11811TIP3   OH235375   7.503   4.523   5.196
11811TIP3    H135376   7.576   4.558   5.251
11811TIP3    H235377   7.547   4.495   5.115
11812TIP3   OH235378   7.461   4.503   4.717
11812TIP3    H135379   7.510   4.541   4.640
11812TIP3    H235380   7.403   4.579   4.737
11813TIP3   OH235381   8.297   4.711   4.982
11813TIP3    H135382   8.226   4.692   5.046
11813TIP3    H235383   8.373   4.663   5.020
11814TIP3   OH235384   7.734   4.742   4.988
11814TIP3    H135385   7.641   4.748   4.958
11814TIP3    H235386   7.759   4.651   4.964
11815TIP3   OH235387   7.994   4.737   4.681
11815TIP3    H135388   8.089   4.749   4.663
11815TIP3    H235389   7.951   4.758   4.594
11816TIP3   OH235390   8.727   4.795   5.178
11816TIP3    H135391   8.710   4.789   5.274
11816TIP3    H235392   8.802   4.734   5.167
11817TIP3   OH235393   7.848   4.773   4.452
11817TIP3    H135394   7.782   4.725   4.399
11817TIP3    H235395   7.903   4.812   4.380
11818TIP3   OH235396   7.922   5.562   5.823
11818TIP3    H135397   7.998   5.595   5.874
11818TIP3    H235398   7.855   5.554   5.893
11819TIP3   OH235399   8.378   5.008   5.087
11819TIP3    H135400   8.442   4.963   5.029
11819TIP3    H235401   8.382   4.954   5.168
11820TIP3   OH235402   7.898   4.500   4.961
11820TIP3    H135403   7.864   4.422   5.010
11820TIP3    H235404   7.946   4.459   4.889
11821TIP3   OH235405   8.352   4.905   5.363
11821TIP3    H135406   8.262   4.940   5.380
11821TIP3    H235407   8.410   4.964   5.415
11822TIP3   OH235408   8.099   5.302   4.457
11822TIP3    H135409   8.027   5.237   4.445
11822TIP3    H235410   8.077   5.336   4.548
11823TIP3   OH235411   9.006   5.494   5.089
11823TIP3    H135412   9.041   5.540   5.012
11823TIP3    H235413   8.916   5.532   5.094
11824TIP3   OH235414   8.558   4.608   4.336
11824TIP3    H135415   8.465   4.574   4.345
11824TIP3    H235416   8.542   4.695   4.295
11825TIP3   OH235417   8.535   5.589   5.429
11825TIP3    H135418   8.525   5.573   5.524
11825TIP3    H235419   8.518   5.685   5.425
11826TIP3   OH235420   8.647   4.888   4.437
11826TIP3    H135421   8.737   4.912   4.412
11826TIP3    H235422   8.594   4.941   4.375
11827TIP3   OH235423   7.792   5.331   5.136
11827TIP3    H135424   7.828   5.299   5.050
11827TIP3    H235425   7.828   5.265   5.197
11828TIP3   OH235426   8.234   5.424   4.246
11828TIP3    H135427   8.190   5.513   4.249
11828TIP3    H235428   8.185   5.380   4.318
11829TIP3   OH235429   7.670   5.243   5.749
11829TIP3    H135430   7.688   5.226   5.843
11829TIP3    H235431   7.600   5.178   5.731
11830TIP3   OH235432   8.396   5.342   5.764
11830TIP3    H135433   8.331   5.286   5.719
11830TIP3    H235434   8.480   5.308   5.726
11831TIP3   OH235435   8.653   5.872   5.435
11831TIP3    H135436   8.595   5.914   5.369
11831TIP3    H235437   8.638   5.926   5.515
11832TIP3   OH235438   8.735   5.771   4.173
11832TIP3    H135439   8.772   5.729   4.252
11832TIP3    H235440   8.784   5.729   4.099
11833TIP3   OH235441   8.733   5.371   5.082
11833TIP3    H135442   8.645   5.340   5.053
11833TIP3    H235443   8.790   5.312   5.030
11834TIP3   OH235444   7.892   5.631   4.771
11834TIP3    H135445   7.890   5.711   4.713
11834TIP3    H235446   7.799   5.606   4.770
11835TIP3   OH235447   7.452   4.934   4.463
11835TIP3    H135448   7.498   5.017   4.487
11835TIP3    H235449   7.377   4.936   4.528
11836TIP3   OH235450   8.021   5.392   4.702
11836TIP3    H135451   7.989   5.481   4.725
11836TIP3    H235452   7.986   5.339   4.776
11837TIP3   OH235453   8.162   5.967   5.229
11837TIP3    H135454   8.203   6.036   5.174
11837TIP3    H235455   8.241   5.931   5.275
11838TIP3   OH235456   7.809   5.866   4.617
11838TIP3    H135457   7.722   5.877   4.660
11838TIP3    H235458   7.842   5.958   4.618
11839TIP3   OH235459   8.484   5.466   4.104
11839TIP3    H135460   8.557   5.450   4.169
11839TIP3    H235461   8.422   5.517   4.160
11840TIP3   OH235462   7.875   4.751   5.755
11840TIP3    H135463   7.778   4.752   5.766
11840TIP3    H235464   7.903   4.694   5.829
11841TIP3   OH235465   8.673   5.419   4.289
11841TIP3    H135466   8.669   5.354   4.363
11841TIP3    H235467   8.746   5.475   4.317
11842TIP3   OH235468   7.598   5.831   5.393
11842TIP3    H135469   7.640   5.746   5.414
11842TIP3    H235470   7.647   5.889   5.452
11843TIP3   OH235471   7.906   5.467   4.074
11843TIP3    H135472   7.904   5.373   4.049
11843TIP3    H235473   7.877   5.464   4.167
11844TIP3   OH235474   7.829   5.484   4.342
11844TIP3    H135475   7.904   5.457   4.397
11844TIP3    H235476   7.833   5.582   4.349
11845TIP3   OH235477   7.562   5.175   4.552
11845TIP3    H135478   7.495   5.220   4.607
11845TIP3    H235479   7.576   5.242   4.482
11846TIP3   OH235480   8.715   4.842   5.457
11846TIP3    H135481   8.809   4.844   5.479
11846TIP3    H235482   8.687   4.757   5.498
11847TIP3   OH235483   8.569   4.581   4.621
11847TIP3    H135484   8.574   4.589   4.524
11847TIP3    H235485   8.620   4.658   4.651
11848TIP3   OH235486   8.106   5.668   4.288
11848TIP3    H135487   8.021   5.694   4.327
11848TIP3    H235488   8.123   5.747   4.233
11849TIP3   OH235489   8.274   4.750   4.711
11849TIP3    H135490   8.345   4.815   4.693
11849TIP3    H235491   8.284   4.739   4.808
11850TIP3   OH235492   8.535   5.047   5.509
11850TIP3    H135493   8.576   5.087   5.588
11850TIP3    H235494   8.599   4.975   5.490
11851TIP3   OH235495   8.421   4.451   4.809
11851TIP3    H135496   8.454   4.500   4.888
11851TIP3    H235497   8.474   4.497   4.739
11852TIP3   OH235498   7.851   5.754   4.365
11852TIP3    H135499   7.820   5.823   4.302
11852TIP3    H235500   7.833   5.797   4.451
11853TIP3   OH235501   7.939   4.471   4.605
11853TIP3    H135502   7.937   4.562   4.642
11853TIP3    H235503   8.036   4.454   4.610
11854TIP3   OH235504   8.840   5.141   4.925
11854TIP3    H135505   8.757   5.099   4.893
11854TIP3    H235506   8.869   5.075   4.991
11855TIP3   OH235507   7.562   5.376   4.353
11855TIP3    H135508   7.629   5.446   4.360
11855TIP3    H235509   7.605   5.319   4.286
11856TIP3   OH235510   7.507   4.666   4.505
11856TIP3    H135511   7.510   4.763   4.494
11856TIP3    H235512   7.445   4.641   4.435
11857TIP3   OH235513   8.827   6.141   4.844
11857TIP3    H135514   8.782   6.183   4.767
11857TIP3    H235515   8.905   6.103   4.800
11858TIP3   OH235516   7.889   4.381   5.359
11858TIP3    H135517   7.860   4.346   5.272
11858TIP3    H235518   7.879   4.302   5.417
11859TIP3   OH235519   7.426   5.604   4.737
11859TIP3    H135520   7.360   5.629   4.803
11859TIP3    H235521   7.390   5.647   4.656
11860TIP3   OH235522   7.547   6.111   5.801
11860TIP3    H135523   7.634   6.127   5.846
11860TIP3    H235524   7.539   6.015   5.819
11861TIP3   OH235525   8.027   6.128   5.839
11861TIP3    H135526   8.116   6.161   5.820
11861TIP3    H235527   8.020   6.049   5.780
11862TIP3   OH235528   8.048   5.683   3.980
11862TIP3    H135529   7.998   5.607   4.018
11862TIP3    H235530   8.130   5.638   3.951
11863TIP3   OH235531   8.487   5.729   3.894
11863TIP3    H135532   8.563   5.702   3.946
11863TIP3    H235533   8.527   5.738   3.804
11864TIP3   OH235534   7.716   5.543   6.006
11864TIP3    H135535   7.731   5.447   6.018
11864TIP3    H235536   7.628   5.545   5.964
11865TIP3   OH235537   7.700   5.192   4.208
11865TIP3    H135538   7.756   5.163   4.282
11865TIP3    H235539   7.767   5.197   4.137
11866TIP3   OH235540   8.312   5.602   5.774
11866TIP3    H135541   8.270   5.611   5.687
11866TIP3    H235542   8.347   5.511   5.771
11867TIP3   OH235543   7.839   5.281   5.987
11867TIP3    H135544   7.915   5.226   5.965
11867TIP3    H235545   7.858   5.304   6.080
11868TIP3   OH235546   7.903   5.107   4.425
11868TIP3    H135547   7.876   5.063   4.506
11868TIP3    H235548   7.941   5.033   4.373
11869TIP3   OH235549   8.174   5.174   5.661
11869TIP3    H135550   8.092   5.228   5.662
11869TIP3    H235551   8.223   5.213   5.585
11870TIP3   OH235552   8.004   4.902   4.271
11870TIP3    H135553   7.986   4.897   4.175
11870TIP3    H235554   8.103   4.903   4.270
11871TIP3   OH235555   8.695   5.508   5.729
11871TIP3    H135556   8.747   5.591   5.740
11871TIP3    H235557   8.646   5.510   5.813
11872TIP3   OH235558   8.282   4.953   5.784
11872TIP3    H135559   8.292   4.877   5.723
11872TIP3    H235560   8.246   5.022   5.724
11873TIP3   OH235561   8.297   4.745   5.592
11873TIP3    H135562   8.327   4.783   5.507
11873TIP3    H235563   8.203   4.722   5.572
11874TIP3   OH235564   8.326   5.291   5.478
11874TIP3    H135565   8.382   5.241   5.416
11874TIP3    H235566   8.273   5.349   5.419
11875TIP3   OH235567   8.936   5.246   5.759
11875TIP3    H135568   8.946   5.155   5.786
11875TIP3    H235569   9.017   5.285   5.801
11876TIP3   OH235570   8.937   5.522   5.528
11876TIP3    H135571   8.940   5.620   5.521
11876TIP3    H235572   9.020   5.494   5.483
11877TIP3   OH235573   8.173   5.063   6.016
11877TIP3    H135574   8.107   4.994   6.035
11877TIP3    H235575   8.205   5.034   5.928
11878TIP3   OH235576   8.417   4.505   5.666
11878TIP3    H135577   8.365   4.585   5.643
11878TIP3    H235578   8.350   4.434   5.653
11879TIP3   OH235579   8.544   5.006   5.862
11879TIP3    H135580   8.564   4.986   5.956
11879TIP3    H235581   8.451   4.976   5.855
11880TIP3   OH235582   8.801   4.973   5.739
11880TIP3    H135583   8.719   4.961   5.790
11880TIP3    H235584   8.865   4.926   5.800
11881TIP3   OH235585   8.991   4.873   5.902
11881TIP3    H135586   9.065   4.819   5.929
11881TIP3    H235587   8.991   4.946   5.968
11882TIP3   OH235588   8.013   4.843   6.072
11882TIP3    H135589   8.017   4.751   6.038
11882TIP3    H235590   8.051   4.830   6.161
11883TIP3   OH235591   8.519   4.510   5.919
11883TIP3    H135592   8.578   4.433   5.914
11883TIP3    H235593   8.480   4.509   5.829
11884TIP3   OH235594   8.579   4.719   6.085
11884TIP3    H135595   8.560   4.651   6.016
11884TIP3    H235596   8.505   4.782   6.074
11885TIP3   OH235597   7.813   5.954   4.178
11885TIP3    H135598   7.909   5.949   4.160
11885TIP3    H235599   7.785   6.008   4.101
11886TIP3   OH235600   7.292   5.341   4.392
11886TIP3    H135601   7.387   5.361   4.375
11886TIP3    H235602   7.283   5.253   4.349
11887TIP3   OH235603   7.204   5.952   4.811
11887TIP3    H135604   7.141   5.890   4.767
11887TIP3    H235605   7.250   5.890   4.872
11888TIP3   OH235606   7.340   5.795   4.995
11888TIP3    H135607   7.329   5.724   5.060
11888TIP3    H235608   7.398   5.855   5.044
11889TIP3   OH235609   8.993   5.960   5.095
11889TIP3    H135610   8.925   6.002   5.149
11889TIP3    H235611   8.940   5.892   5.050
11890TIP3   OH235612   8.880   5.111   4.608
11890TIP3    H135613   8.965   5.062   4.617
11890TIP3    H235614   8.883   5.161   4.692
11891TIP3   OH235615   7.525   5.211   5.366
11891TIP3    H135616   7.522   5.175   5.275
11891TIP3    H235617   7.622   5.211   5.382
11892TIP3   OH235618   7.748   4.898   6.045
11892TIP3    H135619   7.846   4.890   6.046
11892TIP3    H235620   7.723   4.809   6.078
11893TIP3   OH235621   7.707   4.591   5.370
11893TIP3    H135622   7.768   4.514   5.377
11893TIP3    H235623   7.771   4.664   5.361
11894TIP3   OH235624   7.507   4.861   5.441
11894TIP3    H135625   7.556   4.856   5.356
11894TIP3    H235626   7.538   4.945   5.477
11895TIP3   OH235627   7.494   4.359   4.942
11895TIP3    H135628   7.402   4.357   4.975
11895TIP3    H235629   7.487   4.420   4.866
11896TIP3   OH235630   8.648   6.074   4.454
11896TIP3    H135631   8.697   6.059   4.370
11896TIP3    H235632   8.707   6.136   4.499
11897TIP3   OH235633   7.715   4.446   5.758
11897TIP3    H135634   7.662   4.441   5.839
11897TIP3    H235635   7.649   4.484   5.696
11898TIP3   OH235636   7.755   5.867   5.829
11898TIP3    H135637   7.666   5.831   5.815
11898TIP3    H235638   7.761   5.864   5.926
11899TIP3   OH235639   7.937   5.913   5.383
11899TIP3    H135640   7.893   5.989   5.340
11899TIP3    H235641   8.024   5.921   5.338
11900TIP3   OH235642   7.609   6.170   5.434
11900TIP3    H135643   7.540   6.219   5.385
11900TIP3    H235644   7.656   6.246   5.480
11901TIP3   OH235645   7.846   6.141   5.263
11901TIP3    H135646   7.755   6.146   5.297
11901TIP3    H235647   7.835   6.174   5.171
11902TIP3   OH235648   8.255   6.166   5.059
11902TIP3    H135649   8.193   6.183   4.986
11902TIP3    H235650   8.273   6.257   5.092
11903TIP3   OH235651   8.518   6.093   5.111
11903TIP3    H135652   8.430   6.126   5.085
11903TIP3    H235653   8.575   6.168   5.080
11904TIP3   OH235654   8.659   6.299   5.006
11904TIP3    H135655   8.700   6.387   5.010
11904TIP3    H235656   8.723   6.248   4.954
11905TIP3   OH235657   7.517   5.955   5.157
11905TIP3    H135658   7.549   5.922   5.245
11905TIP3    H235659   7.588   5.915   5.101
11906TIP3   OH235660   7.711   5.832   5.014
11906TIP3    H135661   7.728   5.747   5.061
11906TIP3    H235662   7.802   5.868   5.007
11907TIP3   OH235663   7.980   5.924   5.016
11907TIP3    H135664   8.009   5.832   5.000
11907TIP3    H235665   8.034   5.944   5.096
11908TIP3   OH235666   8.503   4.547   5.056
11908TIP3    H135667   8.490   4.491   5.134
11908TIP3    H235668   8.600   4.539   5.041
11909TIP3   OH235669   7.802   4.286   5.113
11909TIP3    H135670   7.710   4.253   5.117
11909TIP3    H235671   7.851   4.201   5.109
11910TIP3   OH235672   7.580   4.158   4.758
11910TIP3    H135673   7.619   4.213   4.687
11910TIP3    H235674   7.559   4.225   4.826
11911TIP3   OH235675   8.250   4.318   4.996
11911TIP3    H135676   8.300   4.363   4.926
11911TIP3    H235677   8.289   4.358   5.076
11912TIP3   OH235678   8.754   4.454   4.980
11912TIP3    H135679   8.790   4.433   4.893
11912TIP3    H235680   8.756   4.366   5.023
11913TIP3   OH235681   7.305   5.738   4.538
11913TIP3    H135682   7.218   5.707   4.506
11913TIP3    H235683   7.303   5.829   4.501
11914TIP3   OH235684   7.711   4.310   4.530
11914TIP3    H135685   7.758   4.252   4.468
11914TIP3    H235686   7.784   4.366   4.563
11915TIP3   OH235687   8.215   4.497   4.625
11915TIP3    H135688   8.278   4.452   4.685
11915TIP3    H235689   8.237   4.590   4.647
11916TIP3   OH235690   8.080   5.913   4.129
11916TIP3    H135691   8.169   5.936   4.092
11916TIP3    H235692   8.056   5.842   4.065
11917TIP3   OH235693   8.785   6.036   4.225
11917TIP3    H135694   8.773   5.941   4.206
11917TIP3    H235695   8.759   6.074   4.138
11918TIP3   OH235696   8.010   4.568   6.005
11918TIP3    H135697   7.974   4.497   6.062
11918TIP3    H235698   8.104   4.568   6.033
11919TIP3   OH235699   8.260   4.565   6.124
11919TIP3    H135700   8.346   4.542   6.086
11919TIP3    H235701   8.248   4.495   6.191
11920TIP3   OH235702   7.379   5.751   4.176
11920TIP3    H135703   7.385   5.780   4.268
11920TIP3    H235704   7.466   5.707   4.162
11921TIP3   OH235705   0.947   6.083   6.366
11921TIP3    H135706   0.916   6.175   6.377
11921TIP3    H235707   0.874   6.045   6.313
11922TIP3   OH235708   1.188   6.380   6.441
11922TIP3    H135709   1.159   6.324   6.516
11922TIP3    H235710   1.224   6.454   6.491
11923TIP3   OH235711   0.889   6.874   6.433
11923TIP3    H135712   0.938   6.793   6.410
11923TIP3    H235713   0.828   6.841   6.503
11924TIP3   OH235714   0.804   6.268   6.814
11924TIP3    H135715   0.792   6.204   6.743
11924TIP3    H235716   0.901   6.284   6.807
11925TIP3   OH235717   1.782   5.641   6.815
11925TIP3    H135718   1.768   5.735   6.792
11925TIP3    H235719   1.791   5.602   6.727
11926TIP3   OH235720   1.146   5.811   6.836
11926TIP3    H135721   1.194   5.729   6.852
11926TIP3    H235722   1.115   5.797   6.745
11927TIP3   OH235723   1.191   5.566   6.420
11927TIP3    H135724   1.262   5.554   6.487
11927TIP3    H235725   1.243   5.605   6.348
11928TIP3   OH235726   1.838   5.854   7.005
11928TIP3    H135727   1.796   5.917   6.943
11928TIP3    H235728   1.761   5.842   7.067
11929TIP3   OH235729   0.808   6.321   6.262
11929TIP3    H135730   0.777   6.288   6.174
11929TIP3    H235731   0.892   6.369   6.236
11930TIP3   OH235732   1.396   5.568   6.600
11930TIP3    H135733   1.375   5.529   6.685
11930TIP3    H235734   1.441   5.651   6.625
11931TIP3   OH235735   1.258   6.639   6.603
11931TIP3    H135736   1.167   6.619   6.636
11931TIP3    H235737   1.244   6.727   6.563
11932TIP3   OH235738   1.554   5.540   6.970
11932TIP3    H135739   1.464   5.554   6.935
11932TIP3    H235740   1.610   5.567   6.894
11933TIP3   OH235741   0.854   5.157   6.936
11933TIP3    H135742   0.842   5.063   6.958
11933TIP3    H235743   0.809   5.200   7.010
11934TIP3   OH235744   0.955   6.656   6.257
11934TIP3    H135745   1.001   6.570   6.241
11934TIP3    H235746   1.022   6.720   6.223
11935TIP3   OH235747   1.072   6.419   6.194
11935TIP3    H135748   1.110   6.357   6.129
11935TIP3    H235749   1.125   6.399   6.276
11936TIP3   OH235750   1.485   6.539   6.948
11936TIP3    H135751   1.472   6.461   6.889
11936TIP3    H235752   1.467   6.612   6.885
11937TIP3   OH235753   0.774   5.953   6.203
11937TIP3    H135754   0.695   5.898   6.228
11937TIP3    H235755   0.793   5.927   6.112
11938TIP3   OH235756   0.755   5.728   5.920
11938TIP3    H135757   0.831   5.779   5.957
11938TIP3    H235758   0.804   5.661   5.868
11939TIP3   OH235759   1.685   6.184   6.796
11939TIP3    H135760   1.598   6.231   6.798
11939TIP3    H235761   1.713   6.208   6.705
11940TIP3   OH235762   1.127   6.020   6.171
11940TIP3    H135763   1.074   6.041   6.252
11940TIP3    H235764   1.212   5.992   6.211
11941TIP3   OH235765   1.365   6.054   7.086
11941TIP3    H135766   1.359   6.140   7.132
11941TIP3    H235767   1.275   6.052   7.046
11942TIP3   OH235768   1.010   6.628   6.718
11942TIP3    H135769   1.006   6.700   6.783
11942TIP3    H235770   1.028   6.549   6.772
11943TIP3   OH235771   0.969   5.875   6.001
11943TIP3    H135772   1.021   5.939   6.055
11943TIP3    H235773   0.996   5.901   5.909
11944TIP3   OH235774   1.478   5.114   6.049
11944TIP3    H135775   1.398   5.138   6.100
11944TIP3    H235776   1.494   5.198   6.000
11945TIP3   OH235777   1.284   6.484   5.602
11945TIP3    H135778   1.292   6.580   5.582
11945TIP3    H235779   1.376   6.455   5.588
11946TIP3   OH235780   1.729   6.889   6.998
11946TIP3    H135781   1.724   6.792   7.011
11946TIP3    H235782   1.644   6.916   7.040
11947TIP3   OH235783   0.791   6.706   5.719
11947TIP3    H135784   0.851   6.635   5.687
11947TIP3    H235785   0.811   6.710   5.814
11948TIP3   OH235786   0.840   6.757   5.995
11948TIP3    H135787   0.778   6.757   6.071
11948TIP3    H235788   0.923   6.733   6.041
11949TIP3   OH235789   1.613   6.017   7.268
11949TIP3    H135790   1.529   6.035   7.221
11949TIP3    H235791   1.616   5.921   7.266
11950TIP3   OH235792   1.154   5.364   7.270
11950TIP3    H135793   1.223   5.337   7.334
11950TIP3    H235794   1.071   5.346   7.319
11951TIP3   OH235795   1.394   5.803   7.203
11951TIP3    H135796   1.334   5.795   7.280
11951TIP3    H235797   1.362   5.883   7.158
11952TIP3   OH235798   1.040   5.918   5.745
11952TIP3    H135799   1.005   5.897   5.656
11952TIP3    H235800   1.125   5.960   5.721
11953TIP3   OH235801   0.739   5.305   6.022
11953TIP3    H135802   0.727   5.305   6.120
11953TIP3    H235803   0.713   5.213   6.003
11954TIP3   OH235804   0.915   5.742   6.336
11954TIP3    H135805   0.872   5.820   6.297
11954TIP3    H235806   0.967   5.707   6.261
11955TIP3   OH235807   1.112   6.000   7.411
11955TIP3    H135808   1.088   5.929   7.474
11955TIP3    H235809   1.207   6.010   7.429
11956TIP3   OH235810   1.045   5.755   6.586
11956TIP3    H135811   1.000   5.794   6.509
11956TIP3    H235812   1.095   5.685   6.539
11957TIP3   OH235813   1.094   6.008   7.027
11957TIP3    H135814   1.107   5.961   6.941
11957TIP3    H235815   1.055   5.936   7.081
11958TIP3   OH235816   0.760   5.461   6.662
11958TIP3    H135817   0.670   5.494   6.678
11958TIP3    H235818   0.812   5.512   6.727
11959TIP3   OH235819   1.250   5.546   6.881
11959TIP3    H135820   1.212   5.565   6.969
11959TIP3    H235821   1.181   5.486   6.846
11960TIP3   OH235822   1.427   7.237   7.055
11960TIP3    H135823   1.415   7.250   6.958
11960TIP3    H235824   1.450   7.327   7.082
11961TIP3   OH235825   0.833   5.745   6.762
11961TIP3    H135826   0.908   5.759   6.700
11961TIP3    H235827   0.878   5.750   6.848
11962TIP3   OH235828   0.833   5.677   7.069
11962TIP3    H135829   0.772   5.751   7.050
11962TIP3    H235830   0.904   5.725   7.116
11963TIP3   OH235831   1.449   6.321   6.783
11963TIP3    H135832   1.464   6.372   6.702
11963TIP3    H235833   1.352   6.302   6.775
11964TIP3   OH235834   0.999   5.398   6.018
11964TIP3    H135835   0.902   5.384   6.023
11964TIP3    H235836   1.010   5.491   6.047
11965TIP3   OH235837   0.927   6.407   7.161
11965TIP3    H135838   0.977   6.410   7.243
11965TIP3    H235839   0.880   6.493   7.160
11966TIP3   OH235840   1.073   5.646   6.120
11966TIP3    H135841   1.169   5.652   6.139
11966TIP3    H235842   1.057   5.729   6.070
11967TIP3   OH235843   0.683   6.253   6.025
11967TIP3    H135844   0.610   6.304   5.986
11967TIP3    H235845   0.646   6.164   6.025
11968TIP3   OH235846   0.895   6.123   7.527
11968TIP3    H135847   0.840   6.063   7.475
11968TIP3    H235848   0.983   6.104   7.489
11969TIP3   OH235849   1.087   6.703   7.017
11969TIP3    H135850   1.014   6.650   7.051
11969TIP3    H235851   1.130   6.728   7.102
11970TIP3   OH235852   1.512   5.743   5.954
11970TIP3    H135853   1.451   5.699   5.891
11970TIP3    H235854   1.510   5.833   5.915
11971TIP3   OH235855   1.736   6.601   7.033
11971TIP3    H135856   1.638   6.594   7.024
11971TIP3    H235857   1.763   6.570   6.944
11972TIP3   OH235858   1.216   6.556   5.864
11972TIP3    H135859   1.189   6.477   5.913
11972TIP3    H235860   1.231   6.520   5.774
11973TIP3   OH235861   0.977   6.287   5.758
11973TIP3    H135862   1.013   6.265   5.846
11973TIP3    H235863   0.888   6.245   5.760
11974TIP3   OH235864   1.250   6.913   6.928
11974TIP3    H135865   1.175   6.850   6.931
11974TIP3    H235866   1.222   6.979   6.860
11975TIP3   OH235867   1.313   6.758   5.580
11975TIP3    H135868   1.350   6.832   5.529
11975TIP3    H235869   1.233   6.802   5.616
11976TIP3   OH235870   1.141   6.232   5.996
11976TIP3    H135871   1.128   6.156   6.056
11976TIP3    H235872   1.236   6.219   5.973
11977TIP3   OH235873   1.174   5.606   7.141
11977TIP3    H135874   1.259   5.636   7.178
11977TIP3    H235875   1.160   5.522   7.189
11978TIP3   OH235876   1.061   5.344   6.305
11978TIP3    H135877   1.037   5.369   6.214
11978TIP3    H235878   1.097   5.429   6.341
11979TIP3   OH235879   0.732   5.545   6.399
11979TIP3    H135880   0.800   5.614   6.386
11979TIP3    H235881   0.740   5.527   6.495
11980TIP3   OH235882   1.010   5.827   7.214
11980TIP3    H135883   1.044   5.889   7.282
11980TIP3    H235884   1.074   5.754   7.218
11981TIP3   OH235885   0.886   5.250   6.514
11981TIP3    H135886   0.860   5.331   6.562
11981TIP3    H235887   0.942   5.287   6.443
11982TIP3   OH235888   1.647   5.723   7.153
11982TIP3    H135889   1.560   5.749   7.192
11982TIP3    H235890   1.611   5.658   7.089
11983TIP3   OH235891   1.310   5.912   6.551
11983TIP3    H135892   1.237   5.947   6.604
11983TIP3    H235893   1.372   5.880   6.619
11984TIP3   OH235894   1.269   6.904   6.527
11984TIP3    H135895   1.230   6.951   6.450
11984TIP3    H235896   1.364   6.919   6.506
11985TIP3   OH235897   1.164   6.786   7.264
11985TIP3    H135898   1.148   6.731   7.344
11985TIP3    H235899   1.236   6.844   7.293
11986TIP3   OH235900   0.940   6.511   5.592
11986TIP3    H135901   0.974   6.439   5.649
11986TIP3    H235902   0.994   6.502   5.511
11987TIP3   OH235903   0.703   6.182   5.712
11987TIP3    H135904   0.618   6.201   5.756
11987TIP3    H235905   0.687   6.087   5.692
11988TIP3   OH235906   1.268   6.440   7.106
11988TIP3    H135907   1.335   6.486   7.052
11988TIP3    H235908   1.193   6.436   7.046
11989TIP3   OH235909   0.495   5.702   6.019
11989TIP3    H135910   0.475   5.690   5.923
11989TIP3    H235911   0.592   5.705   6.013
11990TIP3   OH235912   1.133   6.366   7.487
11990TIP3    H135913   1.200   6.335   7.424
11990TIP3    H235914   1.134   6.293   7.552
11991TIP3   OH235915   1.273   6.011   5.629
11991TIP3    H135916   1.255   5.969   5.543
11991TIP3    H235917   1.242   6.103   5.608
11992TIP3   OH235918   0.708   5.475   7.204
11992TIP3    H135919   0.762   5.539   7.149
11992TIP3    H235920   0.668   5.540   7.268
11993TIP3   OH235921   0.838   6.122   7.100
11993TIP3    H135922   0.935   6.103   7.081
11993TIP3    H235923   0.835   6.210   7.050
11994TIP3   OH235924   1.373   6.019   7.519
11994TIP3    H135925   1.428   5.941   7.537
11994TIP3    H235926   1.438   6.081   7.481
11995TIP3   OH235927   1.403   6.276   7.267
11995TIP3    H135928   1.345   6.337   7.216
11995TIP3    H235929   1.490   6.300   7.228
11996TIP3   OH235930   0.892   5.294   7.336
11996TIP3    H135931   0.831   5.364   7.304
11996TIP3    H235932   0.837   5.216   7.326
11997TIP3   OH235933   1.021   5.798   7.574
11997TIP3    H135934   1.053   5.792   7.666
11997TIP3    H235935   0.937   5.751   7.579
11998TIP3   OH235936   1.250   5.737   7.421
11998TIP3    H135937   1.177   5.739   7.485
11998TIP3    H235938   1.326   5.712   7.477
11999TIP3   OH235939   1.482   5.690   7.570
11999TIP3    H135940   1.493   5.594   7.586
11999TIP3    H235941   1.475   5.726   7.661
12000TIP3   OH235942   0.987   5.311   7.594
12000TIP3    H135943   1.044   5.232   7.597
12000TIP3    H235944   0.945   5.301   7.507
12001TIP3   OH235945   1.059   5.524   7.744
12001TIP3    H135946   1.042   5.444   7.690
12001TIP3    H235947   0.968   5.561   7.750
12002TIP3   OH235948   1.525   6.987   6.484
12002TIP3    H135949   1.550   7.021   6.572
12002TIP3    H235950   1.589   7.031   6.426
12003TIP3   OH235951   1.550   7.007   6.763
12003TIP3    H135952   1.510   6.917   6.764
12003TIP3    H235953   1.628   6.991   6.818
12004TIP3   OH235954   1.610   6.690   7.336
12004TIP3    H135955   1.528   6.708   7.388
12004TIP3    H235956   1.651   6.778   7.333
12005TIP3   OH235957   1.414   6.200   5.956
12005TIP3    H135958   1.479   6.266   5.924
12005TIP3    H235959   1.460   6.164   6.034
12006TIP3   OH235960   1.545   6.071   6.158
12006TIP3    H135961   1.477   6.025   6.213
12006TIP3    H235962   1.608   6.105   6.225
12007TIP3   OH235963   1.606   6.467   6.596
12007TIP3    H135964   1.650   6.395   6.546
12007TIP3    H235965   1.596   6.536   6.528
12008TIP3   OH235966   1.429   6.757   6.787
12008TIP3    H135967   1.358   6.802   6.836
12008TIP3    H235968   1.379   6.713   6.715
12009TIP3   OH235969   1.478   5.976   5.807
12009TIP3    H135970   1.406   5.978   5.740
12009TIP3    H235971   1.451   6.053   5.862
12010TIP3   OH235972   1.349   5.647   5.758
12010TIP3    H135973   1.302   5.683   5.682
12010TIP3    H235974   1.328   5.552   5.750
12011TIP3   OH235975   1.356   5.919   6.286
12011TIP3    H135976   1.360   5.823   6.274
12011TIP3    H235977   1.341   5.925   6.384
12012TIP3   OH235978   1.646   6.350   7.167
12012TIP3    H135979   1.714   6.283   7.146
12012TIP3    H235980   1.660   6.417   7.098
12013TIP3   OH235981   1.828   6.148   7.160
12013TIP3    H135982   1.758   6.094   7.204
12013TIP3    H235983   1.908   6.122   7.209
12014TIP3   OH235984   1.294   5.380   5.739
12014TIP3    H135985   1.366   5.350   5.798
12014TIP3    H235986   1.219   5.324   5.764
12015TIP3   OH235987   1.351   5.642   6.194
12015TIP3    H135988   1.391   5.554   6.212
12015TIP3    H235989   1.410   5.673   6.123
12016TIP3   OH235990   1.520   5.801   6.708
12016TIP3    H135991   1.599   5.833   6.661
12016TIP3    H235992   1.529   5.851   6.792
12017TIP3   OH235993   1.584   5.962   6.923
12017TIP3    H135994   1.507   5.995   6.974
12017TIP3    H235995   1.616   6.045   6.882
12018TIP3   OH235996   2.024   5.552   7.467
12018TIP3    H135997   2.077   5.472   7.443
12018TIP3    H235998   2.062   5.615   7.405
12019TIP3   OH235999   1.462   5.393   6.237
12019TIP3    H136000   1.507   5.379   6.322
12019TIP3    H236001   1.400   5.317   6.236
12020TIP3   OH236002   1.535   5.324   5.874
12020TIP3    H136003   1.578   5.254   5.820
12020TIP3    H236004   1.602   5.395   5.872
12021TIP3   OH236005   1.105   6.845   6.139
12021TIP3    H136006   1.161   6.845   6.058
12021TIP3    H236007   1.145   6.917   6.190
12022TIP3   OH236008   0.989   7.056   7.066
12022TIP3    H136009   1.050   6.982   7.050
12022TIP3    H236010   1.050   7.132   7.063
12023TIP3   OH236011   1.817   5.453   7.144
12023TIP3    H136012   1.722   5.434   7.130
12023TIP3    H236013   1.853   5.361   7.146
12024TIP3   OH236014   0.977   6.913   6.793
12024TIP3    H136015   0.907   6.978   6.771
12024TIP3    H236016   1.053   6.963   6.760
12025TIP3   OH236017   1.190   7.083   6.715
12025TIP3    H136018   1.175   7.165   6.665
12025TIP3    H236019   1.222   7.022   6.644
12026TIP3   OH236020   1.036   5.369   6.811
12026TIP3    H136021   0.971   5.299   6.831
12026TIP3    H236022   1.093   5.327   6.744
12027TIP3   OH236023   1.524   5.254   6.695
12027TIP3    H136024   1.560   5.303   6.617
12027TIP3    H236025   1.428   5.269   6.684
12028TIP3   OH236026   1.619   5.351   6.459
12028TIP3    H136027   1.691   5.295   6.421
12028TIP3    H236028   1.657   5.440   6.443
12029TIP3   OH236029   0.722   5.098   6.690
12029TIP3    H136030   0.762   5.151   6.619
12029TIP3    H236031   0.766   5.135   6.768
12030TIP3   OH236032   1.245   5.253   6.664
12030TIP3    H136033   1.240   5.213   6.576
12030TIP3    H236034   1.232   5.175   6.722
12031TIP3   OH236035   1.277   5.182   6.231
12031TIP3    H136036   1.195   5.230   6.253
12031TIP3    H236037   1.260   5.095   6.274
12032TIP3   OH236038   0.718   5.293   6.289
12032TIP3    H136039   0.728   5.244   6.371
12032TIP3    H236040   0.707   5.384   6.322
12033TIP3   OH236041   1.251   6.824   5.908
12033TIP3    H136042   1.243   6.727   5.895
12033TIP3    H236043   1.208   6.857   5.826
12034TIP3   OH236044   1.540   5.419   7.600
12034TIP3    H136045   1.559   5.389   7.692
12034TIP3    H236046   1.629   5.412   7.559
12035TIP3   OH236047   1.476   6.966   7.086
12035TIP3    H136048   1.398   6.932   7.036
12035TIP3    H236049   1.463   7.063   7.073
12036TIP3   OH236050   2.744   6.342   5.855
12036TIP3    H136051   2.713   6.433   5.833
12036TIP3    H236052   2.668   6.290   5.823
12037TIP3   OH236053   2.745   6.341   6.245
12037TIP3    H136054   2.780   6.318   6.333
12037TIP3    H236055   2.702   6.259   6.218
12038TIP3   OH236056   2.039   6.244   6.601
12038TIP3    H136057   2.071   6.174   6.661
12038TIP3    H236058   2.123   6.289   6.581
12039TIP3   OH236059   2.990   6.645   5.925
12039TIP3    H136060   2.971   6.580   5.993
12039TIP3    H236061   3.020   6.722   5.978
12040TIP3   OH236062   2.016   6.647   6.326
12040TIP3    H136063   2.008   6.549   6.328
12040TIP3    H236064   2.113   6.656   6.318
12041TIP3   OH236065   1.721   5.847   6.109
12041TIP3    H136066   1.674   5.930   6.128
12041TIP3    H236067   1.649   5.796   6.067
12042TIP3   OH236068   1.779   6.133   6.293
12042TIP3    H136069   1.829   6.055   6.325
12042TIP3    H236070   1.838   6.171   6.227
12043TIP3   OH236071   2.638   7.109   5.936
12043TIP3    H136072   2.679   7.036   5.885
12043TIP3    H236073   2.625   7.068   6.023
12044TIP3   OH236074   2.539   6.567   6.289
12044TIP3    H136075   2.581   6.491   6.245
12044TIP3    H236076   2.621   6.615   6.316
12045TIP3   OH236077   3.559   5.885   6.288
12045TIP3    H136078   3.587   5.970   6.328
12045TIP3    H236079   3.579   5.902   6.194
12046TIP3   OH236080   2.956   6.066   6.317
12046TIP3    H136081   2.997   5.980   6.337
12046TIP3    H236082   2.921   6.049   6.227
12047TIP3   OH236083   2.306   5.731   6.278
12047TIP3    H136084   2.274   5.799   6.215
12047TIP3    H236085   2.252   5.654   6.250
12048TIP3   OH236086   2.990   5.820   5.904
12048TIP3    H136087   3.061   5.806   5.970
12048TIP3    H236088   3.043   5.855   5.829
12049TIP3   OH236089   1.924   5.924   6.396
12049TIP3    H136090   2.010   5.905   6.440
12049TIP3    H236091   1.938   5.871   6.314
12050TIP3   OH236092   2.363   6.126   6.192
12050TIP3    H136093   2.457   6.102   6.203
12050TIP3    H236094   2.325   6.042   6.158
12051TIP3   OH236095   3.631   6.097   6.457
12051TIP3    H136096   3.546   6.141   6.437
12051TIP3    H236097   3.650   6.131   6.546
12052TIP3   OH236098   2.282   5.735   6.746
12052TIP3    H136099   2.274   5.701   6.655
12052TIP3    H236100   2.215   5.680   6.789
12053TIP3   OH236101   2.631   6.561   5.725
12053TIP3    H136102   2.590   6.550   5.637
12053TIP3    H236103   2.586   6.644   5.755
12054TIP3   OH236104   2.395   6.487   6.510
12054TIP3    H136105   2.336   6.557   6.545
12054TIP3    H236106   2.439   6.533   6.436
12055TIP3   OH236107   3.192   5.826   6.086
12055TIP3    H136108   3.172   5.785   6.171
12055TIP3    H236109   3.243   5.905   6.113
12056TIP3   OH236110   2.161   5.823   6.494
12056TIP3    H136111   2.225   5.887   6.533
12056TIP3    H236112   2.219   5.781   6.426
12057TIP3   OH236113   2.227   6.685   6.611
12057TIP3    H136114   2.202   6.773   6.575
12057TIP3    H236115   2.147   6.667   6.664
12058TIP3   OH236116   1.612   6.372   5.847
12058TIP3    H136117   1.573   6.400   5.762
12058TIP3    H236118   1.644   6.458   5.882
12059TIP3   OH236119   3.056   6.889   6.086
12059TIP3    H136120   2.966   6.880   6.126
12059TIP3    H236121   3.047   6.976   6.041
12060TIP3   OH236122   3.350   5.784   6.452
12060TIP3    H136123   3.263   5.811   6.419
12060TIP3    H236124   3.410   5.817   6.382
12061TIP3   OH236125   2.640   5.423   6.444
12061TIP3    H136126   2.622   5.327   6.454
12061TIP3    H236127   2.555   5.459   6.475
12062TIP3   OH236128   2.754   6.931   5.758
12062TIP3    H136129   2.805   6.848   5.739
12062TIP3    H236130   2.818   6.996   5.720
12063TIP3   OH236131   2.901   6.715   5.673
12063TIP3    H136132   2.859   6.635   5.639
12063TIP3    H236133   2.940   6.683   5.757
12064TIP3   OH236134   3.281   6.797   6.432
12064TIP3    H136135   3.268   6.720   6.372
12064TIP3    H236136   3.262   6.873   6.373
12065TIP3   OH236137   2.574   6.192   5.693
12065TIP3    H136138   2.494   6.246   5.673
12065TIP3    H236139   2.619   6.191   5.607
12066TIP3   OH236140   2.531   5.982   5.401
12066TIP3    H136141   2.598   6.033   5.450
12066TIP3    H236142   2.590   5.919   5.354
12067TIP3   OH236143   3.477   6.439   6.280
12067TIP3    H136144   3.392   6.489   6.283
12067TIP3    H236145   3.507   6.462   6.190
12068TIP3   OH236146   2.922   6.276   5.659
12068TIP3    H136147   2.868   6.300   5.737
12068TIP3    H236148   3.007   6.252   5.703
12069TIP3   OH236149   3.155   6.312   6.579
12069TIP3    H136150   3.152   6.396   6.628
12069TIP3    H236151   3.069   6.315   6.533
12070TIP3   OH236152   2.153   6.271   6.079
12070TIP3    H136153   2.114   6.212   6.011
12070TIP3    H236154   2.229   6.217   6.110
12071TIP3   OH236155   2.283   6.683   6.225
12071TIP3    H136156   2.264   6.651   6.135
12071TIP3    H236157   2.372   6.646   6.243
12072TIP3   OH236158   2.284   6.246   6.434
12072TIP3    H136159   2.318   6.218   6.347
12072TIP3    H236160   2.331   6.330   6.450
12073TIP3   OH236161   2.817   6.882   6.211
12073TIP3    H136162   2.801   6.963   6.263
12073TIP3    H236163   2.798   6.811   6.275
12074TIP3   OH236164   2.430   6.800   6.759
12074TIP3    H136165   2.367   6.861   6.803
12074TIP3    H236166   2.366   6.747   6.706
12075TIP3   OH236167   2.759   6.134   5.488
12075TIP3    H136168   2.819   6.195   5.537
12075TIP3    H236169   2.786   6.154   5.395
12076TIP3   OH236170   2.186   6.349   6.873
12076TIP3    H136171   2.189   6.441   6.906
12076TIP3    H236172   2.090   6.333   6.876
12077TIP3   OH236173   2.510   6.808   5.764
12077TIP3    H136174   2.592   6.860   5.770
12077TIP3    H236175   2.447   6.872   5.727
12078TIP3   OH236176   2.223   6.965   6.845
12078TIP3    H136177   2.188   6.971   6.754
12078TIP3    H236178   2.143   6.941   6.896
12079TIP3   OH236179   3.277   5.371   5.538
12079TIP3    H136180   3.196   5.394   5.587
12079TIP3    H236181   3.292   5.453   5.487
12080TIP3   OH236182   2.022   6.116   5.878
12080TIP3    H136183   1.951   6.160   5.827
12080TIP3    H236184   1.983   6.029   5.895
12081TIP3   OH236185   3.078   6.738   5.086
12081TIP3    H136186   3.086   6.835   5.071
12081TIP3    H236187   3.171   6.710   5.073
12082TIP3   OH236188   1.799   6.502   6.791
12082TIP3    H136189   1.730   6.487   6.723
12082TIP3    H236190   1.837   6.412   6.803
12083TIP3   OH236191   1.656   6.695   6.418
12083TIP3    H136192   1.753   6.689   6.412
12083TIP3    H236193   1.646   6.772   6.476
12084TIP3   OH236194   3.521   7.148   6.482
12084TIP3    H136195   3.519   7.052   6.499
12084TIP3    H236196   3.437   7.175   6.527
12085TIP3   OH236197   2.626   6.927   6.616
12085TIP3    H136198   2.621   7.020   6.647
12085TIP3    H236199   2.554   6.887   6.669
12086TIP3   OH236200   2.384   7.068   5.554
12086TIP3    H136201   2.345   7.035   5.471
12086TIP3    H236202   2.336   7.150   5.566
12087TIP3   OH236203   1.826   6.904   5.952
12087TIP3    H136204   1.873   6.897   6.038
12087TIP3    H236205   1.774   6.822   5.952
12088TIP3   OH236206   2.587   6.959   5.204
12088TIP3    H136207   2.646   6.889   5.169
12088TIP3    H236208   2.621   6.972   5.295
12089TIP3   OH236209   2.638   7.010   5.472
12089TIP3    H136210   2.550   7.024   5.514
12089TIP3    H236211   2.689   6.975   5.547
12090TIP3   OH236212   3.407   6.273   6.757
12090TIP3    H136213   3.324   6.284   6.708
12090TIP3    H236214   3.423   6.177   6.746
12091TIP3   OH236215   2.006   6.680   6.772
12091TIP3    H136216   2.052   6.667   6.857
12091TIP3    H236217   1.930   6.619   6.780
12092TIP3   OH236218   2.939   5.619   6.760
12092TIP3    H136219   3.008   5.592   6.824
12092TIP3    H236220   2.856   5.600   6.808
12093TIP3   OH236221   3.175   6.050   6.678
12093TIP3    H136222   3.124   6.048   6.762
12093TIP3    H236223   3.152   6.137   6.640
12094TIP3   OH236224   2.837   6.172   5.232
12094TIP3    H136225   2.802   6.153   5.143
12094TIP3    H236226   2.921   6.216   5.209
12095TIP3   OH236227   2.549   5.552   5.537
12095TIP3    H136228   2.515   5.548   5.629
12095TIP3    H236229   2.508   5.470   5.501
12096TIP3   OH236230   2.342   6.022   6.582
12096TIP3    H136231   2.287   6.039   6.661
12096TIP3    H236232   2.321   6.101   6.528
12097TIP3   OH236233   2.217   5.910   6.093
12097TIP3    H136234   2.125   5.882   6.114
12097TIP3    H236235   2.228   5.867   6.005
12098TIP3   OH236236   2.710   5.992   5.827
12098TIP3    H136237   2.660   6.064   5.783
12098TIP3    H236238   2.766   5.958   5.754
12099TIP3   OH236239   2.886   6.266   6.909
12099TIP3    H136240   2.863   6.194   6.971
12099TIP3    H236241   2.980   6.280   6.931
12100TIP3   OH236242   2.867   6.018   6.062
12100TIP3    H136243   2.803   6.046   5.993
12100TIP3    H236244   2.902   5.939   6.016
12101TIP3   OH236245   2.153   6.070   6.780
12101TIP3    H136246   2.187   6.136   6.842
12101TIP3    H236247   2.122   5.999   6.838
12102TIP3   OH236248   2.206   5.528   5.500
12102TIP3    H136249   2.196   5.528   5.598
12102TIP3    H236250   2.129   5.582   5.474
12103TIP3   OH236251   1.757   5.569   6.378
12103TIP3    H136252   1.839   5.591   6.427
12103TIP3    H236253   1.790   5.532   6.294
12104TIP3   OH236254   1.709   5.549   5.887
12104TIP3    H136255   1.756   5.587   5.810
12104TIP3    H236256   1.650   5.624   5.908
12105TIP3   OH236257   2.879   6.263   6.483
12105TIP3    H136258   2.911   6.192   6.423
12105TIP3    H236259   2.846   6.209   6.558
12106TIP3   OH236260   2.556   5.724   6.155
12106TIP3    H136261   2.473   5.729   6.207
12106TIP3    H236262   2.623   5.722   6.226
12107TIP3   OH236263   1.982   5.786   6.163
12107TIP3    H136264   1.888   5.793   6.135
12107TIP3    H236265   2.004   5.693   6.145
12108TIP3   OH236266   2.246   5.777   5.856
12108TIP3    H136267   2.339   5.794   5.835
12108TIP3    H236268   2.199   5.801   5.773
12109TIP3   OH236269   3.040   5.804   6.361
12109TIP3    H136270   3.008   5.818   6.453
12109TIP3    H236271   2.970   5.744   6.328
12110TIP3   OH236272   2.099   5.815   5.630
12110TIP3    H136273   2.028   5.771   5.581
12110TIP3    H236274   2.151   5.854   5.557
12111TIP3   OH236275   3.215   7.493   6.583
12111TIP3    H136276   3.218   7.521   6.490
12111TIP3    H236277   3.294   7.540   6.619
12112TIP3   OH236278   2.168   6.600   7.000
12112TIP3    H136279   2.247   6.633   7.047
12112TIP3    H236280   2.101   6.607   7.072
12113TIP3   OH236281   2.629   6.060   6.256
12113TIP3    H136282   2.703   6.019   6.209
12113TIP3    H236283   2.631   6.015   6.343
12114TIP3   OH236284   2.154   5.543   6.140
12114TIP3    H136285   2.145   5.459   6.187
12114TIP3    H236286   2.201   5.517   6.060
12115TIP3   OH236287   2.608   5.962   6.536
12115TIP3    H136288   2.516   5.991   6.554
12115TIP3    H236289   2.662   6.022   6.591
12116TIP3   OH236290   2.343   6.343   5.639
12116TIP3    H136291   2.270   6.279   5.626
12116TIP3    H236292   2.322   6.378   5.729
12117TIP3   OH236293   3.241   6.581   6.264
12117TIP3    H136294   3.265   6.633   6.184
12117TIP3    H236295   3.157   6.539   6.237
12118TIP3   OH236296   2.800   5.654   5.508
12118TIP3    H136297   2.704   5.635   5.516
12118TIP3    H236298   2.807   5.748   5.532
12119TIP3   OH236299   2.738   6.662   6.639
12119TIP3    H136300   2.775   6.652   6.727
12119TIP3    H236301   2.703   6.753   6.641
12120TIP3   OH236302   2.868   5.906   5.609
12120TIP3    H136303   2.964   5.913   5.623
12120TIP3    H236304   2.848   5.986   5.558
12121TIP3   OH236305   2.037   6.369   6.310
12121TIP3    H136306   2.075   6.341   6.225
12121TIP3    H236307   2.083   6.311   6.372
12122TIP3   OH236308   2.489   6.494   5.463
12122TIP3    H136309   2.439   6.580   5.466
12122TIP3    H236310   2.434   6.439   5.524
12123TIP3   OH236311   1.919   6.282   6.925
12123TIP3    H136312   1.927   6.261   7.020
12123TIP3    H236313   1.843   6.227   6.899
12124TIP3   OH236314   2.646   6.404   6.949
12124TIP3    H136315   2.584   6.347   6.901
12124TIP3    H236316   2.732   6.368   6.919
12125TIP3   OH236317   2.901   6.920   6.539
12125TIP3    H136318   2.804   6.922   6.550
12125TIP3    H236319   2.929   6.975   6.615
12126TIP3   OH236320   3.308   6.000   5.442
12126TIP3    H136321   3.247   5.956   5.378
12126TIP3    H236322   3.305   6.090   5.402
12127TIP3   OH236323   3.531   6.855   6.522
12127TIP3    H136324   3.434   6.850   6.513
12127TIP3    H236325   3.558   6.825   6.432
12128TIP3   OH236326   3.016   6.817   5.352
12128TIP3    H136327   2.985   6.749   5.414
12128TIP3    H236328   3.027   6.768   5.268
12129TIP3   OH236329   3.008   6.445   6.180
12129TIP3    H136330   2.914   6.421   6.195
12129TIP3    H236331   3.041   6.364   6.137
12130TIP3   OH236332   2.140   6.674   5.941
12130TIP3    H136333   2.137   6.755   5.887
12130TIP3    H236334   2.046   6.657   5.955
12131TIP3   OH236335   1.704   5.975   5.648
12131TIP3    H136336   1.748   6.060   5.670
12131TIP3    H236337   1.626   5.979   5.709
12132TIP3   OH236338   2.267   6.435   5.881
12132TIP3    H136339   2.235   6.525   5.900
12132TIP3    H236340   2.233   6.385   5.957
12133TIP3   OH236341   2.409   7.015   6.406
12133TIP3    H136342   2.449   7.089   6.356
12133TIP3    H236343   2.486   6.980   6.452
12134TIP3   OH236344   2.058   6.912   5.793
12134TIP3    H136345   1.972   6.922   5.838
12134TIP3    H236346   2.090   7.005   5.795
12135TIP3   OH236347   2.790   6.650   6.370
12135TIP3    H136348   2.779   6.647   6.468
12135TIP3    H236349   2.871   6.598   6.359
12136TIP3   OH236350   2.773   6.546   5.252
12136TIP3    H136351   2.826   6.520   5.331
12136TIP3    H236352   2.685   6.517   5.281
12137TIP3   OH236353   3.041   7.180   6.415
12137TIP3    H136354   2.959   7.127   6.408
12137TIP3    H236355   3.027   7.246   6.344
12138TIP3   OH236356   3.109   7.014   5.068
12138TIP3    H136357   3.146   7.090   5.019
12138TIP3    H236358   3.029   7.057   5.104
12139TIP3   OH236359   2.933   6.474   5.464
12139TIP3    H136360   2.923   6.409   5.536
12139TIP3    H236361   3.031   6.472   5.453
12140TIP3   OH236362   1.844   6.879   6.566
12140TIP3    H136363   1.900   6.811   6.608
12140TIP3    H236364   1.869   6.958   6.615
12141TIP3   OH236365   2.134   6.522   5.252
12141TIP3    H136366   2.146   6.429   5.227
12141TIP3    H236367   2.112   6.514   5.347
12142TIP3   OH236368   2.077   6.529   5.523
12142TIP3    H136369   2.152   6.503   5.579
12142TIP3    H236370   2.079   6.627   5.532
12143TIP3   OH236371   1.810   6.220   5.729
12143TIP3    H136372   1.744   6.265   5.785
12143TIP3    H236373   1.824   6.287   5.660
12144TIP3   OH236374   2.969   5.857   6.621
12144TIP3    H136375   3.050   5.895   6.659
12144TIP3    H236376   2.955   5.776   6.675
12145TIP3   OH236377   2.852   5.603   5.789
12145TIP3    H136378   2.836   5.626   5.695
12145TIP3    H236379   2.890   5.686   5.824
12146TIP3   OH236380   2.346   6.723   5.471
12146TIP3    H136381   2.258   6.747   5.507
12146TIP3    H236382   2.362   6.801   5.414
12147TIP3   OH236383   2.530   5.790   5.888
12147TIP3    H136384   2.594   5.863   5.871
12147TIP3    H236385   2.538   5.781   5.985
12148TIP3   OH236386   2.804   6.103   6.691
12148TIP3    H136387   2.830   6.155   6.770
12148TIP3    H236388   2.856   6.022   6.700
12149TIP3   OH236389   2.677   5.510   5.988
12149TIP3    H136390   2.664   5.590   6.042
12149TIP3    H236391   2.741   5.543   5.921
12150TIP3   OH236392   2.092   6.800   5.543
12150TIP3    H136393   2.063   6.871   5.481
12150TIP3    H236394   2.077   6.844   5.629
12151TIP3   OH236395   2.190   5.515   5.777
12151TIP3    H136396   2.187   5.605   5.813
12151TIP3    H236397   2.286   5.498   5.784
12152TIP3   OH236398   3.441   6.006   6.677
12152TIP3    H136399   3.343   6.005   6.683
12152TIP3    H236400   3.453   5.963   6.591
12153TIP3   OH236401   3.094   6.199   6.062
12153TIP3    H136402   3.017   6.141   6.075
12153TIP3    H236403   3.164   6.151   6.112
12154TIP3   OH236404   1.810   6.423   5.532
12154TIP3    H136405   1.880   6.490   5.540
12154TIP3    H236406   1.852   6.365   5.465
12155TIP3   OH236407   1.749   5.704   5.665
12155TIP3    H136408   1.754   5.802   5.664
12155TIP3    H236409   1.666   5.689   5.619
12156TIP3   OH236410   3.065   7.160   6.010
12156TIP3    H136411   3.023   7.206   5.934
12156TIP3    H236412   3.160   7.177   5.990
12157TIP3   OH236413   1.671   6.640   5.914
12157TIP3    H136414   1.613   6.673   5.984
12157TIP3    H236415   1.636   6.687   5.834
12158TIP3   OH236416   1.840   7.172   6.987
12158TIP3    H136417   1.928   7.178   7.030
12158TIP3    H236418   1.825   7.076   6.987
12159TIP3   OH236419   2.321   7.143   7.035
12159TIP3    H136420   2.415   7.119   7.037
12159TIP3    H236421   2.289   7.084   6.963
12160TIP3   OH236422   2.296   6.723   5.158
12160TIP3    H136423   2.241   6.652   5.198
12160TIP3    H236424   2.372   6.672   5.127
12161TIP3   OH236425   2.953   7.059   6.772
12161TIP3    H136426   2.949   6.989   6.841
12161TIP3    H236427   3.032   7.109   6.798
12162TIP3   OH236428   2.732   6.761   5.076
12162TIP3    H136429   2.771   6.696   5.137
12162TIP3    H236430   2.791   6.757   4.999
12163TIP3   OH236431   1.964   6.594   7.191
12163TIP3    H136432   1.973   6.498   7.200
12163TIP3    H236433   1.878   6.601   7.145
12164TIP3   OH236434   1.945   6.237   5.388
12164TIP3    H136435   2.003   6.210   5.461
12164TIP3    H236436   2.011   6.244   5.315
12165TIP3   OH236437   2.570   6.681   6.966
12165TIP3    H136438   2.531   6.704   6.879
12165TIP3    H236439   2.602   6.590   6.951
12166TIP3   OH236440   2.462   6.442   5.194
12166TIP3    H136441   2.462   6.454   5.291
12166TIP3    H236442   2.461   6.344   5.188
12167TIP3   OH236443   3.065   6.693   6.573
12167TIP3    H136444   3.142   6.734   6.529
12167TIP3    H236445   2.997   6.762   6.558
12168TIP3   OH236446   2.087   6.312   7.184
12168TIP3    H136447   2.172   6.295   7.140
12168TIP3    H236448   2.117   6.355   7.268
12169TIP3   OH236449   2.146   6.150   5.602
12169TIP3    H136450   2.121   6.111   5.688
12169TIP3    H236451   2.186   6.073   5.556
12170TIP3   OH236452   2.424   6.212   6.839
12170TIP3    H136453   2.346   6.272   6.840
12170TIP3    H236454   2.473   6.245   6.760
12171TIP3   OH236455   2.254   5.944   5.445
12171TIP3    H136456   2.229   5.953   5.351
12171TIP3    H236457   2.352   5.947   5.438
12172TIP3   OH236458   2.937   6.613   6.967
12172TIP3    H136459   3.013   6.582   6.916
12172TIP3    H236460   2.932   6.548   7.039
12173TIP3   OH236461   3.070   6.269   5.115
12173TIP3    H136462   3.051   6.226   5.029
12173TIP3    H236463   3.037   6.359   5.095
12174TIP3   OH236464   2.543   5.999   6.960
12174TIP3    H136465   2.545   5.923   6.898
12174TIP3    H236466   2.500   6.068   6.904
12175TIP3   OH236467   2.550   5.789   6.768
12175TIP3    H136468   2.574   5.826   6.681
12175TIP3    H236469   2.453   5.774   6.758
12176TIP3   OH236470   2.569   6.323   6.644
12176TIP3    H136471   2.655   6.337   6.602
12176TIP3    H236472   2.513   6.388   6.596
12177TIP3   OH236473   3.153   6.288   7.019
12177TIP3    H136474   3.202   6.204   7.024
12177TIP3    H236475   3.220   6.347   6.981
12178TIP3   OH236476   3.193   6.543   6.757
12178TIP3    H136477   3.136   6.599   6.699
12178TIP3    H236478   3.281   6.564   6.719
12179TIP3   OH236479   2.420   6.100   7.196
12179TIP3    H136480   2.347   6.036   7.206
12179TIP3    H236481   2.453   6.077   7.106
12180TIP3   OH236482   2.674   5.548   6.836
12180TIP3    H136483   2.628   5.631   6.812
12180TIP3    H236484   2.606   5.481   6.815
12181TIP3   OH236485   2.803   6.048   7.052
12181TIP3    H136486   2.786   6.035   7.147
12181TIP3    H236487   2.714   6.026   7.016
12182TIP3   OH236488   3.044   6.005   6.909
12182TIP3    H136489   2.968   6.004   6.971
12182TIP3    H236490   3.117   5.975   6.966
12183TIP3   OH236491   3.275   5.947   7.058
12183TIP3    H136492   3.287   5.851   7.072
12183TIP3    H236493   3.270   5.981   7.150
12184TIP3   OH236494   2.269   5.868   7.238
12184TIP3    H136495   2.332   5.801   7.207
12184TIP3    H236496   2.283   5.864   7.335
12185TIP3   OH236497   2.771   5.560   7.094
12185TIP3    H136498   2.836   5.488   7.087
12185TIP3    H236499   2.729   5.554   7.005
12186TIP3   OH236500   2.839   5.773   7.255
12186TIP3    H136501   2.817   5.701   7.190
12186TIP3    H236502   2.760   5.831   7.248
12187TIP3   OH236503   2.061   7.000   5.354
12187TIP3    H136504   2.157   6.994   5.337
12187TIP3    H236505   2.035   7.055   5.277
12188TIP3   OH236506   1.540   6.386   5.566
12188TIP3    H136507   1.635   6.407   5.552
12188TIP3    H236508   1.533   6.297   5.524
12189TIP3   OH236509   1.456   6.995   5.988
12189TIP3    H136510   1.391   6.934   5.946
12189TIP3    H236511   1.500   6.934   6.050
12190TIP3   OH236512   1.592   6.837   6.170
12190TIP3    H136513   1.581   6.772   6.241
12190TIP3    H236514   1.643   6.905   6.218
12191TIP3   OH236515   3.323   7.241   5.973
12191TIP3    H136516   3.345   7.275   6.062
12191TIP3    H236517   3.385   7.290   5.917
12192TIP3   OH236518   3.346   7.267   6.254
12192TIP3    H136519   3.302   7.180   6.251
12192TIP3    H236520   3.420   7.245   6.313
12193TIP3   OH236521   3.394   6.943   6.829
12193TIP3    H136522   3.320   6.953   6.892
12193TIP3    H236523   3.437   7.031   6.835
12194TIP3   OH236524   3.211   6.456   5.443
12194TIP3    H136525   3.277   6.523   5.413
12194TIP3    H236526   3.257   6.419   5.522
12195TIP3   OH236527   3.339   6.323   5.648
12195TIP3    H136528   3.271   6.283   5.707
12195TIP3    H236529   3.404   6.360   5.712
12196TIP3   OH236530   3.397   6.720   6.081
12196TIP3    H136531   3.447   6.652   6.033
12196TIP3    H236532   3.392   6.792   6.015
12197TIP3   OH236533   3.220   7.017   6.275
12197TIP3    H136534   3.148   7.060   6.325
12197TIP3    H236535   3.171   6.973   6.203
12198TIP3   OH236536   3.274   6.233   5.293
12198TIP3    H136537   3.202   6.235   5.227
12198TIP3    H236538   3.247   6.309   5.348
12199TIP3   OH236539   3.145   5.905   5.247
12199TIP3    H136540   3.100   5.941   5.170
12199TIP3    H236541   3.123   5.809   5.238
12200TIP3   OH236542   3.149   6.185   5.793
12200TIP3    H136543   3.157   6.088   5.785
12200TIP3    H236544   3.134   6.197   5.890
12201TIP3   OH236545   1.774   6.246   6.545
12201TIP3    H136546   1.771   6.216   6.452
12201TIP3    H236547   1.871   6.255   6.558
12202TIP3   OH236548   3.440   6.608   6.654
12202TIP3    H136549   3.511   6.541   6.640
12202TIP3    H236550   3.463   6.677   6.590
12203TIP3   OH236551   3.622   6.406   6.657
12203TIP3    H136552   3.547   6.358   6.699
12203TIP3    H236553   3.695   6.343   6.676
12204TIP3   OH236554   3.089   5.639   5.230
12204TIP3    H136555   3.161   5.606   5.287
12204TIP3    H236556   3.014   5.580   5.250
12205TIP3   OH236557   3.148   5.900   5.684
12205TIP3    H136558   3.190   5.812   5.698
12205TIP3    H236559   3.205   5.934   5.613
12206TIP3   OH236560   3.307   6.066   6.185
12206TIP3    H136561   3.392   6.091   6.142
12206TIP3    H236562   3.321   6.106   6.273
12207TIP3   OH236563   3.380   6.216   6.413
12207TIP3    H136564   3.302   6.250   6.462
12207TIP3    H236565   3.412   6.298   6.368
12208TIP3   OH236566   3.829   5.812   6.969
12208TIP3    H136567   3.890   5.747   6.927
12208TIP3    H236568   3.798   5.862   6.891
12209TIP3   OH236569   3.256   5.650   5.725
12209TIP3    H136570   3.303   5.633   5.809
12209TIP3    H236571   3.195   5.574   5.723
12210TIP3   OH236572   1.982   5.610   6.541
12210TIP3    H136573   2.052   5.542   6.539
12210TIP3    H236574   2.037   5.690   6.530
12211TIP3   OH236575   1.768   5.905   6.634
12211TIP3    H136576   1.813   5.894   6.548
12211TIP3    H236577   1.772   6.001   6.645
12212TIP3   OH236578   3.696   5.943   6.772
12212TIP3    H136579   3.609   5.987   6.787
12212TIP3    H236580   3.665   5.869   6.715
12213TIP3   OH236581   3.332   5.579   5.363
12213TIP3    H136582   3.371   5.511   5.304
12213TIP3    H236583   3.398   5.651   5.359
12214TIP3   OH236584   1.741   5.414   6.119
12214TIP3    H136585   1.649   5.405   6.149
12214TIP3    H236586   1.732   5.472   6.040
12215TIP3   OH236587   2.905   7.112   5.628
12215TIP3    H136588   2.956   7.105   5.544
12215TIP3    H236589   2.952   7.183   5.674
12216TIP3   OH236590   2.006   6.909   7.006
12216TIP3    H136591   1.911   6.890   6.992
12216TIP3    H236592   2.011   6.913   7.103
12217TIP3   OH236593   2.185   6.956   6.558
12217TIP3    H136594   2.136   7.032   6.521
12217TIP3    H236595   2.270   6.970   6.512
12218TIP3   OH236596   2.621   7.194   6.694
12218TIP3    H136597   2.663   7.194   6.782
12218TIP3    H236598   2.686   7.247   6.643
12219TIP3   OH236599   2.802   7.351   6.559
12219TIP3    H136600   2.872   7.300   6.515
12219TIP3    H236601   2.855   7.407   6.619
12220TIP3   OH236602   3.599   5.706   6.655
12220TIP3    H136603   3.509   5.696   6.619
12220TIP3    H236604   3.633   5.614   6.645
12221TIP3   OH236605   1.858   7.209   6.590
12221TIP3    H136606   1.767   7.236   6.566
12221TIP3    H236607   1.878   7.274   6.660
12222TIP3   OH236608   2.092   7.187   6.444
12222TIP3    H136609   2.005   7.199   6.488
12222TIP3    H236610   2.072   7.220   6.353
12223TIP3   OH236611   2.517   7.212   6.239
12223TIP3    H136612   2.452   7.230   6.168
12223TIP3    H236613   2.528   7.302   6.278
12224TIP3   OH236614   2.786   7.151   6.293
12224TIP3    H136615   2.692   7.170   6.273
12224TIP3    H236616   2.829   7.224   6.245
12225TIP3   OH236617   2.993   7.345   6.203
12225TIP3    H136618   2.978   7.429   6.155
12225TIP3    H236619   3.019   7.285   6.129
12226TIP3   OH236620   1.766   7.001   6.324
12226TIP3    H136621   1.791   6.972   6.414
12226TIP3    H236622   1.839   6.959   6.273
12227TIP3   OH236623   1.963   6.875   6.187
12227TIP3    H136624   1.978   6.791   6.237
12227TIP3    H236625   2.054   6.911   6.184
12228TIP3   OH236626   2.229   6.964   6.193
12228TIP3    H136627   2.259   6.871   6.185
12228TIP3    H236628   2.278   6.989   6.274
12229TIP3   OH236629   2.806   5.624   6.282
12229TIP3    H136630   2.762   5.552   6.331
12229TIP3    H236631   2.878   5.577   6.234
12230TIP3   OH236632   3.322   5.504   6.178
12230TIP3    H136633   3.358   5.556   6.103
12230TIP3    H236634   3.227   5.525   6.172
12231TIP3   OH236635   3.419   5.601   5.942
12231TIP3    H136636   3.494   5.549   5.904
12231TIP3    H236637   3.453   5.692   5.928
12232TIP3   OH236638   1.831   5.206   5.936
12232TIP3    H136639   1.865   5.264   5.865
12232TIP3    H236640   1.810   5.271   6.006
12233TIP3   OH236641   2.487   5.359   6.162
12233TIP3    H136642   2.556   5.414   6.120
12233TIP3    H236643   2.475   5.403   6.248
12234TIP3   OH236644   3.039   5.513   6.154
12234TIP3    H136645   3.039   5.472   6.066
12234TIP3    H236646   3.029   5.434   6.212
12235TIP3   OH236647   3.073   5.438   5.718
12235TIP3    H136648   2.988   5.483   5.738
12235TIP3    H236649   3.058   5.352   5.761
12236TIP3   OH236650   1.554   6.781   5.715
12236TIP3    H136651   1.469   6.748   5.681
12236TIP3    H236652   1.548   6.874   5.687
12237TIP3   OH236653   1.960   5.362   5.699
12237TIP3    H136654   2.008   5.299   5.642
12237TIP3    H236655   2.033   5.415   5.735
12238TIP3   OH236656   2.467   5.538   5.801
12238TIP3    H136657   2.525   5.491   5.863
12238TIP3    H236658   2.489   5.631   5.826
12239TIP3   OH236659   2.329   6.953   5.302
12239TIP3    H136660   2.415   6.979   5.264
12239TIP3    H236661   2.306   6.880   5.241
12240TIP3   OH236662   3.051   7.084   5.393
12240TIP3    H136663   3.043   6.986   5.384
12240TIP3    H236664   3.003   7.114   5.314
12241TIP3   OH236665   2.501   5.629   7.308
12241TIP3    H136666   2.577   5.596   7.258
12241TIP3    H236667   2.479   5.550   7.362
12242TIP3   OH236668   1.630   6.795   5.353
12242TIP3    H136669   1.635   6.817   5.447
12242TIP3    H236670   1.718   6.752   5.337
12243TIP3   OH236671   3.337   5.676   7.087
12243TIP3    H136672   3.355   5.644   7.178
12243TIP3    H236673   3.426   5.670   7.047
12244TIP3   OH236674   3.272   7.225   6.575
12244TIP3    H136675   3.192   7.196   6.527
12244TIP3    H236676   3.253   7.320   6.585
12245TIP3   OH236677   4.540   6.597   5.342
12245TIP3    H136678   4.507   6.687   5.320
12245TIP3    H236679   4.464   6.545   5.308
12246TIP3   OH236680   4.544   6.599   5.731
12246TIP3    H136681   4.576   6.573   5.819
12246TIP3    H236682   4.499   6.519   5.700
12247TIP3   OH236683   3.836   6.489   6.093
12247TIP3    H136684   3.866   6.420   6.155
12247TIP3    H236685   3.915   6.544   6.085
12248TIP3   OH236686   4.792   6.897   5.412
12248TIP3    H136687   4.765   6.834   5.480
12248TIP3    H236688   4.817   6.975   5.464
12249TIP3   OH236689   3.812   6.903   5.813
12249TIP3    H136690   3.803   6.806   5.814
12249TIP3    H236691   3.909   6.912   5.805
12250TIP3   OH236692   3.517   6.102   5.596
12250TIP3    H136693   3.469   6.184   5.616
12250TIP3    H236694   3.445   6.052   5.551
12251TIP3   OH236695   3.573   6.392   5.780
12251TIP3    H136696   3.624   6.314   5.812
12251TIP3    H236697   3.633   6.430   5.715
12252TIP3   OH236698   4.438   7.365   5.431
12252TIP3    H136699   4.476   7.294   5.374
12252TIP3    H236700   4.424   7.317   5.514
12253TIP3   OH236701   4.335   6.825   5.776
12253TIP3    H136702   4.375   6.751   5.728
12253TIP3    H236703   4.417   6.872   5.803
12254TIP3   OH236704   5.355   6.143   5.775
12254TIP3    H136705   5.384   6.227   5.817
12254TIP3    H236706   5.374   6.163   5.681
12255TIP3   OH236707   4.751   6.322   5.804
12255TIP3    H136708   4.792   6.235   5.824
12255TIP3    H236709   4.717   6.306   5.714
12256TIP3   OH236710   4.094   5.983   5.769
12256TIP3    H136711   4.072   6.056   5.707
12256TIP3    H236712   4.044   5.910   5.727
12257TIP3   OH236713   4.787   6.077   5.393
12257TIP3    H136714   4.859   6.062   5.458
12257TIP3    H236715   4.838   6.113   5.318
12258TIP3   OH236716   3.722   6.184   5.880
12258TIP3    H136717   3.805   6.166   5.928
12258TIP3    H236718   3.736   6.130   5.800
12259TIP3   OH236719   4.160   6.383   5.678
12259TIP3    H136720   4.255   6.359   5.688
12259TIP3    H236721   4.122   6.299   5.643
12260TIP3   OH236722   5.427   6.354   5.942
12260TIP3    H136723   5.342   6.399   5.923
12260TIP3    H236724   5.442   6.384   6.033
12261TIP3   OH236725   4.085   5.968   6.207
12261TIP3    H136726   4.026   6.005   6.138
12261TIP3    H236727   4.031   5.986   6.287
12262TIP3   OH236728   4.412   6.809   5.221
12262TIP3    H136729   4.399   6.807   5.125
12262TIP3    H236730   4.372   6.895   5.244
12263TIP3   OH236731   4.191   6.744   5.997
12263TIP3    H136732   4.132   6.814   6.032
12263TIP3    H236733   4.235   6.790   5.922
12264TIP3   OH236734   4.991   6.080   5.574
12264TIP3    H136735   4.962   6.044   5.659
12264TIP3    H236736   5.040   6.160   5.601
12265TIP3   OH236737   3.959   6.081   5.989
12265TIP3    H136738   4.020   6.155   6.012
12265TIP3    H236739   4.008   6.042   5.913
12266TIP3   OH236740   4.023   6.941   6.098
12266TIP3    H136741   3.998   7.029   6.062
12266TIP3    H236742   3.943   6.923   6.152
12267TIP3   OH236743   3.410   6.630   5.334
12267TIP3    H136744   3.370   6.657   5.249
12267TIP3    H236745   3.442   6.716   5.369
12268TIP3   OH236746   4.853   7.147   5.575
12268TIP3    H136747   4.763   7.137   5.614
12268TIP3    H236748   4.843   7.232   5.528
12269TIP3   OH236749   5.147   6.041   5.939
12269TIP3    H136750   5.059   6.068   5.906
12269TIP3    H236751   5.206   6.074   5.869
12270TIP3   OH236752   4.437   5.682   5.924
12270TIP3    H136753   4.420   5.588   5.942
12270TIP3    H236754   4.360   5.723   5.971
12271TIP3   OH236755   4.546   7.191   5.245
12271TIP3    H136756   4.593   7.106   5.226
12271TIP3    H236757   4.611   7.254   5.204
12272TIP3   OH236758   4.684   6.973   5.166
12272TIP3    H136759   4.696   6.900   5.101
12272TIP3    H236760   4.725   6.933   5.246
12273TIP3   OH236761   5.078   7.053   5.919
12273TIP3    H136762   5.064   6.977   5.859
12273TIP3    H236763   5.058   7.129   5.860
12274TIP3   OH236764   4.369   6.449   5.180
12274TIP3    H136765   4.289   6.504   5.164
12274TIP3    H236766   4.412   6.453   5.093
12275TIP3   OH236767   4.326   6.238   4.890
12275TIP3    H136768   4.392   6.291   4.939
12275TIP3    H236769   4.385   6.176   4.842
12276TIP3   OH236770   5.273   6.696   5.768
12276TIP3    H136771   5.188   6.746   5.770
12276TIP3    H236772   5.303   6.720   5.678
12277TIP3   OH236773   4.718   6.522   5.148
12277TIP3    H136774   4.662   6.551   5.224
12277TIP3    H236775   4.803   6.505   5.193
12278TIP3   OH236776   4.952   6.569   6.065
12278TIP3    H136777   4.948   6.653   6.114
12278TIP3    H236778   4.865   6.571   6.019
12279TIP3   OH236779   3.947   6.526   5.569
12279TIP3    H136780   3.907   6.469   5.499
12279TIP3    H236781   4.025   6.473   5.597
12280TIP3   OH236782   4.078   6.942   5.711
12280TIP3    H136783   4.059   6.911   5.621
12280TIP3    H236784   4.167   6.904   5.728
12281TIP3   OH236785   4.084   6.500   5.921
12281TIP3    H136786   4.116   6.475   5.832
12281TIP3    H236787   4.128   6.587   5.936
12282TIP3   OH236788   4.613   7.139   5.698
12282TIP3    H136789   4.598   7.219   5.751
12282TIP3    H236790   4.595   7.066   5.761
12283TIP3   OH236791   4.226   7.055   6.246
12283TIP3    H136792   4.163   7.117   6.291
12283TIP3    H236793   4.162   7.003   6.193
12284TIP3   OH236794   4.556   6.385   4.974
12284TIP3    H136795   4.613   6.448   5.024
12284TIP3    H236796   4.582   6.406   4.881
12285TIP3   OH236797   3.981   6.607   6.353
12285TIP3    H136798   3.985   6.698   6.390
12285TIP3    H236799   3.886   6.589   6.364
12286TIP3   OH236800   4.303   7.068   5.254
12286TIP3    H136801   4.387   7.117   5.256
12286TIP3    H236802   4.246   7.127   5.203
12287TIP3   OH236803   4.019   7.219   6.333
12287TIP3    H136804   3.983   7.225   6.242
12287TIP3    H236805   3.939   7.197   6.385
12288TIP3   OH236806   5.090   5.646   5.029
12288TIP3    H136807   5.005   5.645   5.078
12288TIP3    H236808   5.077   5.725   4.973
12289TIP3   OH236809   3.816   6.372   5.369
12289TIP3    H136810   3.748   6.417   5.315
12289TIP3    H236811   3.777   6.284   5.379
12290TIP3   OH236812   4.921   7.016   4.616
12290TIP3    H136813   4.905   7.096   4.563
12290TIP3    H236814   4.990   6.969   4.565
12291TIP3   OH236815   3.596   6.757   6.279
12291TIP3    H136816   3.528   6.738   6.211
12291TIP3    H236817   3.633   6.668   6.296
12292TIP3   OH236818   3.452   6.949   5.910
12292TIP3    H136819   3.548   6.947   5.903
12292TIP3    H236820   3.438   7.028   5.964
12293TIP3   OH236821   5.317   7.406   5.970
12293TIP3    H136822   5.314   7.309   5.984
12293TIP3    H236823   5.232   7.431   6.014
12294TIP3   OH236824   4.421   7.183   6.103
12294TIP3    H136825   4.417   7.277   6.133
12294TIP3    H236826   4.349   7.143   6.156
12295TIP3   OH236827   4.186   7.311   5.054
12295TIP3    H136828   4.140   7.291   4.970
12295TIP3    H236829   4.150   7.398   5.079
12296TIP3   OH236830   3.621   7.162   5.439
12296TIP3    H136831   3.668   7.153   5.526
12296TIP3    H236832   3.571   7.079   5.437
12297TIP3   OH236833   4.394   7.194   4.689
12297TIP3    H136834   4.446   7.115   4.670
12297TIP3    H236835   4.424   7.216   4.779
12298TIP3   OH236836   4.436   7.266   4.955
12298TIP3    H136837   4.348   7.275   4.999
12298TIP3    H236838   4.487   7.221   5.023
12299TIP3   OH236839   5.204   6.530   6.242
12299TIP3    H136840   5.120   6.541   6.195
12299TIP3    H236841   5.220   6.434   6.232
12300TIP3   OH236842   3.802   6.938   6.258
12300TIP3    H136843   3.848   6.925   6.343
12300TIP3    H236844   3.726   6.876   6.268
12301TIP3   OH236845   4.200   5.762   6.054
12301TIP3    H136846   4.112   5.731   6.023
12301TIP3    H236847   4.173   5.842   6.103
12302TIP3   OH236848   4.736   5.876   6.247
12302TIP3    H136849   4.805   5.848   6.311
12302TIP3    H236850   4.653   5.857   6.295
12303TIP3   OH236851   4.972   6.307   6.166
12303TIP3    H136852   4.920   6.305   6.249
12303TIP3    H236853   4.948   6.394   6.128
12304TIP3   OH236854   4.629   6.421   4.716
12304TIP3    H136855   4.599   6.403   4.624
12304TIP3    H236856   4.681   6.502   4.702
12305TIP3   OH236857   4.348   5.805   5.024
12305TIP3    H136858   4.310   5.804   5.114
12305TIP3    H236859   4.305   5.726   4.987
12306TIP3   OH236860   4.134   6.278   6.070
12306TIP3    H136861   4.082   6.298   6.151
12306TIP3    H236862   4.118   6.360   6.017
12307TIP3   OH236863   4.017   6.164   5.583
12307TIP3    H136864   3.924   6.140   5.602
12307TIP3    H236865   4.028   6.124   5.494
12308TIP3   OH236866   4.506   6.250   5.314
12308TIP3    H136867   4.455   6.321   5.270
12308TIP3    H236868   4.560   6.216   5.239
12309TIP3   OH236869   4.681   6.523   6.395
12309TIP3    H136870   4.658   6.451   6.458
12309TIP3    H236871   4.775   6.538   6.418
12310TIP3   OH236872   4.662   6.276   5.549
12310TIP3    H136873   4.599   6.306   5.480
12310TIP3    H236874   4.696   6.196   5.502
12311TIP3   OH236875   3.954   6.306   6.277
12311TIP3    H136876   3.977   6.372   6.344
12311TIP3    H236877   3.941   6.225   6.330
12312TIP3   OH236878   4.005   5.787   4.988
12312TIP3    H136879   3.991   5.786   5.085
12312TIP3    H236880   3.926   5.838   4.960
12313TIP3   OH236881   3.545   5.824   5.862
12313TIP3    H136882   3.620   5.859   5.915
12313TIP3    H236883   3.587   5.799   5.778
12314TIP3   OH236884   3.507   5.807   5.378
12314TIP3    H136885   3.552   5.844   5.299
12314TIP3    H236886   3.446   5.881   5.397
12315TIP3   OH236887   4.677   6.520   5.971
12315TIP3    H136888   4.709   6.449   5.910
12315TIP3    H236889   4.643   6.465   6.045
12316TIP3   OH236890   4.352   5.980   5.643
12316TIP3    H136891   4.269   5.982   5.695
12316TIP3    H236892   4.419   5.980   5.713
12317TIP3   OH236893   3.778   6.044   5.651
12317TIP3    H136894   3.684   6.052   5.622
12317TIP3    H236895   3.801   5.952   5.627
12318TIP3   OH236896   4.042   6.037   5.342
12318TIP3    H136897   4.135   6.053   5.318
12318TIP3    H236898   3.994   6.058   5.259
12319TIP3   OH236899   4.836   6.060   5.844
12319TIP3    H136900   4.808   6.074   5.937
12319TIP3    H236901   4.765   6.000   5.814
12320TIP3   OH236902   3.895   6.071   5.117
12320TIP3    H136903   3.826   6.026   5.066
12320TIP3    H236904   3.948   6.111   5.044
12321TIP3   OH236905   5.010   7.749   6.068
12321TIP3    H136906   5.005   7.776   5.974
12321TIP3    H236907   5.091   7.796   6.097
12322TIP3   OH236908   3.964   6.859   6.485
12322TIP3    H136909   4.043   6.891   6.534
12322TIP3    H236910   3.898   6.861   6.556
12323TIP3   OH236911   4.425   6.315   5.742
12323TIP3    H136912   4.500   6.277   5.694
12323TIP3    H236913   4.430   6.270   5.829
12324TIP3   OH236914   3.944   5.801   5.626
12324TIP3    H136915   3.908   5.724   5.676
12324TIP3    H236916   3.984   5.758   5.549
12325TIP3   OH236917   4.402   6.216   6.029
12325TIP3    H136918   4.312   6.250   6.044
12325TIP3    H236919   4.458   6.278   6.080
12326TIP3   OH236920   4.135   6.596   5.131
12326TIP3    H136921   4.061   6.534   5.118
12326TIP3    H236922   4.115   6.632   5.220
12327TIP3   OH236923   5.037   6.837   5.752
12327TIP3    H136924   5.060   6.889   5.672
12327TIP3    H236925   4.952   6.795   5.725
12328TIP3   OH236926   4.597   5.910   4.997
12328TIP3    H136927   4.501   5.889   5.003
12328TIP3    H236928   4.601   6.005   5.019
12329TIP3   OH236929   4.537   6.920   6.125
12329TIP3    H136930   4.568   6.907   6.215
12329TIP3    H236931   4.499   7.010   6.128
12330TIP3   OH236932   4.664   6.162   5.097
12330TIP3    H136933   4.760   6.175   5.111
12330TIP3    H236934   4.639   6.242   5.046
12331TIP3   OH236935   3.833   6.626   5.800
12331TIP3    H136936   3.870   6.597   5.715
12331TIP3    H236937   3.878   6.567   5.862
12332TIP3   OH236938   4.280   6.746   4.953
12332TIP3    H136939   4.234   6.833   4.956
12332TIP3    H236940   4.227   6.693   5.016
12333TIP3   OH236941   3.717   6.540   6.414
12333TIP3    H136942   3.729   6.526   6.510
12333TIP3    H236943   3.644   6.479   6.395
12334TIP3   OH236944   4.441   6.661   6.435
12334TIP3    H136945   4.378   6.602   6.391
12334TIP3    H236946   4.526   6.624   6.404
12335TIP3   OH236947   4.698   7.178   6.023
12335TIP3    H136948   4.601   7.179   6.035
12335TIP3    H236949   4.725   7.233   6.100
12336TIP3   OH236950   5.106   6.256   4.926
12336TIP3    H136951   5.045   6.212   4.862
12336TIP3    H236952   5.100   6.347   4.888
12337TIP3   OH236953   5.328   7.114   6.007
12337TIP3    H136954   5.230   7.107   5.999
12337TIP3    H236955   5.354   7.083   5.918
12338TIP3   OH236956   4.799   7.070   4.850
12338TIP3    H136957   4.757   6.990   4.884
12338TIP3    H236958   4.832   7.039   4.762
12339TIP3   OH236959   4.805   6.701   5.670
12339TIP3    H136960   4.711   6.677   5.684
12339TIP3    H236961   4.837   6.621   5.624
12340TIP3   OH236962   3.937   6.932   5.432
12340TIP3    H136963   3.935   7.011   5.374
12340TIP3    H236964   3.843   6.911   5.439
12341TIP3   OH236965   3.500   6.231   5.135
12341TIP3    H136966   3.544   6.317   5.156
12341TIP3    H236967   3.423   6.236   5.195
12342TIP3   OH236968   4.061   6.691   5.372
12342TIP3    H136969   4.032   6.782   5.391
12342TIP3    H236970   4.025   6.643   5.449
12343TIP3   OH236971   4.205   7.271   5.894
12343TIP3    H136972   4.247   7.344   5.844
12343TIP3    H236973   4.282   7.234   5.940
12344TIP3   OH236974   3.850   7.169   5.278
12344TIP3    H136975   3.765   7.177   5.326
12344TIP3    H236976   3.882   7.262   5.281
12345TIP3   OH236977   4.586   6.906   5.856
12345TIP3    H136978   4.577   6.905   5.954
12345TIP3    H236979   4.666   6.852   5.844
12346TIP3   OH236980   4.839   7.436   5.903
12346TIP3    H136981   4.757   7.382   5.898
12346TIP3    H236982   4.823   7.501   5.832
12347TIP3   OH236983   4.909   7.285   4.545
12347TIP3    H136984   4.943   7.367   4.507
12347TIP3    H236985   4.826   7.317   4.584
12348TIP3   OH236986   3.921   6.050   6.420
12348TIP3    H136987   3.824   6.052   6.430
12348TIP3    H236988   3.947   5.993   6.494
12349TIP3   OH236989   4.743   6.761   4.999
12349TIP3    H136990   4.725   6.676   5.045
12349TIP3    H236991   4.828   6.740   4.955
12350TIP3   OH236992   3.642   7.133   6.052
12350TIP3    H136993   3.698   7.064   6.091
12350TIP3    H236994   3.663   7.209   6.108
12351TIP3   OH236995   3.922   6.785   4.739
12351TIP3    H136996   3.955   6.698   4.713
12351TIP3    H236997   3.904   6.771   4.834
12352TIP3   OH236998   3.872   6.785   5.014
12352TIP3    H136999   3.953   6.760   5.061
12352TIP3    H237000   3.876   6.884   5.020
12353TIP3   OH237001   3.608   6.476   5.216
12353TIP3    H137002   3.541   6.522   5.271
12353TIP3    H237003   3.622   6.543   5.147
12354TIP3   OH237004   4.769   6.111   6.105
12354TIP3    H137005   4.846   6.151   6.147
12354TIP3    H237006   4.753   6.031   6.160
12355TIP3   OH237007   4.650   5.858   5.276
12355TIP3    H137008   4.629   5.881   5.183
12355TIP3    H237009   4.685   5.943   5.310
12356TIP3   OH237010   4.141   6.979   4.962
12356TIP3    H137011   4.054   7.009   4.995
12356TIP3    H237012   4.158   7.043   4.892
12357TIP3   OH237013   4.329   6.046   5.374
12357TIP3    H137014   4.391   6.120   5.357
12357TIP3    H237015   4.335   6.038   5.472
12358TIP3   OH237016   4.600   6.360   6.178
12358TIP3    H137017   4.625   6.413   6.256
12358TIP3    H237018   4.653   6.279   6.191
12359TIP3   OH237019   4.470   5.765   5.474
12359TIP3    H137020   4.455   5.846   5.527
12359TIP3    H237021   4.535   5.799   5.407
12360TIP3   OH237022   3.887   7.058   5.028
12360TIP3    H137023   3.858   7.129   4.966
12360TIP3    H237024   3.871   7.101   5.115
12361TIP3   OH237025   3.985   5.772   5.265
12361TIP3    H137026   3.982   5.862   5.302
12361TIP3    H237027   4.081   5.755   5.271
12362TIP3   OH237028   5.238   6.262   6.162
12362TIP3    H137029   5.140   6.263   6.171
12362TIP3    H237030   5.246   6.217   6.078
12363TIP3   OH237031   4.890   6.455   5.550
12363TIP3    H137032   4.812   6.399   5.562
12363TIP3    H237033   4.959   6.407   5.600
12364TIP3   OH237034   3.606   6.680   5.018
12364TIP3    H137035   3.680   6.744   5.028
12364TIP3    H237036   3.647   6.621   4.951
12365TIP3   OH237037   3.544   5.960   5.155
12365TIP3    H137038   3.548   6.058   5.153
12365TIP3    H237039   3.467   5.943   5.100
12366TIP3   OH237040   4.861   7.418   5.496
12366TIP3    H137041   4.817   7.465   5.422
12366TIP3    H237042   4.955   7.435   5.475
12367TIP3   OH237043   3.936   5.681   6.022
12367TIP3    H137044   3.905   5.647   5.935
12367TIP3    H237045   3.925   5.603   6.080
12368TIP3   OH237046   3.469   6.899   5.401
12368TIP3    H137047   3.408   6.930   5.470
12368TIP3    H237048   3.433   6.944   5.321
12369TIP3   OH237049   3.636   7.456   6.473
12369TIP3    H137050   3.718   7.459   6.527
12369TIP3    H237051   3.612   7.363   6.480
12370TIP3   OH237052   4.111   7.399   6.524
12370TIP3    H137053   4.206   7.384   6.525
12370TIP3    H237054   4.083   7.339   6.453
12371TIP3   OH237055   4.092   6.987   4.651
12371TIP3    H137056   4.043   6.909   4.686
12371TIP3    H237057   4.168   6.943   4.608
12372TIP3   OH237058   4.750   7.315   6.257
12372TIP3    H137059   4.745   7.245   6.326
12372TIP3    H237060   4.827   7.367   6.286
12373TIP3   OH237061   3.762   6.849   6.676
12373TIP3    H137062   3.776   6.752   6.681
12373TIP3    H237063   3.675   6.854   6.632
12374TIP3   OH237064   3.740   6.494   4.876
12374TIP3    H137065   3.799   6.467   4.948
12374TIP3    H237066   3.805   6.501   4.802
12375TIP3   OH237067   4.369   6.939   6.451
12375TIP3    H137068   4.326   6.961   6.366
12375TIP3    H237069   4.398   6.846   6.438
12376TIP3   OH237070   4.221   6.690   4.684
12376TIP3    H137071   4.257   6.710   4.772
12376TIP3    H237072   4.235   6.593   4.680
12377TIP3   OH237073   4.862   6.950   6.061
12377TIP3    H137074   4.937   6.992   6.016
12377TIP3    H237075   4.792   7.016   6.045
12378TIP3   OH237076   3.881   6.586   6.665
12378TIP3    H137077   3.961   6.544   6.631
12378TIP3    H237078   3.912   6.620   6.752
12379TIP3   OH237079   3.938   6.404   5.089
12379TIP3    H137080   3.915   6.362   5.173
12379TIP3    H237081   3.980   6.330   5.040
12380TIP3   OH237082   4.220   6.470   6.324
12380TIP3    H137083   4.139   6.526   6.325
12380TIP3    H237084   4.268   6.504   6.245
12381TIP3   OH237085   4.051   6.201   4.933
12381TIP3    H137086   4.025   6.210   4.839
12381TIP3    H237087   4.148   6.205   4.925
12382TIP3   OH237088   4.734   6.870   6.455
12382TIP3    H137089   4.809   6.836   6.403
12382TIP3    H237090   4.727   6.805   6.527
12383TIP3   OH237091   4.870   6.554   4.595
12383TIP3    H137092   4.838   6.510   4.514
12383TIP3    H237093   4.837   6.645   4.582
12384TIP3   OH237094   4.342   6.259   6.445
12384TIP3    H137095   4.341   6.181   6.386
12384TIP3    H237096   4.298   6.327   6.389
12385TIP3   OH237097   4.344   6.045   6.255
12385TIP3    H137098   4.371   6.087   6.171
12385TIP3    H237099   4.250   6.022   6.236
12386TIP3   OH237100   4.366   6.579   6.129
12386TIP3    H137101   4.451   6.596   6.087
12386TIP3    H237102   4.308   6.644   6.082
12387TIP3   OH237103   4.948   6.544   6.505
12387TIP3    H137104   4.997   6.461   6.516
12387TIP3    H237105   5.015   6.602   6.468
12388TIP3   OH237106   4.990   6.799   6.245
12388TIP3    H137107   4.932   6.855   6.187
12388TIP3    H237108   5.078   6.821   6.206
12389TIP3   OH237109   4.221   6.361   6.682
12389TIP3    H137110   4.152   6.293   6.697
12389TIP3    H237111   4.252   6.339   6.592
12390TIP3   OH237112   4.474   5.806   6.326
12390TIP3    H137113   4.424   5.887   6.302
12390TIP3    H237114   4.405   5.737   6.314
12391TIP3   OH237115   4.600   6.306   6.539
12391TIP3    H137116   4.582   6.291   6.634
12391TIP3    H237117   4.512   6.285   6.503
12392TIP3   OH237118   4.839   6.259   6.395
12392TIP3    H137119   4.763   6.260   6.457
12392TIP3    H237120   4.912   6.229   6.452
12393TIP3   OH237121   5.072   6.204   6.544
12393TIP3    H137122   5.084   6.108   6.558
12393TIP3    H237123   5.066   6.239   6.635
12394TIP3   OH237124   4.057   6.143   6.736
12394TIP3    H137125   4.060   6.051   6.703
12394TIP3    H237126   4.095   6.130   6.826
12395TIP3   OH237127   4.567   5.816   6.584
12395TIP3    H137128   4.632   5.744   6.577
12395TIP3    H237129   4.527   5.812   6.495
12396TIP3   OH237130   4.635   6.030   6.741
12396TIP3    H137131   4.614   5.959   6.677
12396TIP3    H237132   4.557   6.088   6.734
12397TIP3   OH237133   3.863   7.264   4.842
12397TIP3    H137134   3.957   7.252   4.820
12397TIP3    H237135   3.835   7.314   4.762
12398TIP3   OH237136   3.336   6.643   5.053
12398TIP3    H137137   3.431   6.664   5.039
12398TIP3    H237138   3.330   6.554   5.012
12399TIP3   OH237139   3.256   7.254   5.471
12399TIP3    H137140   3.188   7.194   5.432
12399TIP3    H237141   3.298   7.193   5.536
12400TIP3   OH237142   3.387   7.098   5.657
12400TIP3    H137143   3.372   7.030   5.725
12400TIP3    H237144   3.439   7.162   5.709
12401TIP3   OH237145   5.119   7.498   5.459
12401TIP3    H137146   5.141   7.534   5.547
12401TIP3    H237147   5.180   7.545   5.401
12402TIP3   OH237148   5.141   7.524   5.741
12402TIP3    H137149   5.096   7.437   5.736
12402TIP3    H237150   5.217   7.500   5.797
12403TIP3   OH237151   5.192   7.200   6.315
12403TIP3    H137152   5.119   7.210   6.379
12403TIP3    H237153   5.233   7.289   6.318
12404TIP3   OH237154   5.012   6.704   4.926
12404TIP3    H137155   5.070   6.777   4.897
12404TIP3    H237156   5.057   6.673   5.007
12405TIP3   OH237157   5.140   6.576   5.136
12405TIP3    H137158   5.069   6.538   5.193
12405TIP3    H237159   5.199   6.617   5.202
12406TIP3   OH237160   5.194   6.978   5.570
12406TIP3    H137161   5.243   6.909   5.520
12406TIP3    H237162   5.188   7.050   5.504
12407TIP3   OH237163   5.017   7.274   5.762
12407TIP3    H137164   4.945   7.317   5.812
12407TIP3    H237165   4.968   7.229   5.690
12408TIP3   OH237166   5.067   6.484   4.774
12408TIP3    H137167   4.997   6.496   4.706
12408TIP3    H237168   5.044   6.561   4.832
12409TIP3   OH237169   4.949   6.153   4.730
12409TIP3    H137170   4.895   6.204   4.669
12409TIP3    H237171   4.921   6.061   4.709
12410TIP3   OH237172   4.949   6.441   5.282
12410TIP3    H137173   4.952   6.344   5.275
12410TIP3    H237174   4.932   6.454   5.378
12411TIP3   OH237175   3.571   6.508   6.031
12411TIP3    H137176   3.567   6.475   5.939
12411TIP3    H237177   3.668   6.511   6.045
12412TIP3   OH237178   5.237   6.864   6.140
12412TIP3    H137179   5.308   6.798   6.126
12412TIP3    H237180   5.258   6.932   6.074
12413TIP3   OH237181   5.419   6.663   6.142
12413TIP3    H137182   5.344   6.616   6.184
12413TIP3    H237183   5.492   6.599   6.162
12414TIP3   OH237184   4.887   5.883   4.714
12414TIP3    H137185   4.931   5.860   4.797
12414TIP3    H237186   4.798   5.842   4.725
12415TIP3   OH237187   4.945   6.157   5.174
12415TIP3    H137188   4.987   6.069   5.186
12415TIP3    H237189   5.001   6.193   5.103
12416TIP3   OH237190   5.103   6.321   5.672
12416TIP3    H137191   5.188   6.347   5.629
12416TIP3    H237192   5.116   6.361   5.759
12417TIP3   OH237193   5.175   6.473   5.898
12417TIP3    H137194   5.098   6.506   5.948
12417TIP3    H237195   5.207   6.555   5.855
12418TIP3   OH237196   3.790   6.195   6.703
12418TIP3    H137197   3.888   6.190   6.707
12418TIP3    H237198   3.766   6.108   6.741
12419TIP3   OH237199   5.628   6.069   6.456
12419TIP3    H137200   5.687   6.003   6.413
12419TIP3    H237201   5.595   6.119   6.378
12420TIP3   OH237202   5.057   5.904   5.208
12420TIP3    H137203   5.099   5.889   5.295
12420TIP3    H237204   4.992   5.832   5.208
12421TIP3   OH237205   3.753   5.891   6.034
12421TIP3    H137206   3.814   5.816   6.041
12421TIP3    H237207   3.815   5.965   6.024
12422TIP3   OH237208   3.552   6.162   6.105
12422TIP3    H137209   3.602   6.160   6.021
12422TIP3    H237210   3.576   6.249   6.140
12423TIP3   OH237211   5.493   6.200   6.260
12423TIP3    H137212   5.407   6.244   6.278
12423TIP3    H237213   5.460   6.127   6.203
12424TIP3   OH237214   5.144   5.844   4.844
12424TIP3    H137215   5.156   5.802   4.756
12424TIP3    H237216   5.184   5.933   4.830
12425TIP3   OH237217   3.539   5.665   5.605
12425TIP3    H137218   3.447   5.660   5.635
12425TIP3    H237219   3.532   5.724   5.528
12426TIP3   OH237220   4.696   7.374   5.112
12426TIP3    H137221   4.747   7.358   5.029
12426TIP3    H237222   4.753   7.438   5.158
12427TIP3   OH237223   3.759   5.746   6.420
12427TIP3    H137224   3.707   5.742   6.502
12427TIP3    H237225   3.694   5.785   6.358
12428TIP3   OH237226   3.799   7.170   6.495
12428TIP3    H137227   3.704   7.154   6.479
12428TIP3    H237228   3.804   7.166   6.591
12429TIP3   OH237229   3.980   7.212   6.045
12429TIP3    H137230   3.931   7.288   6.007
12429TIP3    H237231   4.065   7.227   5.999
12430TIP3   OH237232   4.417   7.450   6.181
12430TIP3    H137233   4.458   7.451   6.270
12430TIP3    H237234   4.482   7.504   6.130
12431TIP3   OH237235   4.595   7.607   6.045
12431TIP3    H137236   4.665   7.557   6.000
12431TIP3    H237237   4.649   7.664   6.105
12432TIP3   OH237238   5.395   5.962   6.141
12432TIP3    H137239   5.305   5.952   6.106
12432TIP3    H237240   5.429   5.870   6.132
12433TIP3   OH237241   3.653   7.466   6.072
12433TIP3    H137242   3.561   7.495   6.051
12433TIP3    H237243   3.668   7.516   6.153
12434TIP3   OH237244   3.889   7.445   5.930
12434TIP3    H137245   3.801   7.456   5.973
12434TIP3    H237246   3.869   7.475   5.839
12435TIP3   OH237247   4.313   7.469   5.728
12435TIP3    H137248   4.244   7.486   5.661
12435TIP3    H237249   4.325   7.557   5.769
12436TIP3   OH237250   4.583   7.409   5.781
12436TIP3    H137251   4.489   7.426   5.760
12436TIP3    H237252   4.628   7.480   5.733
12437TIP3   OH237253   4.788   7.600   5.690
12437TIP3    H137254   4.775   7.685   5.642
12437TIP3    H237255   4.815   7.540   5.617
12438TIP3   OH237256   3.564   7.259   5.812
12438TIP3    H137257   3.590   7.229   5.902
12438TIP3    H237258   3.636   7.216   5.761
12439TIP3   OH237259   3.760   7.132   5.673
12439TIP3    H137260   3.774   7.047   5.723
12439TIP3    H237261   3.851   7.167   5.670
12440TIP3   OH237262   4.028   7.224   5.678
12440TIP3    H137263   4.056   7.131   5.667
12440TIP3    H237264   4.077   7.245   5.761
12441TIP3   OH237265   4.605   5.881   5.770
12441TIP3    H137266   4.558   5.810   5.817
12441TIP3    H237267   4.674   5.833   5.721
12442TIP3   OH237268   5.118   5.757   5.661
12442TIP3    H137269   5.153   5.812   5.588
12442TIP3    H237270   5.023   5.780   5.658
12443TIP3   OH237271   5.218   5.855   5.426
12443TIP3    H137272   5.295   5.805   5.391
12443TIP3    H237273   5.252   5.947   5.414
12444TIP3   OH237274   3.847   5.587   5.776
12444TIP3    H137275   3.754   5.555   5.779
12444TIP3    H237276   3.895   5.501   5.771
12445TIP3   OH237277   3.640   5.461   5.428
12445TIP3    H137278   3.667   5.517   5.353
12445TIP3    H237279   3.611   5.527   5.493
12446TIP3   OH237280   4.297   5.618   5.658
12446TIP3    H137281   4.351   5.667   5.595
12446TIP3    H237282   4.322   5.660   5.742
12447TIP3   OH237283   4.836   5.769   5.640
12447TIP3    H137284   4.831   5.728   5.553
12447TIP3    H237285   4.826   5.690   5.699
12448TIP3   OH237286   4.872   5.693   5.202
12448TIP3    H137287   4.787   5.739   5.221
12448TIP3    H237288   4.855   5.608   5.247
12449TIP3   OH237289   3.351   7.035   5.200
12449TIP3    H137290   3.265   7.002   5.169
12449TIP3    H237291   3.342   7.129   5.174
12450TIP3   OH237292   3.756   5.614   5.189
12450TIP3    H137293   3.802   5.552   5.129
12450TIP3    H237294   3.829   5.668   5.222
12451TIP3   OH237295   4.261   5.796   5.286
12451TIP3    H137296   4.321   5.749   5.346
12451TIP3    H237297   4.283   5.889   5.312
12452TIP3   OH237298   4.129   7.218   4.785
12452TIP3    H137299   4.218   7.236   4.748
12452TIP3    H237300   4.104   7.142   4.727
12453TIP3   OH237301   4.847   7.336   4.882
12453TIP3    H137302   4.836   7.237   4.876
12453TIP3    H237303   4.800   7.364   4.801
12454TIP3   OH237304   4.054   5.868   6.670
12454TIP3    H137305   4.019   5.797   6.726
12454TIP3    H237306   4.149   5.868   6.697
12455TIP3   OH237307   4.306   5.868   6.788
12455TIP3    H137308   4.390   5.842   6.748
12455TIP3    H237309   4.293   5.797   6.855
12456TIP3   OH237310   3.429   7.052   4.839
12456TIP3    H137311   3.433   7.067   4.935
12456TIP3    H237312   3.516   7.008   4.822
12457TIP3   OH237313   5.133   5.932   6.573
12457TIP3    H137314   5.150   5.901   6.665
12457TIP3    H237315   5.222   5.926   6.534
12458TIP3   OH237316   5.067   7.480   6.066
12458TIP3    H137317   4.988   7.450   6.015
12458TIP3    H237318   5.047   7.576   6.073
12459TIP3   OH237319   6.340   6.854   4.830
12459TIP3    H137320   6.302   6.943   4.809
12459TIP3    H237321   6.265   6.799   4.801
12460TIP3   OH237322   6.335   6.855   5.216
12460TIP3    H137323   6.368   6.827   5.304
12460TIP3    H237324   6.295   6.774   5.183
12461TIP3   OH237325   5.633   6.745   5.579
12461TIP3    H137326   5.664   6.676   5.640
12461TIP3    H237327   5.711   6.802   5.573
12462TIP3   OH237328   6.596   7.144   4.901
12462TIP3    H137329   6.553   7.096   4.973
12462TIP3    H237330   6.620   7.228   4.944
12463TIP3   OH237331   5.610   7.161   5.301
12463TIP3    H137332   5.601   7.063   5.302
12463TIP3    H237333   5.706   7.169   5.291
12464TIP3   OH237334   5.313   6.355   5.083
12464TIP3    H137335   5.268   6.439   5.106
12464TIP3    H237336   5.239   6.311   5.036
12465TIP3   OH237337   5.372   6.650   5.268
12465TIP3    H137338   5.423   6.572   5.299
12465TIP3    H237339   5.429   6.688   5.201
12466TIP3   OH237340   6.230   7.621   4.917
12466TIP3    H137341   6.271   7.551   4.861
12466TIP3    H237342   6.221   7.575   5.001
12467TIP3   OH237343   6.130   7.082   5.263
12467TIP3    H137344   6.169   7.007   5.214
12467TIP3    H237345   6.213   7.126   5.290
12468TIP3   OH237346   7.153   6.394   5.249
12468TIP3    H137347   7.182   6.477   5.293
12468TIP3    H237348   7.204   6.398   5.165
12469TIP3   OH237349   6.557   6.583   5.282
12469TIP3    H137350   6.595   6.496   5.301
12469TIP3    H237351   6.522   6.568   5.192
12470TIP3   OH237352   5.889   6.241   5.256
12470TIP3    H137353   5.869   6.314   5.194
12470TIP3    H237354   5.838   6.168   5.214
12471TIP3   OH237355   6.577   6.338   4.878
12471TIP3    H137356   6.650   6.325   4.943
12471TIP3    H237357   6.629   6.371   4.802
12472TIP3   OH237358   5.518   6.441   5.367
12472TIP3    H137359   5.602   6.423   5.415
12472TIP3    H237360   5.534   6.387   5.287
12473TIP3   OH237361   5.957   6.640   5.164
12473TIP3    H137362   6.052   6.616   5.175
12473TIP3    H237363   5.920   6.556   5.129
12474TIP3   OH237364   7.223   6.603   5.421
12474TIP3    H137365   7.137   6.648   5.408
12474TIP3    H237366   7.240   6.628   5.514
12475TIP3   OH237367   5.881   6.225   5.695
12475TIP3    H137368   5.823   6.262   5.626
12475TIP3    H237369   5.827   6.242   5.774
12476TIP3   OH237370   6.202   7.062   4.714
12476TIP3    H137371   6.192   7.065   4.617
12476TIP3    H237372   6.169   7.152   4.738
12477TIP3   OH237373   5.987   7.001   5.484
12477TIP3    H137374   5.928   7.071   5.519
12477TIP3    H237375   6.030   7.047   5.409
12478TIP3   OH237376   6.781   6.331   5.058
12478TIP3    H137377   6.761   6.271   5.132
12478TIP3    H237378   6.878   6.334   5.057
12479TIP3   OH237379   5.755   6.339   5.476
12479TIP3    H137380   5.816   6.412   5.500
12479TIP3    H237381   5.805   6.299   5.401
12480TIP3   OH237382   5.819   7.198   5.586
12480TIP3    H137383   5.794   7.285   5.548
12480TIP3    H237384   5.739   7.180   5.639
12481TIP3   OH237385   5.205   6.888   4.817
12481TIP3    H137386   5.155   6.916   4.739
12481TIP3    H237387   5.235   6.974   4.852
12482TIP3   OH237388   6.651   7.402   5.062
12482TIP3    H137389   6.561   7.394   5.101
12482TIP3    H237390   6.642   7.487   5.015
12483TIP3   OH237391   6.943   6.306   5.427
12483TIP3    H137392   6.852   6.320   5.395
12483TIP3    H237393   6.996   6.331   5.348
12484TIP3   OH237394   6.231   5.935   5.409
12484TIP3    H137395   6.217   5.840   5.431
12484TIP3    H237396   6.155   5.975   5.457
12485TIP3   OH237397   6.345   7.451   4.733
12485TIP3    H137398   6.389   7.364   4.715
12485TIP3    H237399   6.412   7.510   4.690
12486TIP3   OH237400   6.472   7.223   4.658
12486TIP3    H137401   6.491   7.166   4.582
12486TIP3    H237402   6.522   7.179   4.730
12487TIP3   OH237403   6.853   7.311   5.402
12487TIP3    H137404   6.846   7.236   5.338
12487TIP3    H237405   6.838   7.389   5.345
12488TIP3   OH237406   6.168   6.705   4.667
12488TIP3    H137407   6.090   6.762   4.649
12488TIP3    H237408   6.213   6.705   4.581
12489TIP3   OH237409   6.124   6.496   4.373
12489TIP3    H137410   6.190   6.549   4.422
12489TIP3    H237411   6.184   6.434   4.327
12490TIP3   OH237412   7.039   6.915   5.212
12490TIP3    H137413   6.964   6.978   5.229
12490TIP3    H237414   7.094   6.971   5.153
12491TIP3   OH237415   6.509   6.786   4.627
12491TIP3    H137416   6.455   6.814   4.705
12491TIP3    H237417   6.596   6.774   4.667
12492TIP3   OH237418   6.742   6.812   5.540
12492TIP3    H137419   6.744   6.894   5.595
12492TIP3    H237420   6.653   6.821   5.500
12493TIP3   OH237421   5.744   6.782   5.054
12493TIP3    H137422   5.706   6.726   4.984
12493TIP3    H237423   5.822   6.730   5.083
12494TIP3   OH237424   5.874   7.197   5.198
12494TIP3    H137425   5.855   7.167   5.108
12494TIP3    H237426   5.962   7.160   5.215
12495TIP3   OH237427   5.883   6.756   5.408
12495TIP3    H137428   5.915   6.732   5.318
12495TIP3    H237429   5.925   6.843   5.423
12496TIP3   OH237430   6.410   7.394   5.184
12496TIP3    H137431   6.394   7.476   5.234
12496TIP3    H237432   6.391   7.324   5.250
12497TIP3   OH237433   6.020   7.312   5.735
12497TIP3    H137434   5.957   7.375   5.778
12497TIP3    H237435   5.957   7.260   5.681
12498TIP3   OH237436   6.343   6.650   4.456
12498TIP3    H137437   6.406   6.707   4.505
12498TIP3    H237438   6.370   6.670   4.363
12499TIP3   OH237439   5.777   6.863   5.840
12499TIP3    H137440   5.781   6.954   5.877
12499TIP3    H237441   5.681   6.845   5.851
12500TIP3   OH237442   6.102   7.325   4.738
12500TIP3    H137443   6.185   7.376   4.742
12500TIP3    H237444   6.041   7.387   4.695
12501TIP3   OH237445   5.813   7.479   5.820
12501TIP3    H137446   5.780   7.484   5.728
12501TIP3    H237447   5.732   7.456   5.871
12502TIP3   OH237448   6.869   5.875   4.516
12502TIP3    H137449   6.786   5.907   4.558
12502TIP3    H237450   6.899   5.956   4.468
12503TIP3   OH237451   5.615   6.629   4.849
12503TIP3    H137452   5.544   6.676   4.799
12503TIP3    H237453   5.572   6.545   4.867
12504TIP3   OH237454   6.675   7.272   4.041
12504TIP3    H137455   6.637   7.355   4.008
12504TIP3    H237456   6.701   7.299   4.132
12505TIP3   OH237457   5.393   7.013   5.765
12505TIP3    H137458   5.324   6.997   5.698
12505TIP3    H237459   5.429   6.924   5.781
12506TIP3   OH237460   5.248   7.205   5.398
12506TIP3    H137461   5.344   7.205   5.389
12506TIP3    H237462   5.233   7.286   5.450
12507TIP3   OH237463   6.216   7.439   5.588
12507TIP3    H137464   6.215   7.532   5.620
12507TIP3    H237465   6.143   7.400   5.642
12508TIP3   OH237466   5.981   7.566   4.544
12508TIP3    H137467   5.934   7.552   4.460
12508TIP3    H237468   5.948   7.654   4.571
12509TIP3   OH237469   5.418   7.418   4.925
12509TIP3    H137470   5.462   7.409   5.012
12509TIP3    H237471   5.367   7.334   4.921
12510TIP3   OH237472   6.174   7.471   4.178
12510TIP3    H137473   6.236   7.404   4.142
12510TIP3    H237474   6.213   7.487   4.267
12511TIP3   OH237475   6.231   7.523   4.444
12511TIP3    H137476   6.145   7.529   4.492
12511TIP3    H237477   6.290   7.489   4.512
12512TIP3   OH237478   7.020   6.789   5.726
12512TIP3    H137479   6.943   6.820   5.676
12512TIP3    H237480   7.023   6.695   5.702
12513TIP3   OH237481   5.598   7.195   5.747
12513TIP3    H137482   5.645   7.179   5.831
12513TIP3    H237483   5.523   7.133   5.754
12514TIP3   OH237484   5.997   6.019   5.541
12514TIP3    H137485   5.909   5.989   5.510
12514TIP3    H237486   5.970   6.099   5.590
12515TIP3   OH237487   6.531   6.134   5.734
12515TIP3    H137488   6.600   6.102   5.796
12515TIP3    H237489   6.448   6.112   5.780
12516TIP3   OH237490   6.783   6.570   5.665
12516TIP3    H137491   6.720   6.566   5.740
12516TIP3    H237492   6.753   6.650   5.616
12517TIP3   OH237493   6.417   6.688   4.200
12517TIP3    H137494   6.394   6.661   4.109
12517TIP3    H237495   6.506   6.726   4.184
12518TIP3   OH237496   6.130   6.074   4.505
12518TIP3    H137497   6.101   6.068   4.598
12518TIP3    H237498   6.102   5.986   4.473
12519TIP3   OH237499   5.931   6.535   5.558
12519TIP3    H137500   5.878   6.554   5.638
12519TIP3    H237501   5.915   6.616   5.505
12520TIP3   OH237502   5.813   6.422   5.070
12520TIP3    H137503   5.720   6.397   5.089
12520TIP3    H237504   5.824   6.381   4.982
12521TIP3   OH237505   6.305   6.502   4.795
12521TIP3    H137506   6.255   6.574   4.750
12521TIP3    H237507   6.364   6.471   4.724
12522TIP3   OH237508   6.475   6.780   5.886
12522TIP3    H137509   6.452   6.707   5.946
12522TIP3    H237510   6.570   6.790   5.904
12523TIP3   OH237511   6.440   6.523   5.039
12523TIP3    H137512   6.383   6.548   4.964
12523TIP3    H237513   6.489   6.451   4.995
12524TIP3   OH237514   5.751   6.562   5.764
12524TIP3    H137515   5.768   6.628   5.832
12524TIP3    H237516   5.737   6.481   5.817
12525TIP3   OH237517   5.790   6.034   4.474
12525TIP3    H137518   5.786   6.034   4.572
12525TIP3    H237519   5.716   6.095   4.454
12526TIP3   OH237520   5.349   6.076   5.344
12526TIP3    H137521   5.410   6.116   5.409
12526TIP3    H237522   5.403   6.073   5.264
12527TIP3   OH237523   5.305   6.069   4.864
12527TIP3    H137524   5.350   6.106   4.785
12527TIP3    H237525   5.245   6.144   4.884
12528TIP3   OH237526   6.472   6.774   5.453
12528TIP3    H137527   6.506   6.703   5.394
12528TIP3    H237528   6.439   6.720   5.528
12529TIP3   OH237529   6.148   6.238   5.130
12529TIP3    H137530   6.066   6.238   5.184
12529TIP3    H237531   6.217   6.237   5.198
12530TIP3   OH237532   5.575   6.301   5.138
12530TIP3    H137533   5.481   6.309   5.107
12530TIP3    H237534   5.600   6.211   5.111
12531TIP3   OH237535   5.838   6.291   4.832
12531TIP3    H137536   5.932   6.307   4.811
12531TIP3    H237537   5.792   6.313   4.748
12532TIP3   OH237538   6.636   6.317   5.342
12532TIP3    H137539   6.599   6.334   5.431
12532TIP3    H237540   6.567   6.259   5.304
12533TIP3   OH237541   5.692   6.324   4.605
12533TIP3    H137542   5.617   6.287   4.556
12533TIP3    H237543   5.745   6.363   4.532
12534TIP3   OH237544   5.760   7.116   5.971
12534TIP3    H137545   5.837   7.151   6.019
12534TIP3    H237546   5.694   7.115   6.043
12535TIP3   OH237547   6.222   6.573   5.228
12535TIP3    H137548   6.297   6.538   5.177
12535TIP3    H237549   6.229   6.525   5.312
12536TIP3   OH237550   5.738   6.058   5.112
12536TIP3    H137551   5.708   5.979   5.163
12536TIP3    H237552   5.792   6.018   5.043
12537TIP3   OH237553   6.198   6.472   5.516
12537TIP3    H137554   6.107   6.505   5.529
12537TIP3    H237555   6.253   6.536   5.565
12538TIP3   OH237556   5.937   6.856   4.613
12538TIP3    H137557   5.863   6.794   4.601
12538TIP3    H237558   5.918   6.892   4.703
12539TIP3   OH237559   6.831   7.092   5.231
12539TIP3    H137560   6.854   7.144   5.151
12539TIP3    H237561   6.742   7.057   5.209
12540TIP3   OH237562   6.393   6.163   4.489
12540TIP3    H137563   6.295   6.150   4.487
12540TIP3    H237564   6.403   6.259   4.504
12541TIP3   OH237565   6.327   7.176   5.612
12541TIP3    H137566   6.363   7.165   5.701
12541TIP3    H237567   6.294   7.268   5.613
12542TIP3   OH237568   6.464   6.421   4.572
12542TIP3    H137569   6.560   6.415   4.561
12542TIP3    H237570   6.443   6.499   4.518
12543TIP3   OH237571   5.631   6.883   5.287
12543TIP3    H137572   5.668   6.854   5.202
12543TIP3    H237573   5.672   6.822   5.349
12544TIP3   OH237574   6.078   7.005   4.429
12544TIP3    H137575   6.031   7.092   4.436
12544TIP3    H237576   6.029   6.953   4.496
12545TIP3   OH237577   5.513   6.795   5.900
12545TIP3    H137578   5.523   6.780   5.997
12545TIP3    H237579   5.439   6.735   5.879
12546TIP3   OH237580   6.234   6.916   5.923
12546TIP3    H137581   6.170   6.858   5.879
12546TIP3    H237582   6.319   6.880   5.889
12547TIP3   OH237583   6.486   7.425   5.499
12547TIP3    H137584   6.389   7.432   5.512
12547TIP3    H237585   6.517   7.475   5.578
12548TIP3   OH237586   7.103   7.321   5.500
12548TIP3    H137587   7.009   7.338   5.476
12548TIP3    H237588   7.139   7.310   5.409
12549TIP3   OH237589   6.590   6.959   5.169
12549TIP3    H137590   6.493   6.950   5.178
12549TIP3    H237591   6.613   6.867   5.153
12550TIP3   OH237592   5.732   7.188   4.917
12550TIP3    H137593   5.729   7.268   4.861
12550TIP3    H237594   5.638   7.169   4.928
12551TIP3   OH237595   5.298   6.488   4.624
12551TIP3    H137596   5.339   6.575   4.644
12551TIP3    H237597   5.218   6.492   4.680
12552TIP3   OH237598   5.857   6.947   4.854
12552TIP3    H137599   5.828   7.038   4.874
12552TIP3    H237600   5.822   6.899   4.932
12553TIP3   OH237601   6.001   7.528   5.381
12553TIP3    H137602   6.041   7.601   5.329
12553TIP3    H237603   6.079   7.492   5.426
12554TIP3   OH237604   5.648   7.424   4.766
12554TIP3    H137605   5.562   7.433   4.812
12554TIP3    H237606   5.680   7.517   4.769
12555TIP3   OH237607   6.381   7.159   5.345
12555TIP3    H137608   6.368   7.160   5.442
12555TIP3    H237609   6.467   7.115   5.339
12556TIP3   OH237610   6.362   7.059   4.226
12556TIP3    H137611   6.419   7.042   4.304
12556TIP3    H237612   6.276   7.031   4.262
12557TIP3   OH237613   6.617   7.700   5.393
12557TIP3    H137614   6.539   7.644   5.375
12557TIP3    H237615   6.612   7.763   5.319
12558TIP3   OH237616   5.716   6.307   5.907
12558TIP3    H137617   5.619   6.309   5.917
12558TIP3    H237618   5.742   6.249   5.980
12559TIP3   OH237619   6.517   7.001   4.448
12559TIP3    H137620   6.511   6.925   4.509
12559TIP3    H237621   6.614   7.002   4.429
12560TIP3   OH237622   5.439   7.390   5.538
12560TIP3    H137623   5.493   7.321   5.579
12560TIP3    H237624   5.462   7.467   5.592
12561TIP3   OH237625   5.726   7.038   4.224
12561TIP3    H137626   5.743   6.945   4.202
12561TIP3    H237627   5.707   7.032   4.320
12562TIP3   OH237628   5.675   7.043   4.495
12562TIP3    H137629   5.748   7.018   4.553
12562TIP3    H237630   5.676   7.141   4.504
12563TIP3   OH237631   5.403   6.734   4.703
12563TIP3    H137632   5.334   6.780   4.756
12563TIP3    H237633   5.417   6.802   4.634
12564TIP3   OH237634   6.560   6.374   5.603
12564TIP3    H137635   6.644   6.401   5.643
12564TIP3    H237636   6.542   6.289   5.649
12565TIP3   OH237637   6.436   6.119   4.764
12565TIP3    H137638   6.424   6.136   4.669
12565TIP3    H237639   6.478   6.202   4.795
12566TIP3   OH237640   5.939   7.237   4.444
12566TIP3    H137641   5.851   7.261   4.480
12566TIP3    H237642   5.958   7.318   4.393
12567TIP3   OH237643   6.121   6.305   4.861
12567TIP3    H137644   6.187   6.375   4.841
12567TIP3    H237645   6.131   6.297   4.959
12568TIP3   OH237646   6.396   6.618   5.663
12568TIP3    H137647   6.420   6.668   5.743
12568TIP3    H237648   6.447   6.535   5.673
12569TIP3   OH237649   6.265   6.022   4.961
12569TIP3    H137650   6.252   6.103   5.014
12569TIP3    H237651   6.329   6.056   4.893
12570TIP3   OH237652   5.685   7.314   4.516
12570TIP3    H137653   5.654   7.384   4.454
12570TIP3    H237654   5.668   7.356   4.603
12571TIP3   OH237655   5.782   6.027   4.751
12571TIP3    H137656   5.780   6.117   4.788
12571TIP3    H237657   5.879   6.009   4.758
12572TIP3   OH237658   7.037   6.490   5.633
12572TIP3    H137659   6.945   6.510   5.660
12572TIP3    H237660   7.019   6.463   5.541
12573TIP3   OH237661   5.413   6.936   4.509
12573TIP3    H137662   5.481   7.005   4.515
12573TIP3    H237663   5.453   6.880   4.439
12574TIP3   OH237664   5.339   6.217   4.639
12574TIP3    H137665   5.344   6.315   4.639
12574TIP3    H237666   5.256   6.203   4.591
12575TIP3   OH237667   6.658   7.669   4.982
12575TIP3    H137668   6.614   7.716   4.907
12575TIP3    H237669   6.752   7.687   4.959
12576TIP3   OH237670   5.732   5.939   5.510
12576TIP3    H137671   5.705   5.902   5.423
12576TIP3    H237672   5.724   5.861   5.569
12577TIP3   OH237673   5.266   7.159   4.889
12577TIP3    H137674   5.201   7.186   4.956
12577TIP3    H237675   5.229   7.202   4.808
12578TIP3   OH237676   5.434   7.705   5.961
12578TIP3    H137677   5.520   7.704   6.009
12578TIP3    H237678   5.412   7.611   5.961
12579TIP3   OH237679   5.911   7.647   6.017
12579TIP3    H137680   6.006   7.640   5.999
12579TIP3    H237681   5.876   7.593   5.944
12580TIP3   OH237682   5.888   7.239   4.130
12580TIP3    H137683   5.834   7.168   4.171
12580TIP3    H237684   5.967   7.190   4.102
12581TIP3   OH237685   6.534   7.543   5.739
12581TIP3    H137686   6.531   7.483   5.818
12581TIP3    H237687   6.608   7.603   5.760
12582TIP3   OH237688   6.325   7.280   4.051
12582TIP3    H137689   6.366   7.215   4.113
12582TIP3    H237690   6.382   7.274   3.972
12583TIP3   OH237691   5.558   7.106   6.163
12583TIP3    H137692   5.573   7.009   6.168
12583TIP3    H237693   5.470   7.110   6.118
12584TIP3   OH237694   5.542   6.750   4.361
12584TIP3    H137695   5.599   6.726   4.437
12584TIP3    H237696   5.609   6.757   4.290
12585TIP3   OH237697   6.167   7.191   5.934
12585TIP3    H137698   6.121   7.212   5.849
12585TIP3    H237699   6.195   7.098   5.921
12586TIP3   OH237700   6.047   6.950   4.163
12586TIP3    H137701   6.052   6.966   4.259
12586TIP3    H237702   6.048   6.852   4.160
12587TIP3   OH237703   6.646   7.204   5.544
12587TIP3    H137704   6.722   7.246   5.499
12587TIP3    H237705   6.578   7.272   5.528
12588TIP3   OH237706   5.677   6.846   6.152
12588TIP3    H137707   5.753   6.795   6.121
12588TIP3    H237708   5.708   6.877   6.239
12589TIP3   OH237709   5.736   6.664   4.577
12589TIP3    H137710   5.710   6.631   4.665
12589TIP3    H237711   5.778   6.585   4.537
12590TIP3   OH237712   6.018   6.729   5.814
12590TIP3    H137713   5.936   6.783   5.812
12590TIP3    H237714   6.065   6.763   5.733
12591TIP3   OH237715   5.853   6.454   4.424
12591TIP3    H137716   5.836   6.475   4.331
12591TIP3    H237717   5.951   6.458   4.424
12592TIP3   OH237718   6.530   7.127   5.951
12592TIP3    H137719   6.611   7.106   5.903
12592TIP3    H237720   6.528   7.057   6.018
12593TIP3   OH237721   6.650   6.779   4.089
12593TIP3    H137722   6.638   6.733   4.004
12593TIP3    H237723   6.621   6.870   4.065
12594TIP3   OH237724   6.140   6.516   5.930
12594TIP3    H137725   6.137   6.438   5.871
12594TIP3    H237726   6.095   6.584   5.875
12595TIP3   OH237727   6.139   6.303   5.742
12595TIP3    H137728   6.166   6.343   5.657
12595TIP3    H237729   6.046   6.279   5.724
12596TIP3   OH237730   6.162   6.838   5.616
12596TIP3    H137731   6.247   6.853   5.572
12596TIP3    H237732   6.103   6.901   5.570
12597TIP3   OH237733   6.746   6.795   6.003
12597TIP3    H137734   6.789   6.713   5.972
12597TIP3    H237735   6.806   6.864   5.969
12598TIP3   OH237736   6.776   7.031   5.703
12598TIP3    H137737   6.719   7.093   5.651
12598TIP3    H237738   6.865   7.054   5.665
12599TIP3   OH237739   6.019   6.617   6.168
12599TIP3    H137740   5.950   6.549   6.183
12599TIP3    H237741   6.048   6.595   6.077
12600TIP3   OH237742   6.271   6.064   5.813
12600TIP3    H137743   6.220   6.144   5.789
12600TIP3    H237744   6.204   5.993   5.801
12601TIP3   OH237745   6.395   6.561   6.026
12601TIP3    H137746   6.372   6.544   6.120
12601TIP3    H237747   6.308   6.541   5.985
12602TIP3   OH237748   6.636   6.522   5.887
12602TIP3    H137749   6.557   6.517   5.944
12602TIP3    H237750   6.705   6.484   5.944
12603TIP3   OH237751   6.875   6.466   6.038
12603TIP3    H137752   6.882   6.368   6.048
12603TIP3    H237753   6.861   6.496   6.129
12604TIP3   OH237754   5.854   6.400   6.222
12604TIP3    H137755   5.855   6.308   6.189
12604TIP3    H237756   5.891   6.387   6.312
12605TIP3   OH237757   6.364   6.074   6.072
12605TIP3    H137758   6.429   6.001   6.065
12605TIP3    H237759   6.324   6.070   5.982
12606TIP3   OH237760   6.434   6.288   6.226
12606TIP3    H137761   6.412   6.216   6.163
12606TIP3    H237762   6.355   6.346   6.220
12607TIP3   OH237763   5.654   7.517   4.327
12607TIP3    H137764   5.750   7.507   4.309
12607TIP3    H237765   5.628   7.570   4.250
12608TIP3   OH237766   5.144   6.896   4.517
12608TIP3    H137767   5.241   6.913   4.516
12608TIP3    H237768   5.139   6.804   4.483
12609TIP3   OH237769   5.048   7.510   4.958
12609TIP3    H137770   4.983   7.448   4.918
12609TIP3    H237771   5.093   7.449   5.022
12610TIP3   OH237772   5.182   7.355   5.144
12610TIP3    H137773   5.167   7.287   5.211
12610TIP3    H237774   5.235   7.419   5.196
12611TIP3   OH237775   6.918   7.743   4.941
12611TIP3    H137776   6.938   7.783   5.028
12611TIP3    H237777   6.967   7.802   4.881
12612TIP3   OH237778   6.950   7.769   5.224
12612TIP3    H137779   6.904   7.681   5.226
12612TIP3    H237780   6.953   7.792   5.318
12613TIP3   OH237781   6.791   6.980   4.423
12613TIP3    H137782   6.857   7.046   4.398
12613TIP3    H237783   6.836   6.934   4.497
12614TIP3   OH237784   6.915   6.843   4.622
12614TIP3    H137785   6.867   6.788   4.688
12614TIP3    H237786   6.996   6.870   4.669
12615TIP3   OH237787   6.975   7.224   5.038
12615TIP3    H137788   7.025   7.175   4.972
12615TIP3    H237789   6.975   7.314   4.998
12616TIP3   OH237790   6.806   7.538   5.255
12616TIP3    H137791   6.735   7.580   5.307
12616TIP3    H237792   6.757   7.497   5.181
12617TIP3   OH237793   6.877   6.783   4.245
12617TIP3    H137794   6.798   6.760   4.192
12617TIP3    H237795   6.838   6.843   4.310
12618TIP3   OH237796   6.786   6.677   4.805
12618TIP3    H137797   6.791   6.590   4.758
12618TIP3    H237798   6.705   6.663   4.857
12619TIP3   OH237799   5.367   6.763   5.519
12619TIP3    H137800   5.363   6.732   5.427
12619TIP3    H237801   5.465   6.766   5.533
12620TIP3   OH237802   7.019   7.088   5.607
12620TIP3    H137803   7.108   7.054   5.626
12620TIP3    H237804   7.041   7.174   5.564
12621TIP3   OH237805   7.244   6.942   5.673
12621TIP3    H137806   7.161   6.896   5.701
12621TIP3    H237807   7.301   6.863   5.665
12622TIP3   OH237808   6.752   6.426   4.686
12622TIP3    H137809   6.791   6.337   4.700
12622TIP3    H237810   6.773   6.433   4.589
12623TIP3   OH237811   6.983   6.732   5.409
12623TIP3    H137812   6.894   6.754   5.442
12623TIP3    H237813   6.993   6.798   5.337
12624TIP3   OH237814   5.587   6.452   6.191
12624TIP3    H137815   5.685   6.447   6.195
12624TIP3    H237816   5.563   6.365   6.228
12625TIP3   OH237817   7.433   6.326   5.947
12625TIP3    H137818   7.478   6.249   5.909
12625TIP3    H237819   7.392   6.368   5.869
12626TIP3   OH237820   6.835   6.167   4.719
12626TIP3    H137821   6.891   6.137   4.793
12626TIP3    H237822   6.778   6.089   4.705
12627TIP3   OH237823   5.548   6.148   5.517
12627TIP3    H137824   5.610   6.073   5.527
12627TIP3    H237825   5.611   6.223   5.510
12628TIP3   OH237826   5.348   6.418   5.592
12628TIP3    H137827   5.398   6.418   5.508
12628TIP3    H237828   5.369   6.505   5.627
12629TIP3   OH237829   7.281   6.451   5.762
12629TIP3    H137830   7.226   6.497   5.829
12629TIP3    H237831   7.211   6.426   5.697
12630TIP3   OH237832   6.971   6.079   4.370
12630TIP3    H137833   6.972   6.032   4.283
12630TIP3    H237834   6.928   6.164   4.348
12631TIP3   OH237835   5.326   5.897   5.076
12631TIP3    H137836   5.246   5.913   5.129
12631TIP3    H237837   5.327   5.975   5.015
12632TIP3   OH237838   6.508   7.608   4.583
12632TIP3    H137839   6.566   7.568   4.516
12632TIP3    H237840   6.561   7.684   4.612
12633TIP3   OH237841   5.555   6.005   5.908
12633TIP3    H137842   5.503   5.998   5.989
12633TIP3    H237843   5.489   6.042   5.846
12634TIP3   OH237844   5.594   7.431   5.985
12634TIP3    H137845   5.501   7.410   5.967
12634TIP3    H237846   5.599   7.414   6.080
12635TIP3   OH237847   5.777   7.470   5.533
12635TIP3    H137848   5.727   7.544   5.494
12635TIP3    H237849   5.862   7.484   5.486
12636TIP3   OH237850   6.220   7.708   5.667
12636TIP3    H137851   6.254   7.710   5.759
12636TIP3    H237852   6.291   7.759   5.622
12637TIP3   OH237853   6.418   7.857   5.541
12637TIP3    H137854   6.481   7.801   5.492
12637TIP3    H237855   6.458   7.945   5.533
12638TIP3   OH237856   7.176   6.207   5.633
12638TIP3    H137857   7.093   6.250   5.607
12638TIP3    H237858   7.147   6.113   5.626
12639TIP3   OH237859   5.448   7.721   5.561
12639TIP3    H137860   5.357   7.749   5.536
12639TIP3    H237861   5.463   7.777   5.638
12640TIP3   OH237862   5.683   7.700   5.416
12640TIP3    H137863   5.596   7.712   5.459
12640TIP3    H237864   5.665   7.732   5.326
12641TIP3   OH237865   6.109   7.725   5.214
12641TIP3    H137866   6.040   7.742   5.147
12641TIP3    H237867   6.120   7.814   5.254
12642TIP3   OH237868   6.376   7.661   5.263
12642TIP3    H137869   6.283   7.684   5.244
12642TIP3    H237870   6.423   7.732   5.215
12643TIP3   OH237871   6.574   7.851   5.171
12643TIP3    H137872   6.560   7.936   5.124
12643TIP3    H237873   6.606   7.793   5.099
12644TIP3   OH237874   5.359   7.515   5.299
12644TIP3    H137875   5.385   7.486   5.389
12644TIP3    H237876   5.432   7.473   5.247
12645TIP3   OH237877   5.555   7.388   5.161
12645TIP3    H137878   5.570   7.304   5.211
12645TIP3    H237879   5.646   7.424   5.157
12646TIP3   OH237880   5.823   7.479   5.166
12646TIP3    H137881   5.852   7.387   5.155
12646TIP3    H237882   5.871   7.502   5.247
12647TIP3   OH237883   6.400   6.137   5.258
12647TIP3    H137884   6.355   6.064   5.304
12647TIP3    H237885   6.468   6.090   5.207
12648TIP3   OH237886   6.915   6.038   5.166
12648TIP3    H137887   6.952   6.073   5.082
12648TIP3    H237888   6.819   6.036   5.146
12649TIP3   OH237889   7.015   6.115   4.925
12649TIP3    H137890   7.084   6.060   4.881
12649TIP3    H237891   7.049   6.204   4.903
12650TIP3   OH237892   5.647   5.840   5.261
12650TIP3    H137893   5.555   5.806   5.269
12650TIP3    H237894   5.696   5.756   5.257
12651TIP3   OH237895   6.088   5.885   5.149
12651TIP3    H137896   6.146   5.926   5.083
12651TIP3    H237897   6.127   5.915   5.232
12652TIP3   OH237898   6.638   6.025   5.124
12652TIP3    H137899   6.633   5.984   5.036
12652TIP3    H237900   6.625   5.947   5.183
12653TIP3   OH237901   6.664   5.950   4.695
12653TIP3    H137902   6.576   5.991   4.704
12653TIP3    H237903   6.648   5.863   4.737
12654TIP3   OH237904   5.149   7.291   4.684
12654TIP3    H137905   5.065   7.252   4.653
12654TIP3    H237906   5.135   7.383   4.657
12655TIP3   OH237907   5.554   5.866   4.667
12655TIP3    H137908   5.604   5.795   4.622
12655TIP3    H237909   5.627   5.918   4.707
12656TIP3   OH237910   6.059   6.054   4.772
12656TIP3    H137911   6.119   6.005   4.831
12656TIP3    H237912   6.081   6.146   4.798
12657TIP3   OH237913   5.920   7.469   4.276
12657TIP3    H137914   6.009   7.490   4.242
12657TIP3    H237915   5.897   7.395   4.216
12658TIP3   OH237916   5.851   6.127   6.158
12658TIP3    H137917   5.815   6.055   6.212
12658TIP3    H237918   5.945   6.125   6.185
12659TIP3   OH237919   6.103   6.125   6.274
12659TIP3    H137920   6.186   6.095   6.233
12659TIP3    H237921   6.089   6.054   6.341
12660TIP3   OH237922   5.223   7.312   4.327
12660TIP3    H137923   5.220   7.324   4.423
12660TIP3    H237924   5.310   7.268   4.314
12661TIP3   OH237925   6.926   6.194   6.063
12661TIP3    H137926   6.942   6.156   6.152
12661TIP3    H237927   7.015   6.186   6.022
12662TIP3   OH237928   8.119   7.103   4.329
12662TIP3    H137929   8.083   7.192   4.308
12662TIP3    H237930   8.052   7.049   4.285
12663TIP3   OH237931   8.091   7.115   4.716
12663TIP3    H137932   8.158   7.062   4.761
12663TIP3    H237933   8.073   7.062   4.637
12664TIP3   OH237934   7.422   6.986   5.054
12664TIP3    H137935   7.463   6.924   5.116
12664TIP3    H237936   7.492   7.052   5.044
12665TIP3   OH237937   7.406   7.412   4.789
12665TIP3    H137938   7.398   7.315   4.790
12665TIP3    H237939   7.502   7.423   4.769
12666TIP3   OH237940   7.095   6.615   4.582
12666TIP3    H137941   7.038   6.688   4.555
12666TIP3    H237942   7.049   6.540   4.539
12667TIP3   OH237943   7.157   6.893   4.739
12667TIP3    H137944   7.224   6.823   4.752
12667TIP3    H237945   7.200   6.947   4.671
12668TIP3   OH237946   7.910   7.319   4.734
12668TIP3    H137947   7.978   7.249   4.718
12668TIP3    H237948   7.963   7.390   4.775
12669TIP3   OH237949   8.358   6.829   4.753
12669TIP3    H137950   8.381   6.736   4.771
12669TIP3    H237951   8.309   6.818   4.669
12670TIP3   OH237952   7.684   6.496   4.747
12670TIP3    H137953   7.665   6.568   4.683
12670TIP3    H237954   7.639   6.422   4.701
12671TIP3   OH237955   8.377   6.593   4.371
12671TIP3    H137956   8.450   6.569   4.432
12671TIP3    H237957   8.429   6.626   4.295
12672TIP3   OH237958   7.287   6.693   4.869
12672TIP3    H137959   7.372   6.684   4.915
12672TIP3    H237960   7.307   6.637   4.790
12673TIP3   OH237961   7.753   6.892   4.649
12673TIP3    H137962   7.848   6.868   4.659
12673TIP3    H237963   7.715   6.809   4.613
12674TIP3   OH237964   7.663   6.485   5.186
12674TIP3    H137965   7.609   6.520   5.113
12674TIP3    H237966   7.614   6.519   5.263
12675TIP3   OH237967   7.981   7.307   4.198
12675TIP3    H137968   7.954   7.311   4.105
12675TIP3    H237969   7.965   7.400   4.225
12676TIP3   OH237970   7.769   7.249   4.955
12676TIP3    H137971   7.701   7.316   4.942
12676TIP3    H237972   7.831   7.272   4.883
12677TIP3   OH237973   8.580   6.567   4.554
12677TIP3    H137974   8.537   6.540   4.637
12677TIP3    H237975   8.637   6.640   4.583
12678TIP3   OH237976   7.541   6.596   4.960
12678TIP3    H137977   7.605   6.667   4.984
12678TIP3    H237978   7.590   6.556   4.885
12679TIP3   OH237979   7.008   7.150   4.318
12679TIP3    H137980   6.937   7.189   4.265
12679TIP3    H237981   7.044   7.231   4.359
12680TIP3   OH237982   8.024   6.193   4.889
12680TIP3    H137983   8.010   6.099   4.909
12680TIP3    H237984   7.948   6.233   4.937
12681TIP3   OH237985   8.227   7.464   4.165
12681TIP3    H137986   8.207   7.395   4.102
12681TIP3    H237987   8.321   7.449   4.184
12682TIP3   OH237988   7.961   6.963   4.153
12682TIP3    H137989   7.884   7.019   4.134
12682TIP3    H237990   8.004   6.957   4.066
12683TIP3   OH237991   7.920   6.748   3.860
12683TIP3    H137992   7.987   6.802   3.906
12683TIP3    H237993   7.979   6.685   3.814
12684TIP3   OH237994   8.298   7.030   4.132
12684TIP3    H137995   8.249   7.052   4.214
12684TIP3    H237996   8.386   7.005   4.170
12685TIP3   OH237997   7.539   7.040   4.543
12685TIP3    H137998   7.498   6.983   4.474
12685TIP3    H237999   7.618   6.987   4.569
12686TIP3   OH238000   7.666   7.440   4.686
12686TIP3    H138001   7.642   7.426   4.592
12686TIP3    H238002   7.753   7.393   4.691
12687TIP3   OH238003   7.669   7.003   4.886
12687TIP3    H138004   7.705   6.974   4.799
12687TIP3    H238005   7.719   7.086   4.903
12688TIP3   OH238006   8.140   6.902   3.946
12688TIP3    H138007   8.201   6.956   4.001
12688TIP3    H238008   8.172   6.924   3.855
12689TIP3   OH238009   7.542   7.062   5.316
12689TIP3    H138010   7.578   7.150   5.345
12689TIP3    H238011   7.448   7.085   5.310
12690TIP3   OH238012   7.892   7.588   4.223
12690TIP3    H138013   7.954   7.659   4.239
12690TIP3    H238014   7.825   7.632   4.168
12691TIP3   OH238015   8.664   6.144   4.004
12691TIP3    H138016   8.582   6.159   4.054
12691TIP3    H238017   8.670   6.224   3.951
12692TIP3   OH238018   7.404   6.884   4.351
12692TIP3    H138019   7.338   6.932   4.295
12692TIP3    H238020   7.372   6.793   4.343
12693TIP3   OH238021   7.157   7.271   5.241
12693TIP3    H138022   7.092   7.251   5.169
12693TIP3    H238023   7.196   7.183   5.259
12694TIP3   OH238024   7.047   7.459   4.915
12694TIP3    H138025   7.130   7.473   4.868
12694TIP3    H238026   7.013   7.549   4.926
12695TIP3   OH238027   7.750   7.823   4.044
12695TIP3    H138028   7.732   7.806   3.950
12695TIP3    H238029   7.816   7.895   4.042
12696TIP3   OH238030   7.211   7.670   4.407
12696TIP3    H138031   7.253   7.664   4.495
12696TIP3    H238032   7.152   7.592   4.411
12697TIP3   OH238033   7.417   7.352   5.229
12697TIP3    H138034   7.442   7.441   5.260
12697TIP3    H238035   7.320   7.349   5.239
12698TIP3   OH238036   7.791   6.270   5.027
12698TIP3    H138037   7.703   6.244   4.995
12698TIP3    H238038   7.770   6.356   5.067
12699TIP3   OH238039   8.306   6.394   5.202
12699TIP3    H138040   8.380   6.384   5.264
12699TIP3    H238041   8.228   6.369   5.256
12700TIP3   OH238042   8.228   6.952   3.697
12700TIP3    H138043   8.184   6.926   3.614
12700TIP3    H238044   8.306   6.999   3.663
12701TIP3   OH238045   7.933   6.324   3.995
12701TIP3    H138046   7.898   6.319   4.087
12701TIP3    H238047   7.896   6.241   3.959
12702TIP3   OH238048   7.729   6.785   5.037
12702TIP3    H138049   7.678   6.801   5.119
12702TIP3    H238050   7.708   6.866   4.985
12703TIP3   OH238051   7.607   6.675   4.559
12703TIP3    H138052   7.513   6.652   4.575
12703TIP3    H238053   7.620   6.636   4.470
12704TIP3   OH238054   8.095   6.760   4.281
12704TIP3    H138055   8.045   6.831   4.236
12704TIP3    H238056   8.152   6.727   4.209
12705TIP3   OH238057   8.235   6.785   4.514
12705TIP3    H138058   8.175   6.805   4.439
12705TIP3    H238059   8.285   6.712   4.472
12706TIP3   OH238060   7.546   6.802   5.238
12706TIP3    H138061   7.555   6.889   5.285
12706TIP3    H238062   7.544   6.739   5.312
12707TIP3   OH238063   7.594   6.297   3.963
12707TIP3    H138064   7.582   6.297   4.060
12707TIP3    H238065   7.517   6.350   3.935
12708TIP3   OH238066   7.130   6.348   4.850
12708TIP3    H138067   7.221   6.372   4.872
12708TIP3    H238068   7.138   6.316   4.756
12709TIP3   OH238069   7.133   6.364   4.374
12709TIP3    H138070   7.153   6.393   4.282
12709TIP3    H238071   7.034   6.376   4.373
12710TIP3   OH238072   7.942   6.494   4.615
12710TIP3    H138073   7.862   6.496   4.670
12710TIP3    H238074   8.013   6.492   4.682
12711TIP3   OH238075   7.361   6.556   4.638
12711TIP3    H138076   7.270   6.561   4.601
12711TIP3    H238077   7.391   6.469   4.606
12712TIP3   OH238078   7.634   6.552   4.318
12712TIP3    H138079   7.728   6.565   4.295
12712TIP3    H238080   7.587   6.573   4.233
12713TIP3   OH238081   8.395   6.564   4.803
12713TIP3    H138082   8.366   6.578   4.895
12713TIP3    H238083   8.328   6.499   4.773
12714TIP3   OH238084   7.488   6.587   4.092
12714TIP3    H138085   7.417   6.541   4.043
12714TIP3    H238086   7.539   6.624   4.017
12715TIP3   OH238087   8.012   6.811   4.706
12715TIP3    H138088   8.088   6.788   4.651
12715TIP3    H238089   8.031   6.768   4.791
12716TIP3   OH238090   7.541   6.316   4.598
12716TIP3    H138091   7.502   6.237   4.643
12716TIP3    H238092   7.574   6.277   4.516
12717TIP3   OH238093   7.993   6.711   5.006
12717TIP3    H138094   7.901   6.745   5.013
12717TIP3    H238095   8.042   6.765   5.069
12718TIP3   OH238096   7.732   7.114   4.096
12718TIP3    H138097   7.659   7.050   4.085
12718TIP3    H238098   7.712   7.150   4.186
12719TIP3   OH238099   8.188   6.419   3.982
12719TIP3    H138100   8.091   6.402   3.980
12719TIP3    H238101   8.194   6.516   3.995
12720TIP3   OH238102   8.255   6.677   4.071
12720TIP3    H138103   8.352   6.682   4.083
12720TIP3    H238104   8.237   6.752   4.011
12721TIP3   OH238105   7.419   7.127   4.774
12721TIP3    H138106   7.456   7.110   4.684
12721TIP3    H238107   7.479   7.073   4.828
12722TIP3   OH238108   7.877   7.263   3.916
12722TIP3    H138109   7.828   7.348   3.922
12722TIP3    H238110   7.826   7.208   3.979
12723TIP3   OH238111   7.259   7.044   5.374
12723TIP3    H138112   7.285   7.043   5.468
12723TIP3    H238113   7.200   6.968   5.369
12724TIP3   OH238114   7.530   7.447   4.414
12724TIP3    H138115   7.531   7.527   4.357
12724TIP3    H238116   7.435   7.427   4.413
12725TIP3   OH238117   7.102   6.745   4.104
12725TIP3    H138118   7.144   6.831   4.125
12725TIP3    H238119   7.021   6.752   4.160
12726TIP3   OH238120   7.649   7.204   4.339
12726TIP3    H138121   7.624   7.296   4.361
12726TIP3    H238122   7.617   7.156   4.417
12727TIP3   OH238123   7.450   7.674   4.255
12727TIP3    H138124   7.362   7.688   4.297
12727TIP3    H238125   7.486   7.766   4.260
12728TIP3   OH238126   8.080   7.302   3.706
12728TIP3    H138127   8.152   7.285   3.767
12728TIP3    H238128   8.003   7.277   3.760
12729TIP3   OH238129   7.506   6.565   5.403
12729TIP3    H138130   7.410   6.582   5.407
12729TIP3    H238131   7.519   6.504   5.477
12730TIP3   OH238132   8.329   7.226   3.940
12730TIP3    H138133   8.289   7.173   4.012
12730TIP3    H238134   8.412   7.176   3.929
12731TIP3   OH238135   7.257   7.659   5.023
12731TIP3    H138136   7.262   7.568   5.055
12731TIP3    H238137   7.250   7.711   5.104
12732TIP3   OH238138   7.513   7.291   3.715
12732TIP3    H138139   7.539   7.201   3.690
12732TIP3    H238140   7.492   7.280   3.809
12733TIP3   OH238141   7.456   7.294   3.987
12733TIP3    H138142   7.535   7.270   4.037
12733TIP3    H238143   7.458   7.392   3.995
12734TIP3   OH238144   7.203   6.993   4.192
12734TIP3    H138145   7.132   7.040   4.242
12734TIP3    H238146   7.217   7.053   4.118
12735TIP3   OH238147   8.340   6.629   5.060
12735TIP3    H138148   8.375   6.678   5.137
12735TIP3    H238149   8.314   6.546   5.105
12736TIP3   OH238150   8.233   6.373   4.254
12736TIP3    H138151   8.219   6.391   4.159
12736TIP3    H238152   8.274   6.457   4.285
12737TIP3   OH238153   7.732   7.489   3.941
12737TIP3    H138154   7.643   7.510   3.976
12737TIP3    H238155   7.745   7.569   3.886
12738TIP3   OH238156   7.917   6.560   4.347
12738TIP3    H138157   7.982   6.631   4.327
12738TIP3    H238158   7.927   6.551   4.444
12739TIP3   OH238159   8.061   6.275   4.447
12739TIP3    H138160   8.050   6.355   4.502
12739TIP3    H238161   8.126   6.309   4.380
12740TIP3   OH238162   7.474   7.563   4.005
12740TIP3    H138163   7.449   7.636   3.943
12740TIP3    H238164   7.466   7.610   4.091
12741TIP3   OH238165   7.578   6.286   4.240
12741TIP3    H138166   7.575   6.377   4.275
12741TIP3    H238167   7.675   6.270   4.246
12742TIP3   OH238168   8.507   6.930   4.516
12742TIP3    H138169   8.412   6.913   4.524
12742TIP3    H238170   8.530   6.952   4.607
12743TIP3   OH238171   7.166   7.229   3.928
12743TIP3    H138172   7.241   7.279   3.967
12743TIP3    H238173   7.217   7.153   3.893
12744TIP3   OH238174   7.131   6.472   4.121
12744TIP3    H138175   7.138   6.570   4.120
12744TIP3    H238176   7.036   6.460   4.104
12745TIP3   OH238177   7.520   6.196   5.000
12745TIP3    H138178   7.495   6.166   4.909
12745TIP3    H238179   7.512   6.113   5.051
12746TIP3   OH238180   7.067   7.418   4.372
12746TIP3    H138181   6.975   7.427   4.408
12746TIP3    H238182   7.051   7.455   4.283
12747TIP3   OH238183   7.682   7.489   3.619
12747TIP3    H138184   7.627   7.418   3.658
12747TIP3    H238185   7.756   7.437   3.582
12748TIP3   OH238186   7.331   7.015   3.855
12748TIP3    H138187   7.389   6.984   3.927
12748TIP3    H238188   7.396   7.018   3.782
12749TIP3   OH238189   7.807   7.197   3.655
12749TIP3    H138190   7.818   7.212   3.750
12749TIP3    H238191   7.831   7.102   3.648
12750TIP3   OH238192   7.535   6.919   4.062
12750TIP3    H138193   7.511   6.874   4.144
12750TIP3    H238194   7.576   6.846   4.011
12751TIP3   OH238195   7.814   6.968   5.292
12751TIP3    H138196   7.742   7.027   5.320
12751TIP3    H238197   7.851   7.015   5.217
12752TIP3   OH238198   7.644   6.715   3.906
12752TIP3    H138199   7.618   6.722   3.811
12752TIP3    H238200   7.742   6.716   3.898
12753TIP3   OH238201   7.877   6.761   5.460
12753TIP3    H138202   7.940   6.709   5.408
12753TIP3    H238203   7.857   6.834   5.397
12754TIP3   OH238204   7.933   6.526   5.216
12754TIP3    H138205   7.963   6.581   5.141
12754TIP3    H238206   7.836   6.527   5.204
12755TIP3   OH238207   8.068   6.319   5.327
12755TIP3    H138208   8.021   6.397   5.288
12755TIP3    H238209   8.008   6.247   5.300
12756TIP3   OH238210   7.629   6.668   5.729
12756TIP3    H138211   7.663   6.611   5.658
12756TIP3    H238212   7.712   6.699   5.770
12757TIP3   OH238213   8.152   6.319   5.590
12757TIP3    H138214   8.231   6.270   5.564
12757TIP3    H238215   8.108   6.327   5.503
12758TIP3   OH238216   7.441   7.760   3.818
12758TIP3    H138217   7.538   7.753   3.808
12758TIP3    H238218   7.421   7.813   3.738
12759TIP3   OH238219   6.823   7.753   4.436
12759TIP3    H138220   6.788   7.672   4.393
12759TIP3    H238221   6.883   7.710   4.501
12760TIP3   OH238222   6.984   7.636   4.618
12760TIP3    H138223   6.949   7.557   4.661
12760TIP3    H238224   7.034   7.681   4.688
12761TIP3   OH238225   8.502   6.687   3.714
12761TIP3    H138226   8.478   6.695   3.621
12761TIP3    H238227   8.493   6.590   3.727
12762TIP3   OH238228   8.533   6.944   4.243
12762TIP3    H138229   8.543   6.849   4.226
12762TIP3    H238230   8.537   6.947   4.342
12763TIP3   OH238231   7.167   7.008   4.987
12763TIP3    H138232   7.180   7.024   4.891
12763TIP3    H238233   7.261   7.014   5.017
12764TIP3   OH238234   8.468   6.415   3.726
12764TIP3    H138235   8.531   6.342   3.713
12764TIP3    H238236   8.383   6.370   3.707
12765TIP3   OH238237   8.533   6.671   4.150
12765TIP3    H138238   8.568   6.580   4.169
12765TIP3    H238239   8.582   6.691   4.069
12766TIP3   OH238240   7.366   6.693   5.659
12766TIP3    H138241   7.461   6.697   5.684
12766TIP3    H238242   7.341   6.610   5.705
12767TIP3   OH238243   8.621   6.422   4.207
12767TIP3    H138244   8.684   6.390   4.275
12767TIP3    H238245   8.567   6.341   4.194
12768TIP3   OH238246   7.347   6.409   5.047
12768TIP3    H138247   7.404   6.331   5.031
12768TIP3    H238248   7.407   6.480   5.015
12769TIP3   OH238249   7.120   6.224   4.606
12769TIP3    H138250   7.031   6.189   4.593
12769TIP3    H238251   7.134   6.267   4.519
12770TIP3   OH238252   7.351   6.272   5.418
12770TIP3    H138253   7.263   6.273   5.460
12770TIP3    H238254   7.325   6.298   5.328
12771TIP3   OH238255   7.157   7.768   4.790
12771TIP3    H138256   7.193   7.744   4.878
12771TIP3    H238257   7.227   7.728   4.733
12772TIP3   OH238258   7.338   7.635   4.645
12772TIP3    H138259   7.359   7.552   4.695
12772TIP3    H238260   7.429   7.672   4.634
12773TIP3   OH238261   7.596   7.712   4.649
12773TIP3    H138262   7.644   7.627   4.647
12773TIP3    H238263   7.649   7.766   4.708
12774TIP3   OH238264   8.188   6.383   4.734
12774TIP3    H138265   8.143   6.310   4.781
12774TIP3    H238266   8.260   6.336   4.686
12775TIP3   OH238267   8.718   6.277   4.636
12775TIP3    H138268   8.749   6.327   4.558
12775TIP3    H238269   8.622   6.298   4.635
12776TIP3   OH238270   8.824   6.366   4.394
12776TIP3    H138271   8.891   6.306   4.358
12776TIP3    H238272   8.865   6.453   4.382
12777TIP3   OH238273   7.439   6.102   4.754
12777TIP3    H138274   7.345   6.073   4.749
12777TIP3    H238275   7.485   6.016   4.745
12778TIP3   OH238276   7.249   5.970   4.398
12778TIP3    H138277   7.274   6.024   4.321
12778TIP3    H238278   7.176   6.022   4.433
12779TIP3   OH238279   7.890   6.131   4.633
12779TIP3    H138280   7.941   6.177   4.563
12779TIP3    H238281   7.924   6.173   4.713
12780TIP3   OH238282   8.426   6.278   4.613
12780TIP3    H138283   8.437   6.236   4.527
12780TIP3    H238284   8.418   6.199   4.673
12781TIP3   OH238285   8.455   6.204   4.178
12781TIP3    H138286   8.368   6.245   4.191
12781TIP3    H238287   8.442   6.117   4.223
12782TIP3   OH238288   6.951   7.532   4.140
12782TIP3    H138289   6.879   7.512   4.206
12782TIP3    H238290   6.924   7.623   4.113
12783TIP3   OH238291   7.348   6.125   4.161
12783TIP3    H138292   7.397   6.067   4.100
12783TIP3    H238293   7.419   6.182   4.196
12784TIP3   OH238294   7.854   6.309   4.261
12784TIP3    H138295   7.917   6.263   4.318
12784TIP3    H238296   7.876   6.402   4.284
12785TIP3   OH238297   7.710   7.716   3.779
12785TIP3    H138298   7.777   7.775   3.736
12785TIP3    H238299   7.700   7.647   3.710
12786TIP3   OH238300   7.667   6.372   5.618
12786TIP3    H138301   7.666   6.369   5.716
12786TIP3    H238302   7.763   6.381   5.607
12787TIP3   OH238303   7.918   6.363   5.744
12787TIP3    H138304   8.005   6.372   5.699
12787TIP3    H238305   7.936   6.283   5.797
12788TIP3   OH238306   7.026   7.536   3.853
12788TIP3    H138307   7.020   7.591   3.934
12788TIP3    H238308   7.122   7.532   3.835
12789TIP3   OH238309   1.391   7.426   6.415
12789TIP3    H138310   1.417   7.509   6.461
12789TIP3    H238311   1.432   7.439   6.327
12790TIP3   OH238312   0.824   7.341   6.043
12790TIP3    H138313   0.879   7.357   6.122
12790TIP3    H238314   0.872   7.394   5.977
12791TIP3   OH238315   1.455   7.627   6.589
12791TIP3    H138316   1.430   7.717   6.563
12791TIP3    H238317   1.449   7.632   6.686
12792TIP3   OH238318   1.014   7.398   6.239
12792TIP3    H138319   1.043   7.310   6.266
12792TIP3    H238320   1.091   7.454   6.257
12793TIP3   OH238321   1.197   7.344   6.596
12793TIP3    H138322   1.119   7.385   6.555
12793TIP3    H238323   1.265   7.363   6.527
12794TIP3   OH238324   1.125   6.928   5.685
12794TIP3    H138325   1.044   6.952   5.736
12794TIP3    H238326   1.139   7.011   5.634
12795TIP3   OH238327   1.153   7.556   5.586
12795TIP3    H138328   1.088   7.515   5.524
12795TIP3    H238329   1.149   7.647   5.549
12796TIP3   OH238330   1.254   7.530   6.809
12796TIP3    H138331   1.162   7.521   6.837
12796TIP3    H238332   1.257   7.468   6.733
12797TIP3   OH238333   0.917   7.733   6.221
12797TIP3    H138334   0.874   7.646   6.218
12797TIP3    H238335   1.004   7.709   6.259
12798TIP3   OH238336   0.931   7.830   5.254
12798TIP3    H138337   0.884   7.781   5.183
12798TIP3    H238338   0.900   7.919   5.240
12799TIP3   OH238339   1.055   8.005   5.593
12799TIP3    H138340   1.130   8.064   5.570
12799TIP3    H238341   1.088   7.963   5.675
12800TIP3   OH238342   1.180   7.880   5.797
12800TIP3    H138343   1.121   7.833   5.860
12800TIP3    H238344   1.251   7.914   5.855
12801TIP3   OH238345   1.120   7.788   5.443
12801TIP3    H138346   1.048   7.789   5.374
12801TIP3    H238347   1.088   7.862   5.499
12802TIP3   OH238348   0.984   7.467   5.391
12802TIP3    H138349   0.931   7.500   5.317
12802TIP3    H238350   0.969   7.370   5.380
12803TIP3   OH238351   1.016   7.734   5.956
12803TIP3    H138352   0.999   7.642   5.930
12803TIP3    H238353   0.978   7.738   6.046
12804TIP3   OH238354   0.946   7.198   5.379
12804TIP3    H138355   1.021   7.172   5.436
12804TIP3    H238356   0.875   7.138   5.413
12805TIP3   OH238357   0.998   7.463   5.858
12805TIP3    H138358   1.039   7.374   5.865
12805TIP3    H238359   1.032   7.492   5.772
12806TIP3   OH238360   1.151   7.643   6.337
12806TIP3    H138361   1.236   7.671   6.295
12806TIP3    H238362   1.170   7.661   6.430
12807TIP3   OH238363   1.722   7.378   7.112
12807TIP3    H138364   1.755   7.305   7.055
12807TIP3    H238365   1.678   7.434   7.044
12808TIP3   OH238366   1.105   7.206   5.871
12808TIP3    H138367   1.150   7.192   5.957
12808TIP3    H238368   1.039   7.133   5.873
12809TIP3   OH238369   1.618   7.446   6.859
12809TIP3    H138370   1.565   7.522   6.886
12809TIP3    H238371   1.549   7.383   6.830
12810TIP3   OH238372   1.180   7.138   5.512
12810TIP3    H138373   1.220   7.069   5.454
12810TIP3    H238374   1.247   7.209   5.510
12811TIP3   OH238375   1.433   7.253   6.776
12811TIP3    H138376   1.343   7.237   6.744
12811TIP3    H238377   1.471   7.162   6.772
12812TIP3   OH238378   1.185   7.059   6.327
12812TIP3    H138379   1.222   7.107   6.249
12812TIP3    H238380   1.090   7.081   6.319
12813TIP3   OH238381   1.262   7.162   6.092
12813TIP3    H138382   1.334   7.106   6.054
12813TIP3    H238383   1.300   7.251   6.075
12814TIP3   OH238384   0.925   7.106   6.295
12814TIP3    H138385   0.856   7.108   6.228
12814TIP3    H238386   0.903   7.024   6.345
12815TIP3   OH238387   0.922   6.989   5.863
12815TIP3    H138388   0.834   7.010   5.830
12815TIP3    H238389   0.903   6.908   5.915
12816TIP3   OH238390   2.392   8.159   5.506
12816TIP3    H138391   2.344   8.230   5.458
12816TIP3    H238392   2.331   8.084   5.490
12817TIP3   OH238393   2.362   8.165   5.902
12817TIP3    H138394   2.414   8.112   5.965
12817TIP3    H238395   2.335   8.094   5.840
12818TIP3   OH238396   1.702   8.065   6.252
12818TIP3    H138397   1.714   7.990   6.314
12818TIP3    H238398   1.784   8.060   6.198
12819TIP3   OH238399   2.595   8.453   5.549
12819TIP3    H138400   2.572   8.372   5.597
12819TIP3    H238401   2.631   8.511   5.617
12820TIP3   OH238402   1.726   8.377   6.057
12820TIP3    H138403   1.689   8.300   6.009
12820TIP3    H238404   1.806   8.397   6.002
12821TIP3   OH238405   1.358   7.656   5.745
12821TIP3    H138406   1.314   7.740   5.767
12821TIP3    H238407   1.283   7.608   5.704
12822TIP3   OH238408   1.416   7.948   5.919
12822TIP3    H138409   1.462   7.870   5.958
12822TIP3    H238410   1.490   8.001   5.887
12823TIP3   OH238411   2.191   8.378   5.912
12823TIP3    H138412   2.239   8.293   5.897
12823TIP3    H238413   2.265   8.439   5.925
12824TIP3   OH238414   3.196   7.700   5.926
12824TIP3    H138415   3.226   7.784   5.966
12824TIP3    H238416   3.217   7.714   5.832
12825TIP3   OH238417   2.596   7.886   5.957
12825TIP3    H138418   2.633   7.797   5.975
12825TIP3    H238419   2.558   7.869   5.868
12826TIP3   OH238420   1.910   7.541   5.936
12826TIP3    H138421   1.923   7.608   5.867
12826TIP3    H238422   1.868   7.470   5.883
12827TIP3   OH238423   2.625   7.641   5.562
12827TIP3    H138424   2.705   7.623   5.617
12827TIP3    H238425   2.666   7.651   5.474
12828TIP3   OH238426   1.561   7.743   6.030
12828TIP3    H138427   1.642   7.721   6.081
12828TIP3    H238428   1.577   7.690   5.949
12829TIP3   OH238429   1.999   7.943   5.837
12829TIP3    H138430   2.094   7.917   5.847
12829TIP3    H238431   1.961   7.859   5.802
12830TIP3   OH238432   3.271   7.914   6.090
12830TIP3    H138433   3.182   7.954   6.076
12830TIP3    H238434   3.279   7.924   6.186
12831TIP3   OH238435   1.928   7.524   6.357
12831TIP3    H138436   1.867   7.560   6.290
12831TIP3    H238437   1.876   7.538   6.438
12832TIP3   OH238438   2.274   8.345   5.347
12832TIP3    H138439   2.210   8.324   5.277
12832TIP3    H238440   2.255   8.438   5.364
12833TIP3   OH238441   2.036   8.308   6.149
12833TIP3    H138442   1.990   8.380   6.198
12833TIP3    H238443   2.062   8.358   6.069
12834TIP3   OH238444   2.842   7.636   5.725
12834TIP3    H138445   2.811   7.594   5.807
12834TIP3    H238446   2.885   7.717   5.757
12835TIP3   OH238447   1.790   7.644   6.151
12835TIP3    H138448   1.856   7.714   6.172
12835TIP3    H238449   1.835   7.602   6.073
12836TIP3   OH238450   1.261   8.157   5.495
12836TIP3    H138451   1.216   8.167   5.409
12836TIP3    H238452   1.269   8.250   5.520
12837TIP3   OH238453   2.985   7.604   6.092
12837TIP3    H138454   2.897   7.622   6.056
12837TIP3    H238455   3.044   7.633   6.020
12838TIP3   OH238456   2.274   7.238   6.072
12838TIP3    H138457   2.258   7.144   6.092
12838TIP3    H238458   2.197   7.279   6.119
12839TIP3   OH238459   2.631   8.466   5.274
12839TIP3    H138460   2.590   8.384   5.241
12839TIP3    H238461   2.640   8.447   5.370
12840TIP3   OH238462   2.913   8.607   6.009
12840TIP3    H138463   2.983   8.610   5.938
12840TIP3    H238464   2.880   8.699   6.006
12841TIP3   OH238465   2.211   8.011   5.331
12841TIP3    H138466   2.127   8.056   5.312
12841TIP3    H238467   2.251   8.000   5.244
12842TIP3   OH238468   2.168   7.796   5.039
12842TIP3    H138469   2.237   7.840   5.091
12842TIP3    H238470   2.221   7.729   4.992
12843TIP3   OH238471   3.095   8.259   5.908
12843TIP3    H138472   3.068   8.352   5.909
12843TIP3    H238473   3.134   8.254   5.818
12844TIP3   OH238474   2.561   8.089   5.301
12844TIP3    H138475   2.507   8.105   5.381
12844TIP3    H238476   2.643   8.054   5.343
12845TIP3   OH238477   2.793   8.145   6.192
12845TIP3    H138478   2.793   8.204   6.271
12845TIP3    H238479   2.697   8.133   6.176
12846TIP3   OH238480   1.804   8.085   5.702
12846TIP3    H138481   1.759   8.025   5.639
12846TIP3    H238482   1.875   8.028   5.739
12847TIP3   OH238483   1.930   8.458   5.902
12847TIP3    H138484   1.888   8.452   5.814
12847TIP3    H238485   2.024   8.437   5.884
12848TIP3   OH238486   1.913   8.064   6.074
12848TIP3    H138487   1.950   8.034   5.988
12848TIP3    H238488   1.959   8.150   6.088
12849TIP3   OH238489   2.397   7.947   5.128
12849TIP3    H138490   2.454   8.003   5.183
12849TIP3    H238491   2.433   7.963   5.038
12850TIP3   OH238492   2.918   7.183   5.170
12850TIP3    H138493   2.839   7.203   5.225
12850TIP3    H238494   2.929   7.268   5.122
12851TIP3   OH238495   1.664   7.931   5.517
12851TIP3    H138496   1.590   7.967   5.463
12851TIP3    H238497   1.631   7.843   5.538
12852TIP3   OH238498   3.053   8.084   6.395
12852TIP3    H138499   2.962   8.091   6.362
12852TIP3    H238500   3.069   7.989   6.383
12853TIP3   OH238501   2.040   7.316   6.205
12853TIP3    H138502   1.952   7.288   6.174
12853TIP3    H238503   2.016   7.399   6.250
12854TIP3   OH238504   2.576   7.434   6.395
12854TIP3    H138505   2.646   7.407   6.459
12854TIP3    H238506   2.493   7.414   6.444
12855TIP3   OH238507   2.818   7.878   6.325
12855TIP3    H138508   2.762   7.862   6.405
12855TIP3    H238509   2.768   7.946   6.278
12856TIP3   OH238510   2.486   8.002   4.873
12856TIP3    H138511   2.457   7.958   4.790
12856TIP3    H238512   2.469   8.096   4.850
12857TIP3   OH238513   2.191   7.375   5.175
12857TIP3    H138514   2.176   7.397   5.270
12857TIP3    H238515   2.142   7.291   5.170
12858TIP3   OH238516   1.975   7.840   6.221
12858TIP3    H138517   1.938   7.865   6.308
12858TIP3    H238518   1.957   7.921   6.168
12859TIP3   OH238519   1.861   7.728   5.737
12859TIP3    H138520   1.771   7.694   5.758
12859TIP3    H238521   1.875   7.684   5.650
12860TIP3   OH238522   2.385   7.850   5.468
12860TIP3    H138523   2.309   7.890   5.419
12860TIP3    H238524   2.394   7.763   5.425
12861TIP3   OH238525   2.523   8.072   6.534
12861TIP3    H138526   2.501   8.009   6.606
12861TIP3    H238527   2.613   8.100   6.560
12862TIP3   OH238528   2.508   7.841   5.706
12862TIP3    H138529   2.455   7.865   5.626
12862TIP3    H238530   2.548   7.759   5.669
12863TIP3   OH238531   1.796   7.864   6.439
12863TIP3    H138532   1.856   7.893   6.509
12863TIP3    H238533   1.771   7.775   6.472
12864TIP3   OH238534   1.842   7.343   5.138
12864TIP3    H138535   1.837   7.345   5.236
12864TIP3    H238536   1.764   7.397   5.115
12865TIP3   OH238537   1.390   7.381   6.014
12865TIP3    H138538   1.464   7.418   6.066
12865TIP3    H238539   1.430   7.363   5.928
12866TIP3   OH238540   1.350   7.364   5.526
12866TIP3    H138541   1.397   7.402   5.448
12866TIP3    H238542   1.289   7.438   5.546
12867TIP3   OH238543   2.533   8.088   6.119
12867TIP3    H138544   2.561   8.013   6.060
12867TIP3    H238545   2.493   8.035   6.192
12868TIP3   OH238546   1.620   7.604   5.800
12868TIP3    H138547   1.526   7.610   5.770
12868TIP3    H238548   1.645   7.513   5.776
12869TIP3   OH238549   1.891   7.595   5.502
12869TIP3    H138550   1.981   7.558   5.486
12869TIP3    H238551   1.858   7.615   5.412
12870TIP3   OH238552   2.680   7.623   6.002
12870TIP3    H138553   2.648   7.638   6.094
12870TIP3    H238554   2.613   7.556   5.973
12871TIP3   OH238555   1.733   7.633   5.267
12871TIP3    H138556   1.663   7.587   5.219
12871TIP3    H238557   1.786   7.669   5.193
12872TIP3   OH238558   2.262   7.870   5.896
12872TIP3    H138559   2.327   7.824   5.840
12872TIP3    H238560   2.266   7.820   5.979
12873TIP3   OH238561   1.781   7.361   5.773
12873TIP3    H138562   1.748   7.281   5.820
12873TIP3    H238563   1.841   7.322   5.707
12874TIP3   OH238564   2.242   7.775   6.180
12874TIP3    H138565   2.150   7.806   6.196
12874TIP3    H238566   2.297   7.838   6.231
12875TIP3   OH238567   1.975   8.151   5.282
12875TIP3    H138568   1.901   8.087   5.270
12875TIP3    H238569   1.949   8.194   5.367
12876TIP3   OH238570   2.415   7.496   5.086
12876TIP3    H138571   2.334   7.459   5.129
12876TIP3    H238572   2.447   7.561   5.152
12877TIP3   OH238573   2.430   8.484   6.265
12877TIP3    H138574   2.459   8.437   6.346
12877TIP3    H238575   2.348   8.527   6.301
12878TIP3   OH238576   2.509   7.706   5.237
12878TIP3    H138577   2.603   7.717   5.264
12878TIP3    H238578   2.485   7.796   5.207
12879TIP3   OH238579   1.654   8.138   5.929
12879TIP3    H138580   1.706   8.124   5.847
12879TIP3    H238581   1.710   8.095   5.996
12880TIP3   OH238582   2.086   8.328   5.107
12880TIP3    H138583   2.053   8.402   5.163
12880TIP3    H238584   2.046   8.253   5.157
12881TIP3   OH238585   2.288   8.220   6.575
12881TIP3    H138586   2.259   8.197   6.486
12881TIP3    H238587   2.379   8.184   6.576
12882TIP3   OH238588   2.946   7.806   5.079
12882TIP3    H138589   2.882   7.766   5.015
12882TIP3    H238590   2.958   7.893   5.037
12883TIP3   OH238591   3.161   8.644   6.179
12883TIP3    H138592   3.068   8.667   6.164
12883TIP3    H238593   3.193   8.634   6.086
12884TIP3   OH238594   1.342   7.787   5.284
12884TIP3    H138595   1.386   7.872   5.307
12884TIP3    H238596   1.264   7.791   5.345
12885TIP3   OH238597   1.905   8.274   5.524
12885TIP3    H138598   1.851   8.341   5.570
12885TIP3    H238599   1.889   8.199   5.585
12886TIP3   OH238600   2.483   8.420   5.998
12886TIP3    H138601   2.451   8.460   6.084
12886TIP3    H238602   2.435   8.332   6.002
12887TIP3   OH238603   2.493   8.297   4.825
12887TIP3    H138604   2.514   8.285   4.921
12887TIP3    H238605   2.404   8.337   4.833
12888TIP3   OH238606   1.769   7.601   6.571
12888TIP3    H138607   1.674   7.588   6.589
12888TIP3    H238608   1.810   7.561   6.649
12889TIP3   OH238609   2.571   8.256   5.086
12889TIP3    H138610   2.557   8.193   5.160
12889TIP3    H238611   2.668   8.264   5.087
12890TIP3   OH238612   1.772   8.289   4.933
12890TIP3    H138613   1.794   8.196   4.913
12890TIP3    H238614   1.776   8.290   5.029
12891TIP3   OH238615   1.458   8.028   5.360
12891TIP3    H138616   1.393   8.065   5.424
12891TIP3    H238617   1.462   8.102   5.296
12892TIP3   OH238618   2.606   7.675   6.263
12892TIP3    H138619   2.684   7.703   6.313
12892TIP3    H238620   2.584   7.591   6.308
12893TIP3   OH238621   2.521   7.416   5.398
12893TIP3    H138622   2.439   7.429   5.348
12893TIP3    H238623   2.504   7.473   5.475
12894TIP3   OH238624   2.443   7.924   6.315
12894TIP3    H138625   2.465   7.971   6.399
12894TIP3    H238626   2.489   7.839   6.327
12895TIP3   OH238627   1.832   7.332   5.416
12895TIP3    H138628   1.827   7.421   5.455
12895TIP3    H238629   1.925   7.312   5.435
12896TIP3   OH238630   3.078   7.819   6.303
12896TIP3    H138631   2.981   7.829   6.316
12896TIP3    H238632   3.077   7.755   6.230
12897TIP3   OH238633   2.737   8.015   5.689
12897TIP3    H138634   2.654   7.966   5.708
12897TIP3    H238635   2.802   7.967   5.744
12898TIP3   OH238636   1.450   8.244   5.173
12898TIP3    H138637   1.479   8.336   5.162
12898TIP3    H238638   1.506   8.195   5.109
12899TIP3   OH238639   1.386   7.517   5.299
12899TIP3    H138640   1.390   7.615   5.302
12899TIP3    H238641   1.297   7.502   5.265
12900TIP3   OH238642   1.773   7.241   6.173
12900TIP3    H138643   1.746   7.207   6.086
12900TIP3    H238644   1.763   7.162   6.230
12901TIP3   OH238645   1.581   8.050   5.030
12901TIP3    H138646   1.625   8.009   5.107
12901TIP3    H238647   1.653   8.045   4.964
12902TIP3   OH238648   2.053   8.235   4.832
12902TIP3    H138649   2.049   8.247   4.928
12902TIP3    H238650   2.074   8.139   4.824
12903TIP3   OH238651   2.700   8.497   6.198
12903TIP3    H138652   2.736   8.587   6.189
12903TIP3    H238653   2.611   8.516   6.230
12904TIP3   OH238654   1.777   7.961   5.239
12904TIP3    H138655   1.751   7.920   5.324
12904TIP3    H238656   1.818   7.885   5.192
12905TIP3   OH238657   2.056   8.003   6.466
12905TIP3    H138658   2.059   8.069   6.538
12905TIP3    H238659   2.110   8.049   6.397
12906TIP3   OH238660   1.891   7.761   5.083
12906TIP3    H138661   1.868   7.759   4.987
12906TIP3    H238662   1.989   7.760   5.078
12907TIP3   OH238663   2.587   8.410   6.547
12907TIP3    H138664   2.672   8.437   6.582
12907TIP3    H238665   2.543   8.380   6.628
12908TIP3   OH238666   2.194   7.804   6.589
12908TIP3    H138667   2.191   7.724   6.532
12908TIP3    H238668   2.144   7.868   6.533
12909TIP3   OH238669   2.187   7.599   6.401
12909TIP3    H138670   2.213   7.639   6.316
12909TIP3    H238671   2.093   7.576   6.385
12910TIP3   OH238672   2.205   8.147   6.293
12910TIP3    H138673   2.280   8.136   6.233
12910TIP3    H238674   2.146   8.207   6.243
12911TIP3   OH238675   2.801   8.089   6.625
12911TIP3    H138676   2.841   8.002   6.627
12911TIP3    H238677   2.874   8.148   6.638
12912TIP3   OH238678   2.838   8.339   6.380
12912TIP3    H138679   2.775   8.400   6.334
12912TIP3    H238680   2.924   8.367   6.340
12913TIP3   OH238681   2.023   7.944   6.764
12913TIP3    H138682   1.974   7.880   6.820
12913TIP3    H238683   2.081   7.886   6.713
12914TIP3   OH238684   2.316   7.363   6.480
12914TIP3    H138685   2.267   7.444   6.453
12914TIP3    H238686   2.247   7.295   6.467
12915TIP3   OH238687   2.441   7.862   6.693
12915TIP3    H138688   2.415   7.853   6.787
12915TIP3    H238689   2.354   7.842   6.651
12916TIP3   OH238690   2.675   7.804   6.541
12916TIP3    H138691   2.601   7.814   6.604
12916TIP3    H238692   2.749   7.777   6.599
12917TIP3   OH238693   2.903   7.754   6.689
12917TIP3    H138694   2.923   7.658   6.701
12917TIP3    H238695   2.903   7.786   6.782
12918TIP3   OH238696   1.894   7.718   6.873
12918TIP3    H138697   1.897   7.622   6.861
12918TIP3    H238698   1.935   7.731   6.961
12919TIP3   OH238699   2.409   7.374   6.738
12919TIP3    H138700   2.475   7.302   6.728
12919TIP3    H238701   2.368   7.372   6.649
12920TIP3   OH238702   2.470   7.595   6.895
12920TIP3    H138703   2.451   7.522   6.831
12920TIP3    H238704   2.387   7.646   6.892
12921TIP3   OH238705   1.188   8.167   5.200
12921TIP3    H138706   1.280   8.190   5.174
12921TIP3    H238707   1.174   8.085   5.148
12922TIP3   OH238708   2.846   8.265   5.081
12922TIP3    H138709   2.920   8.323   5.054
12922TIP3    H238710   2.884   8.226   5.163
12923TIP3   OH238711   2.970   8.141   5.287
12923TIP3    H138712   2.908   8.091   5.346
12923TIP3    H238713   3.040   8.169   5.349
12924TIP3   OH238714   3.009   8.509   5.748
12924TIP3    H138715   3.067   8.446   5.700
12924TIP3    H238716   2.983   8.570   5.678
12925TIP3   OH238717   2.906   8.045   4.926
12925TIP3    H138718   2.821   7.999   4.915
12925TIP3    H238719   2.880   8.123   4.980
12926TIP3   OH238720   2.777   7.729   4.877
12926TIP3    H138721   2.735   7.744   4.791
12926TIP3    H238722   2.762   7.632   4.885
12927TIP3   OH238723   2.787   7.990   5.424
12927TIP3    H138724   2.789   7.892   5.415
12927TIP3    H238725   2.774   8.000   5.521
12928TIP3   OH238726   1.420   8.038   6.190
12928TIP3    H138727   1.413   8.038   6.093
12928TIP3    H238728   1.510   8.070   6.205
12929TIP3   OH238729   3.077   8.414   6.286
12929TIP3    H138730   3.146   8.344   6.280
12929TIP3    H238731   3.116   8.485   6.232
12930TIP3   OH238732   3.263   8.222   6.296
12930TIP3    H138733   3.189   8.169   6.335
12930TIP3    H238734   3.337   8.161   6.314
12931TIP3   OH238735   2.727   7.462   4.872
12931TIP3    H138736   2.798   7.423   4.926
12931TIP3    H238737   2.651   7.402   4.886
12932TIP3   OH238738   2.785   7.715   5.320
12932TIP3    H138739   2.822   7.626   5.339
12932TIP3    H238740   2.843   7.741   5.247
12933TIP3   OH238741   2.943   7.881   5.821
12933TIP3    H138742   3.027   7.909   5.778
12933TIP3    H238743   2.960   7.917   5.911
12934TIP3   OH238744   3.019   8.032   6.048
12934TIP3    H138745   2.943   8.063   6.101
12934TIP3    H238746   3.045   8.113   6.000
12935TIP3   OH238747   3.456   7.631   6.599
12935TIP3    H138748   3.524   7.567   6.571
12935TIP3    H238749   3.438   7.681   6.517
12936TIP3   OH238750   2.895   7.467   5.360
12936TIP3    H138751   2.940   7.449   5.446
12936TIP3    H238752   2.835   7.390   5.356
12937TIP3   OH238753   1.589   7.449   6.195
12937TIP3    H138754   1.652   7.374   6.196
12937TIP3    H238755   1.650   7.524   6.185
12938TIP3   OH238756   1.391   7.749   6.258
12938TIP3    H138757   1.442   7.730   6.177
12938TIP3    H238758   1.399   7.846   6.260
12939TIP3   OH238759   3.337   7.766   6.394
12939TIP3    H138760   3.253   7.804   6.427
12939TIP3    H238761   3.302   7.688   6.347
12940TIP3   OH238762   2.971   7.394   4.997
12940TIP3    H138763   3.008   7.323   4.941
12940TIP3    H238764   3.040   7.462   4.994
12941TIP3   OH238765   1.378   7.221   5.754
12941TIP3    H138766   1.286   7.218   5.784
12941TIP3    H238767   1.372   7.282   5.678
12942TIP3   OH238768   1.600   7.294   6.551
12942TIP3    H138769   1.551   7.297   6.634
12942TIP3    H238770   1.535   7.334   6.490
12943TIP3   OH238771   3.237   7.522   6.292
12943TIP3    H138772   3.146   7.508   6.260
12943TIP3    H238773   3.273   7.430   6.284
12944TIP3   OH238774   2.472   7.443   5.949
12944TIP3    H138775   2.402   7.384   5.980
12944TIP3    H238776   2.503   7.400   5.868
12945TIP3   OH238777   2.968   7.319   5.814
12945TIP3    H138778   3.001   7.372   5.739
12945TIP3    H238779   2.871   7.334   5.807
12946TIP3   OH238780   3.059   7.419   5.577
12946TIP3    H138781   3.133   7.368   5.539
12946TIP3    H238782   3.090   7.511   5.563
12947TIP3   OH238783   1.689   7.144   5.926
12947TIP3    H138784   1.596   7.113   5.929
12947TIP3    H238785   1.736   7.059   5.922
12948TIP3   OH238786   1.480   7.019   5.579
12948TIP3    H138787   1.508   7.076   5.506
12948TIP3    H238788   1.451   7.084   5.645
12949TIP3   OH238789   2.127   7.181   5.811
12949TIP3    H138790   2.142   7.249   5.744
12949TIP3    H238791   2.168   7.220   5.890
12950TIP3   OH238792   2.693   7.325   5.782
12950TIP3    H138793   2.675   7.285   5.696
12950TIP3    H238794   2.672   7.252   5.843
12951TIP3   OH238795   2.725   7.247   5.352
12951TIP3    H138796   2.646   7.305   5.365
12951TIP3    H238797   2.696   7.165   5.397
12952TIP3   OH238798   1.597   7.176   5.337
12952TIP3    H138799   1.646   7.114   5.280
12952TIP3    H238800   1.670   7.231   5.373
12953TIP3   OH238801   1.911   7.431   6.790
12953TIP3    H138802   1.850   7.389   6.854
12953TIP3    H238803   1.998   7.423   6.835
12954TIP3   OH238804   2.155   7.420   6.926
12954TIP3    H138805   2.238   7.390   6.886
12954TIP3    H238806   2.137   7.350   6.992
12955TIP3   OH238807   2.976   7.489   6.724
12955TIP3    H138808   2.993   7.459   6.816
12955TIP3    H238809   3.066   7.485   6.685
12956TIP3   OH238810   4.179   8.398   4.987
12956TIP3    H138811   4.136   8.483   4.964
12956TIP3    H238812   4.110   8.337   4.954
12957TIP3   OH238813   4.176   8.412   5.371
12957TIP3    H138814   4.215   8.390   5.458
12957TIP3    H238815   4.137   8.327   5.344
12958TIP3   OH238816   3.466   8.304   5.739
12958TIP3    H138817   3.499   8.236   5.800
12958TIP3    H238818   3.547   8.355   5.722
12959TIP3   OH238819   4.394   8.712   5.057
12959TIP3    H138820   4.392   8.639   5.122
12959TIP3    H238821   4.454   8.774   5.100
12960TIP3   OH238822   3.509   8.653   5.540
12960TIP3    H138823   3.479   8.567   5.504
12960TIP3    H238824   3.588   8.670   5.483
12961TIP3   OH238825   3.155   7.919   5.232
12961TIP3    H138826   3.106   8.000   5.250
12961TIP3    H238827   3.083   7.859   5.203
12962TIP3   OH238828   3.205   8.205   5.419
12962TIP3    H138829   3.253   8.126   5.451
12962TIP3    H238830   3.276   8.254   5.376
12963TIP3   OH238831   3.991   8.629   5.406
12963TIP3    H138832   4.039   8.550   5.376
12963TIP3    H238833   4.068   8.683   5.434
12964TIP3   OH238834   4.992   7.956   5.411
12964TIP3    H138835   5.021   8.040   5.453
12964TIP3    H238836   5.015   7.973   5.318
12965TIP3   OH238837   4.388   8.138   5.440
12965TIP3    H138838   4.431   8.053   5.462
12965TIP3    H238839   4.354   8.119   5.351
12966TIP3   OH238840   3.729   7.799   5.407
12966TIP3    H138841   3.709   7.871   5.343
12966TIP3    H238842   3.681   7.725   5.365
12967TIP3   OH238843   4.423   7.892   5.027
12967TIP3    H138844   4.494   7.877   5.094
12967TIP3    H238845   4.477   7.925   4.953
12968TIP3   OH238846   3.359   8.000   5.515
12968TIP3    H138847   3.442   7.980   5.563
12968TIP3    H238848   3.373   7.945   5.435
12969TIP3   OH238849   3.795   8.198   5.317
12969TIP3    H138850   3.890   8.176   5.327
12969TIP3    H238851   3.758   8.114   5.283
12970TIP3   OH238852   5.064   8.166   5.580
12970TIP3    H138853   4.978   8.211   5.566
12970TIP3    H238854   5.090   8.202   5.667
12971TIP3   OH238855   3.723   7.782   5.843
12971TIP3    H138856   3.662   7.818   5.776
12971TIP3    H238857   3.670   7.797   5.924
12972TIP3   OH238858   4.049   8.603   4.855
12972TIP3    H138859   4.017   8.601   4.763
12972TIP3    H238860   4.091   8.691   4.861
12973TIP3   OH238861   3.827   8.561   5.633
12973TIP3    H138862   3.764   8.628   5.665
12973TIP3    H238863   3.864   8.605   5.554
12974TIP3   OH238864   4.624   7.898   5.208
12974TIP3    H138865   4.611   7.852   5.292
12974TIP3    H238866   4.677   7.976   5.236
12975TIP3   OH238867   3.595   7.897   5.626
12975TIP3    H138868   3.657   7.969   5.650
12975TIP3    H238869   3.645   7.856   5.551
12976TIP3   OH238870   3.656   8.776   5.742
12976TIP3    H138871   3.609   8.758   5.658
12976TIP3    H238872   3.579   8.767   5.803
12977TIP3   OH238873   3.068   8.416   5.009
12977TIP3    H138874   3.030   8.461   4.929
12977TIP3    H238875   3.075   8.489   5.071
12978TIP3   OH238876   4.784   7.855   5.576
12978TIP3    H138877   4.697   7.883   5.543
12978TIP3    H238878   4.845   7.888   5.506
12979TIP3   OH238879   4.072   7.495   5.559
12979TIP3    H138880   4.057   7.401   5.580
12979TIP3    H238881   3.996   7.536   5.607
12980TIP3   OH238882   4.427   8.731   4.772
12980TIP3    H138883   4.404   8.649   4.723
12980TIP3    H238884   4.438   8.698   4.864
12981TIP3   OH238885   4.708   8.867   5.558
12981TIP3    H138886   4.696   8.789   5.500
12981TIP3    H238887   4.740   8.935   5.495
12982TIP3   OH238888   4.010   8.257   4.821
12982TIP3    H138889   3.929   8.308   4.802
12982TIP3    H238890   4.053   8.254   4.733
12983TIP3   OH238891   3.965   8.051   4.527
12983TIP3    H138892   4.034   8.102   4.574
12983TIP3    H238893   4.022   7.986   4.480
12984TIP3   OH238894   4.913   8.508   5.403
12984TIP3    H138895   4.828   8.558   5.409
12984TIP3    H238896   4.942   8.533   5.313
12985TIP3   OH238897   4.357   8.336   4.789
12985TIP3    H138898   4.303   8.358   4.869
12985TIP3    H238899   4.442   8.311   4.832
12986TIP3   OH238900   4.588   8.382   5.703
12986TIP3    H138901   4.587   8.465   5.756
12986TIP3    H238902   4.502   8.388   5.658
12987TIP3   OH238903   3.594   8.346   5.194
12987TIP3    H138904   3.550   8.284   5.131
12987TIP3    H238905   3.667   8.291   5.229
12988TIP3   OH238906   3.731   8.713   5.402
12988TIP3    H138907   3.693   8.705   5.312
12988TIP3    H238908   3.828   8.702   5.386
12989TIP3   OH238909   3.709   8.321   5.554
12989TIP3    H138910   3.749   8.290   5.470
12989TIP3    H238911   3.759   8.403   5.573
12990TIP3   OH238912   3.910   8.774   5.876
12990TIP3    H138913   3.873   8.860   5.901
12990TIP3    H238914   3.835   8.738   5.824
12991TIP3   OH238915   4.188   8.205   4.613
12991TIP3    H138916   4.250   8.263   4.663
12991TIP3    H238917   4.218   8.219   4.520
12992TIP3   OH238918   3.621   8.431   5.985
12992TIP3    H138919   3.625   8.518   6.030
12992TIP3    H238920   3.528   8.408   5.998
12993TIP3   OH238921   4.712   7.444   4.663
12993TIP3    H138922   4.629   7.464   4.712
12993TIP3    H238923   4.724   7.526   4.611
12994TIP3   OH238924   3.453   8.188   5.010
12994TIP3    H138925   3.385   8.225   4.950
12994TIP3    H238926   3.423   8.098   5.021
12995TIP3   OH238927   3.233   8.568   5.928
12995TIP3    H138928   3.202   8.540   5.840
12995TIP3    H238929   3.279   8.487   5.960
12996TIP3   OH238930   4.846   8.347   5.875
12996TIP3    H138931   4.760   8.354   5.831
12996TIP3    H238932   4.863   8.250   5.869
12997TIP3   OH238933   3.440   8.755   5.907
12997TIP3    H138934   3.492   8.734   5.988
12997TIP3    H238935   3.364   8.695   5.918
12998TIP3   OH238936   3.837   7.576   5.691
12998TIP3    H138937   3.749   7.545   5.660
12998TIP3    H238938   3.809   7.655   5.741
12999TIP3   OH238939   4.374   7.690   5.884
12999TIP3    H138940   4.443   7.663   5.947
12999TIP3    H238941   4.291   7.671   5.932
13000TIP3   OH238942   4.607   8.120   5.801
13000TIP3    H138943   4.557   8.118   5.886
13000TIP3    H238944   4.585   8.209   5.766
13001TIP3   OH238945   4.274   8.231   4.360
13001TIP3    H138946   4.238   8.211   4.272
13001TIP3    H238947   4.338   8.301   4.338
13002TIP3   OH238948   3.982   7.624   4.660
13002TIP3    H138949   3.947   7.620   4.751
13002TIP3    H238950   3.943   7.541   4.624
13003TIP3   OH238951   3.768   8.098   5.704
13003TIP3    H138952   3.722   8.117   5.788
13003TIP3    H238953   3.749   8.179   5.653
13004TIP3   OH238954   3.652   7.981   5.220
13004TIP3    H138955   3.561   7.952   5.240
13004TIP3    H238956   3.664   7.939   5.132
13005TIP3   OH238957   4.146   8.060   4.953
13005TIP3    H138958   4.094   8.128   4.906
13005TIP3    H238959   4.202   8.025   4.881
13006TIP3   OH238960   4.323   8.334   6.029
13006TIP3    H138961   4.300   8.264   6.094
13006TIP3    H238962   4.416   8.352   6.055
13007TIP3   OH238963   4.301   8.088   5.185
13007TIP3    H138964   4.236   8.113   5.115
13007TIP3    H238965   4.338   8.009   5.141
13008TIP3   OH238966   3.587   8.120   5.916
13008TIP3    H138967   3.634   8.174   5.981
13008TIP3    H238968   3.575   8.036   5.965
13009TIP3   OH238969   3.639   7.600   4.624
13009TIP3    H138970   3.629   7.598   4.721
13009TIP3    H238971   3.560   7.651   4.598
13010TIP3   OH238972   3.183   7.644   5.493
13010TIP3    H138973   3.259   7.673   5.548
13010TIP3    H238974   3.224   7.605   5.414
13011TIP3   OH238975   3.148   7.618   5.015
13011TIP3    H138976   3.193   7.657   4.937
13011TIP3    H238977   3.085   7.690   5.036
13012TIP3   OH238978   4.309   8.336   5.605
13012TIP3    H138979   4.344   8.264   5.546
13012TIP3    H238980   4.280   8.281   5.682
13013TIP3   OH238981   3.988   7.803   5.281
13013TIP3    H138982   3.908   7.799   5.337
13013TIP3    H238983   4.059   7.789   5.346
13014TIP3   OH238984   3.417   7.857   5.287
13014TIP3    H138985   3.323   7.864   5.258
13014TIP3    H238986   3.440   7.765   5.267
13015TIP3   OH238987   3.678   7.853   4.980
13015TIP3    H138988   3.772   7.864   4.959
13015TIP3    H238989   3.633   7.873   4.895
13016TIP3   OH238990   4.474   7.877   5.485
13016TIP3    H138991   4.442   7.890   5.577
13016TIP3    H238992   4.406   7.817   5.451
13017TIP3   OH238993   3.529   7.892   4.754
13017TIP3    H138994   3.462   7.842   4.703
13017TIP3    H238995   3.584   7.928   4.680
13018TIP3   OH238996   3.601   8.679   6.125
13018TIP3    H138997   3.683   8.704   6.174
13018TIP3    H238998   3.538   8.676   6.200
13019TIP3   OH238999   4.062   8.134   5.380
13019TIP3    H139000   4.133   8.090   5.331
13019TIP3    H239001   4.064   8.088   5.466
13020TIP3   OH239002   3.581   7.615   5.264
13020TIP3    H139003   3.543   7.539   5.314
13020TIP3    H239004   3.628   7.569   5.193
13021TIP3   OH239005   4.039   8.034   5.663
13021TIP3    H139006   3.949   8.067   5.681
13021TIP3    H239007   4.096   8.092   5.716
13022TIP3   OH239008   3.778   8.399   4.768
13022TIP3    H139009   3.700   8.341   4.753
13022TIP3    H239010   3.752   8.443   4.853
13023TIP3   OH239011   4.675   8.647   5.392
13023TIP3    H139012   4.704   8.697   5.312
13023TIP3    H239013   4.591   8.606   5.362
13024TIP3   OH239014   4.234   7.724   4.635
13024TIP3    H139015   4.137   7.703   4.641
13024TIP3    H239016   4.238   7.819   4.657
13025TIP3   OH239017   4.185   8.757   5.761
13025TIP3    H139018   4.225   8.708   5.834
13025TIP3    H239019   4.101   8.788   5.803
13026TIP3   OH239020   4.301   7.977   4.735
13026TIP3    H139021   4.398   7.982   4.747
13026TIP3    H239022   4.283   8.056   4.681
13027TIP3   OH239023   3.455   8.396   5.428
13027TIP3    H139024   3.502   8.388   5.343
13027TIP3    H239025   3.518   8.352   5.489
13028TIP3   OH239026   3.887   8.590   4.608
13028TIP3    H139027   3.843   8.660   4.661
13028TIP3    H239028   3.853   8.511   4.654
13029TIP3   OH239029   3.355   8.362   6.058
13029TIP3    H139030   3.387   8.358   6.151
13029TIP3    H239031   3.302   8.281   6.055
13030TIP3   OH239032   4.085   8.461   6.076
13030TIP3    H139033   4.023   8.408   6.024
13030TIP3    H239034   4.171   8.427   6.045
13031TIP3   OH239035   4.741   8.071   4.564
13031TIP3    H139036   4.681   8.026   4.501
13031TIP3    H239037   4.737   8.161   4.524
13032TIP3   OH239038   4.966   8.903   5.653
13032TIP3    H139039   4.871   8.918   5.639
13032TIP3    H239040   4.995   8.893   5.559
13033TIP3   OH239041   4.439   8.522   5.290
13033TIP3    H139042   4.348   8.495   5.315
13033TIP3    H239043   4.474   8.437   5.255
13034TIP3   OH239044   3.132   8.048   4.760
13034TIP3    H139045   3.181   8.130   4.784
13034TIP3    H239046   3.055   8.054   4.821
13035TIP3   OH239047   3.702   8.519   5.004
13035TIP3    H139048   3.673   8.601   5.045
13035TIP3    H239049   3.678   8.454   5.074
13036TIP3   OH239050   4.231   8.722   5.492
13036TIP3    H139051   4.218   8.734   5.588
13036TIP3    H239052   4.316   8.677   5.488
13037TIP3   OH239053   4.240   8.549   4.345
13037TIP3    H139054   4.271   8.538   4.438
13037TIP3    H239055   4.159   8.602   4.358
13038TIP3   OH239056   3.560   7.866   6.055
13038TIP3    H139057   3.463   7.868   6.070
13038TIP3    H239058   3.590   7.814   6.131
13039TIP3   OH239059   4.363   8.524   4.595
13039TIP3    H139060   4.358   8.452   4.661
13039TIP3    H239061   4.459   8.522   4.573
13040TIP3   OH239062   3.546   8.541   4.428
13040TIP3    H139063   3.584   8.456   4.398
13040TIP3    H239064   3.594   8.556   4.509
13041TIP3   OH239065   3.250   8.286   4.846
13041TIP3    H139066   3.188   8.327   4.910
13041TIP3    H239067   3.262   8.361   4.784
13042TIP3   OH239068   4.401   7.928   5.745
13042TIP3    H139069   4.481   7.967   5.783
13042TIP3    H239070   4.389   7.847   5.799
13043TIP3   OH239071   4.280   7.676   4.914
13043TIP3    H139072   4.267   7.696   4.820
13043TIP3    H239073   4.321   7.758   4.948
13044TIP3   OH239074   3.961   7.863   5.013
13044TIP3    H139075   4.028   7.933   4.996
13044TIP3    H239076   3.970   7.852   5.110
13045TIP3   OH239077   4.238   8.175   5.814
13045TIP3    H139078   4.265   8.226   5.893
13045TIP3    H239079   4.290   8.093   5.823
13046TIP3   OH239080   4.107   7.578   5.110
13046TIP3    H139081   4.105   7.655   5.169
13046TIP3    H239082   4.171   7.611   5.042
13047TIP3   OH239083   3.623   7.587   4.900
13047TIP3    H139084   3.620   7.675   4.941
13047TIP3    H239085   3.719   7.568   4.908
13048TIP3   OH239086   4.874   8.077   5.800
13048TIP3    H139087   4.776   8.076   5.808
13048TIP3    H239088   4.885   8.033   5.715
13049TIP3   OH239089   4.526   8.272   5.188
13049TIP3    H139090   4.450   8.212   5.200
13049TIP3    H239091   4.597   8.224   5.236
13050TIP3   OH239092   3.271   8.511   4.677
13050TIP3    H139093   3.292   8.601   4.649
13050TIP3    H239094   3.309   8.457   4.605
13051TIP3   OH239095   3.179   7.778   4.794
13051TIP3    H139096   3.180   7.875   4.784
13051TIP3    H239097   3.109   7.752   4.733
13052TIP3   OH239098   3.572   7.497   5.660
13052TIP3    H139099   3.542   7.461   5.573
13052TIP3    H239100   3.562   7.419   5.718
13053TIP3   OH239101   3.401   8.652   6.316
13053TIP3    H139102   3.425   8.557   6.315
13053TIP3    H239103   3.315   8.652   6.268
13054TIP3   OH239104   3.367   8.303   4.517
13054TIP3    H139105   3.419   8.269   4.593
13054TIP3    H239106   3.439   8.306   4.450
13055TIP3   OH239107   4.019   8.722   6.122
13055TIP3    H139108   3.990   8.737   6.030
13055TIP3    H239109   4.056   8.632   6.114
13056TIP3   OH239110   3.817   8.484   4.333
13056TIP3    H139111   3.859   8.502   4.418
13056TIP3    H239112   3.852   8.395   4.313
13057TIP3   OH239113   4.494   8.753   5.693
13057TIP3    H139114   4.564   8.806   5.649
13057TIP3    H239115   4.420   8.816   5.688
13058TIP3   OH239116   3.522   8.398   6.290
13058TIP3    H139117   3.595   8.339   6.267
13058TIP3    H239118   3.552   8.431   6.378
13059TIP3   OH239119   3.572   8.216   4.724
13059TIP3    H139120   3.550   8.169   4.806
13059TIP3    H239121   3.615   8.145   4.671
13060TIP3   OH239122   3.847   8.276   5.953
13060TIP3    H139123   3.775   8.342   5.959
13060TIP3    H239124   3.902   8.314   5.880
13061TIP3   OH239125   3.689   8.017   4.571
13061TIP3    H139126   3.665   8.016   4.476
13061TIP3    H239127   3.787   8.018   4.564
13062TIP3   OH239128   4.376   8.672   6.087
13062TIP3    H139129   4.458   8.645   6.045
13062TIP3    H239130   4.372   8.612   6.164
13063TIP3   OH239131   4.506   8.351   4.233
13063TIP3    H139132   4.481   8.299   4.154
13063TIP3    H239133   4.485   8.441   4.201
13064TIP3   OH239134   3.979   8.073   6.081
13064TIP3    H139135   3.980   7.994   6.024
13064TIP3    H239136   3.933   8.139   6.024
13065TIP3   OH239137   3.981   7.861   5.891
13065TIP3    H139138   4.009   7.899   5.806
13065TIP3    H239139   3.888   7.836   5.873
13066TIP3   OH239140   4.000   8.394   5.766
13066TIP3    H139141   4.085   8.402   5.722
13066TIP3    H239142   3.946   8.461   5.719
13067TIP3   OH239143   4.587   8.360   6.143
13067TIP3    H139144   4.635   8.277   6.159
13067TIP3    H239145   4.659   8.419   6.117
13068TIP3   OH239146   4.628   8.608   5.877
13068TIP3    H139147   4.571   8.665   5.819
13068TIP3    H239148   4.717   8.631   5.840
13069TIP3   OH239149   3.855   8.179   6.313
13069TIP3    H139150   3.787   8.110   6.330
13069TIP3    H239151   3.891   8.149   6.227
13070TIP3   OH239152   4.111   7.620   5.963
13070TIP3    H139153   4.061   7.702   5.940
13070TIP3    H239154   4.042   7.551   5.952
13071TIP3   OH239155   4.237   8.122   6.178
13071TIP3    H139156   4.222   8.108   6.273
13071TIP3    H239157   4.148   8.099   6.144
13072TIP3   OH239158   4.474   8.072   6.030
13072TIP3    H139159   4.400   8.074   6.095
13072TIP3    H239160   4.549   8.042   6.086
13073TIP3   OH239161   4.705   8.013   6.176
13073TIP3    H139162   4.717   7.917   6.193
13073TIP3    H239163   4.699   8.050   6.267
13074TIP3   OH239164   3.692   7.961   6.357
13074TIP3    H139165   3.695   7.866   6.331
13074TIP3    H239166   3.738   7.954   6.444
13075TIP3   OH239167   4.205   7.630   6.221
13075TIP3    H139168   4.271   7.557   6.213
13075TIP3    H239169   4.164   7.626   6.132
13076TIP3   OH239170   4.271   7.845   6.379
13076TIP3    H139171   4.249   7.773   6.315
13076TIP3    H239172   4.192   7.902   6.373
13077TIP3   OH239173   4.857   9.052   5.939
13077TIP3    H139174   4.780   9.021   5.991
13077TIP3    H239175   4.909   9.095   6.012
13078TIP3   OH239176   4.634   8.518   4.575
13078TIP3    H139177   4.704   8.578   4.540
13078TIP3    H239178   4.681   8.480   4.652
13079TIP3   OH239179   4.770   8.392   4.774
13079TIP3    H139180   4.708   8.350   4.836
13079TIP3    H239181   4.840   8.427   4.833
13080TIP3   OH239182   4.808   8.781   5.197
13080TIP3    H139183   4.874   8.722   5.156
13080TIP3    H239184   4.820   8.864   5.149
13081TIP3   OH239185   4.705   8.304   4.415
13081TIP3    H139186   4.635   8.309   4.347
13081TIP3    H239187   4.677   8.378   4.473
13082TIP3   OH239188   4.580   7.975   4.369
13082TIP3    H139189   4.528   8.010   4.295
13082TIP3    H239190   4.558   7.879   4.362
13083TIP3   OH239191   4.583   8.251   4.920
13083TIP3    H139192   4.592   8.155   4.910
13083TIP3    H239193   4.569   8.261   5.017
13084TIP3   OH239194   3.205   8.340   5.663
13084TIP3    H139195   3.203   8.299   5.575
13084TIP3    H239196   3.302   8.335   5.682
13085TIP3   OH239197   4.876   8.677   5.785
13085TIP3    H139198   4.949   8.612   5.772
13085TIP3    H239199   4.901   8.748   5.723
13086TIP3   OH239200   5.066   8.482   5.788
13086TIP3    H139201   4.988   8.433   5.824
13086TIP3    H239202   5.135   8.413   5.801
13087TIP3   OH239203   4.522   7.708   4.351
13087TIP3    H139204   4.593   7.676   4.410
13087TIP3    H239205   4.447   7.650   4.372
13088TIP3   OH239206   4.582   7.971   4.808
13088TIP3    H139207   4.623   7.883   4.823
13088TIP3    H239208   4.639   8.003   4.735
13089TIP3   OH239209   4.739   8.139   5.307
13089TIP3    H139210   4.825   8.164   5.265
13089TIP3    H239211   4.755   8.177   5.396
13090TIP3   OH239212   4.813   8.286   5.537
13090TIP3    H139213   4.736   8.321   5.587
13090TIP3    H239214   4.846   8.367   5.492
13091TIP3   OH239215   3.431   8.020   6.343
13091TIP3    H139216   3.529   8.010   6.344
13091TIP3    H239217   3.406   7.930   6.374
13092TIP3   OH239218   5.259   7.873   6.087
13092TIP3    H139219   5.324   7.812   6.045
13092TIP3    H239220   5.229   7.926   6.009
13093TIP3   OH239221   4.688   7.722   4.850
13093TIP3    H139222   4.736   7.703   4.934
13093TIP3    H239223   4.628   7.645   4.847
13094TIP3   OH239224   3.389   7.706   5.670
13094TIP3    H139225   3.448   7.629   5.679
13094TIP3    H239226   3.454   7.778   5.660
13095TIP3   OH239227   3.187   7.981   5.737
13095TIP3    H139228   3.233   7.968   5.652
13095TIP3    H239229   3.246   8.043   5.781
13096TIP3   OH239230   5.128   8.012   5.898
13096TIP3    H139231   5.044   8.059   5.918
13096TIP3    H239232   5.094   7.942   5.839
13097TIP3   OH239233   4.765   7.651   4.485
13097TIP3    H139234   4.802   7.582   4.426
13097TIP3    H239235   4.833   7.721   4.481
13098TIP3   OH239236   3.176   7.481   5.247
13098TIP3    H139237   3.083   7.474   5.276
13098TIP3    H239238   3.168   7.538   5.168
13099TIP3   OH239239   3.395   7.558   6.056
13099TIP3    H139240   3.346   7.555   6.140
13099TIP3    H239241   3.328   7.597   5.997
13100TIP3   OH239242   5.031   7.778   5.778
13100TIP3    H139243   4.941   7.768   5.742
13100TIP3    H239244   5.065   7.686   5.769
13101TIP3   OH239245   4.233   7.692   5.397
13101TIP3    H139246   4.194   7.620   5.449
13101TIP3    H239247   4.309   7.648   5.354
13102TIP3   OH239248   4.755   7.579   5.305
13102TIP3    H139249   4.791   7.628   5.227
13102TIP3    H239250   4.660   7.595   5.296
13103TIP3   OH239251   4.852   7.672   5.067
13103TIP3    H139252   4.926   7.620   5.028
13103TIP3    H239253   4.887   7.764   5.052
13104TIP3   OH239254   3.484   7.402   5.412
13104TIP3    H139255   3.392   7.368   5.417
13104TIP3    H239256   3.533   7.317   5.408
13105TIP3   OH239257   3.274   7.275   5.066
13105TIP3    H139258   3.303   7.332   4.992
13105TIP3    H239259   3.247   7.341   5.133
13106TIP3   OH239260   3.931   7.436   5.296
13106TIP3    H139261   3.987   7.480   5.231
13106TIP3    H239262   3.964   7.472   5.380
13107TIP3   OH239263   4.471   7.583   5.277
13107TIP3    H139264   4.477   7.540   5.191
13107TIP3    H239265   4.461   7.505   5.337
13108TIP3   OH239266   4.506   7.510   4.842
13108TIP3    H139267   4.419   7.551   4.859
13108TIP3    H239268   4.493   7.422   4.884
13109TIP3   OH239269   3.393   7.432   4.822
13109TIP3    H139270   3.440   7.367   4.766
13109TIP3    H239271   3.468   7.484   4.858
13110TIP3   OH239272   3.899   7.612   4.924
13110TIP3    H139273   3.958   7.563   4.982
13110TIP3    H239274   3.922   7.704   4.950
13111TIP3   OH239275   3.692   7.683   6.301
13111TIP3    H139276   3.656   7.613   6.360
13111TIP3    H239277   3.786   7.683   6.332
13112TIP3   OH239278   3.942   7.675   6.420
13112TIP3    H139279   4.029   7.648   6.385
13112TIP3    H239280   3.927   7.608   6.490
13113TIP3   OH239281   4.770   7.745   6.209
13113TIP3    H139282   4.787   7.715   6.301
13113TIP3    H239283   4.859   7.740   6.170
13114TIP3   OH239284   5.974   8.651   4.477
13114TIP3    H139285   5.936   8.737   4.450
13114TIP3    H239286   5.903   8.593   4.445
13115TIP3   OH239287   5.959   8.663   4.858
13115TIP3    H139288   5.997   8.637   4.945
13115TIP3    H239289   5.921   8.579   4.829
13116TIP3   OH239290   5.265   8.559   5.219
13116TIP3    H139291   5.296   8.490   5.281
13116TIP3    H239292   5.343   8.616   5.215
13117TIP3   OH239293   6.187   8.964   4.548
13117TIP3    H139294   6.182   8.891   4.612
13117TIP3    H239295   6.251   9.022   4.592
13118TIP3   OH239296   5.295   8.914   5.012
13118TIP3    H139297   5.270   8.823   4.984
13118TIP3    H239298   5.382   8.924   4.967
13119TIP3   OH239299   4.951   8.171   4.718
13119TIP3    H139300   4.906   8.255   4.738
13119TIP3    H239301   4.878   8.122   4.675
13120TIP3   OH239302   5.004   8.464   4.904
13120TIP3    H139303   5.054   8.384   4.935
13120TIP3    H239304   5.076   8.520   4.870
13121TIP3   OH239305   5.786   8.885   4.885
13121TIP3    H139306   5.832   8.803   4.860
13121TIP3    H239307   5.861   8.944   4.902
13122TIP3   OH239308   6.787   8.207   4.903
13122TIP3    H139309   6.804   8.295   4.940
13122TIP3    H239310   6.820   8.218   4.812
13123TIP3   OH239311   6.178   8.396   4.929
13123TIP3    H139312   6.228   8.315   4.950
13123TIP3    H239313   6.150   8.376   4.837
13124TIP3   OH239314   5.526   8.055   4.894
13124TIP3    H139315   5.505   8.127   4.831
13124TIP3    H239316   5.476   7.982   4.852
13125TIP3   OH239317   6.218   8.145   4.514
13125TIP3    H139318   6.288   8.133   4.582
13125TIP3    H239319   6.274   8.179   4.441
13126TIP3   OH239320   5.154   8.256   5.004
13126TIP3    H139321   5.238   8.238   5.052
13126TIP3    H239322   5.170   8.202   4.923
13127TIP3   OH239323   5.595   8.454   4.800
13127TIP3    H139324   5.689   8.429   4.812
13127TIP3    H239325   5.556   8.369   4.768
13128TIP3   OH239326   5.518   8.039   5.330
13128TIP3    H139327   5.460   8.076   5.262
13128TIP3    H239328   5.464   8.057   5.410
13129TIP3   OH239329   5.852   8.855   4.338
13129TIP3    H139330   5.810   8.860   4.251
13129TIP3    H239331   5.886   8.946   4.350
13130TIP3   OH239332   5.623   8.820   5.123
13130TIP3    H139333   5.574   8.890   5.171
13130TIP3    H239334   5.655   8.870   5.045
13131TIP3   OH239335   6.418   8.157   4.695
13131TIP3    H139336   6.409   8.110   4.779
13131TIP3    H239337   6.474   8.233   4.719
13132TIP3   OH239338   5.390   8.153   5.113
13132TIP3    H139339   5.450   8.227   5.137
13132TIP3    H239340   5.441   8.114   5.038
13133TIP3   OH239341   5.454   9.027   5.227
13133TIP3    H139342   5.410   9.018   5.139
13133TIP3    H239343   5.375   9.029   5.285
13134TIP3   OH239344   4.838   8.662   4.463
13134TIP3    H139345   4.807   8.670   4.370
13134TIP3    H239346   4.854   8.756   4.481
13135TIP3   OH239347   6.563   8.101   5.056
13135TIP3    H139348   6.480   8.130   5.013
13135TIP3    H239349   6.632   8.138   4.998
13136TIP3   OH239350   5.870   7.752   5.048
13136TIP3    H139351   5.852   7.658   5.066
13136TIP3    H239352   5.793   7.793   5.094
13137TIP3   OH239353   6.219   8.986   4.260
13137TIP3    H139354   6.198   8.904   4.210
13137TIP3    H239355   6.234   8.952   4.350
13138TIP3   OH239356   5.805   8.512   4.307
13138TIP3    H139357   5.724   8.566   4.291
13138TIP3    H239358   5.849   8.516   4.220
13139TIP3   OH239359   5.760   8.308   4.012
13139TIP3    H139360   5.827   8.358   4.063
13139TIP3    H239361   5.818   8.243   3.967
13140TIP3   OH239362   6.151   8.591   4.276
13140TIP3    H139363   6.098   8.613   4.357
13140TIP3    H239364   6.237   8.567   4.318
13141TIP3   OH239365   5.391   8.597   4.680
13141TIP3    H139366   5.350   8.536   4.615
13141TIP3    H239367   5.466   8.545   4.714
13142TIP3   OH239368   5.522   8.968   4.885
13142TIP3    H139369   5.482   8.963   4.796
13142TIP3    H239370   5.618   8.955   4.866
13143TIP3   OH239371   5.509   8.579   5.039
13143TIP3    H139372   5.550   8.552   4.954
13143TIP3    H239373   5.556   8.662   5.060
13144TIP3   OH239374   5.576   9.032   5.499
13144TIP3    H139375   5.602   9.121   5.470
13144TIP3    H239376   5.579   8.987   5.412
13145TIP3   OH239377   5.987   8.459   4.098
13145TIP3    H139378   6.047   8.518   4.150
13145TIP3    H239379   6.017   8.477   4.006
13146TIP3   OH239380   5.409   8.669   5.468
13146TIP3    H139381   5.407   8.755   5.515
13146TIP3    H239382   5.315   8.644   5.479
13147TIP3   OH239383   6.521   7.729   4.168
13147TIP3    H139384   6.436   7.731   4.215
13147TIP3    H239385   6.508   7.786   4.092
13148TIP3   OH239386   5.256   8.440   4.487
13148TIP3    H139387   5.185   8.483   4.435
13148TIP3    H239388   5.215   8.356   4.511
13149TIP3   OH239389   5.047   8.828   5.402
13149TIP3    H139390   4.980   8.803   5.337
13149TIP3    H239391   5.084   8.742   5.431
13150TIP3   OH239392   5.234   9.032   5.395
13150TIP3    H139393   5.278   8.986   5.469
13150TIP3    H239394   5.158   8.971   5.383
13151TIP3   OH239395   5.633   7.832   5.179
13151TIP3    H139396   5.545   7.802   5.148
13151TIP3    H239397   5.607   7.913   5.226
13152TIP3   OH239398   6.164   7.946   5.374
13152TIP3    H139399   6.223   7.917   5.446
13152TIP3    H239400   6.075   7.930   5.412
13153TIP3   OH239401   6.061   8.479   3.836
13153TIP3    H139402   6.037   8.463   3.744
13153TIP3    H239403   6.129   8.549   3.825
13154TIP3   OH239404   5.782   7.880   4.148
13154TIP3    H139405   5.747   7.878   4.240
13154TIP3    H239406   5.741   7.798   4.114
13155TIP3   OH239407   5.562   8.353   5.187
13155TIP3    H139408   5.522   8.376   5.273
13155TIP3    H239409   5.546   8.436   5.137
13156TIP3   OH239410   5.449   8.236   4.707
13156TIP3    H139411   5.357   8.210   4.728
13156TIP3    H239412   5.460   8.194   4.619
13157TIP3   OH239413   5.942   8.315   4.438
13157TIP3    H139414   5.890   8.384   4.392
13157TIP3    H239415   5.999   8.281   4.366
13158TIP3   OH239416   6.095   8.343   4.672
13158TIP3    H139417   6.032   8.369   4.602
13158TIP3    H239418   6.134   8.265   4.628
13159TIP3   OH239419   5.382   8.376   5.400
13159TIP3    H139420   5.429   8.437   5.458
13159TIP3    H239421   5.374   8.296   5.455
13160TIP3   OH239422   5.436   7.856   4.110
13160TIP3    H139423   5.427   7.855   4.207
13160TIP3    H239424   5.358   7.910   4.086
13161TIP3   OH239425   4.978   7.896   4.985
13161TIP3    H139426   5.053   7.930   5.038
13161TIP3    H239427   5.019   7.868   4.902
13162TIP3   OH239428   4.941   7.878   4.500
13162TIP3    H139429   4.988   7.914   4.422
13162TIP3    H239430   4.881   7.952   4.519
13163TIP3   OH239431   6.074   8.586   5.095
13163TIP3    H139432   6.124   8.520   5.040
13163TIP3    H239433   6.049   8.528   5.170
13164TIP3   OH239434   5.782   8.055   4.766
13164TIP3    H139435   5.703   8.055   4.823
13164TIP3    H239436   5.854   8.048   4.832
13165TIP3   OH239437   5.212   8.115   4.775
13165TIP3    H139438   5.118   8.122   4.746
13165TIP3    H239439   5.234   8.022   4.753
13166TIP3   OH239440   5.474   8.106   4.468
13166TIP3    H139441   5.568   8.122   4.448
13166TIP3    H239442   5.428   8.129   4.384
13167TIP3   OH239443   6.272   8.134   4.966
13167TIP3    H139444   6.247   8.146   5.061
13167TIP3    H239445   6.200   8.076   4.935
13168TIP3   OH239446   5.327   8.144   4.242
13168TIP3    H139447   5.255   8.099   4.194
13168TIP3    H239448   5.379   8.181   4.168
13169TIP3   OH239449   5.366   8.906   5.600
13169TIP3    H139450   5.451   8.954   5.585
13169TIP3    H239451   5.346   8.923   5.694
13170TIP3   OH239452   5.859   8.388   4.864
13170TIP3    H139453   5.934   8.348   4.818
13170TIP3    H239454   5.861   8.343   4.950
13171TIP3   OH239455   5.376   7.871   4.751
13171TIP3    H139456   5.339   7.795   4.801
13171TIP3    H239457   5.423   7.826   4.679
13172TIP3   OH239458   5.829   8.280   5.146
13172TIP3    H139459   5.741   8.319   5.164
13172TIP3    H239460   5.888   8.336   5.201
13173TIP3   OH239461   5.574   8.657   4.258
13173TIP3    H139462   5.496   8.599   4.243
13173TIP3    H239463   5.548   8.703   4.341
13174TIP3   OH239464   6.020   7.998   4.083
13174TIP3    H139465   5.933   7.967   4.116
13174TIP3    H239466   6.037   8.079   4.136
13175TIP3   OH239467   6.099   8.228   4.219
13175TIP3    H139468   6.196   8.234   4.238
13175TIP3    H239469   6.083   8.312   4.171
13176TIP3   OH239470   5.248   8.648   4.913
13176TIP3    H139471   5.299   8.640   4.829
13176TIP3    H239472   5.309   8.608   4.977
13177TIP3   OH239473   5.680   8.845   4.089
13177TIP3    H139474   5.640   8.917   4.144
13177TIP3    H239475   5.646   8.767   4.139
13178TIP3   OH239476   5.146   8.605   5.540
13178TIP3    H139477   5.152   8.584   5.635
13178TIP3    H239478   5.075   8.545   5.512
13179TIP3   OH239479   6.533   8.328   4.053
13179TIP3    H139480   6.472   8.282   3.991
13179TIP3    H239481   6.529   8.417   4.011
13180TIP3   OH239482   6.196   8.784   4.766
13180TIP3    H139483   6.114   8.732   4.782
13180TIP3    H239484   6.260   8.712   4.750
13181TIP3   OH239485   4.933   8.301   4.259
13181TIP3    H139486   4.978   8.386   4.278
13181TIP3    H239487   4.855   8.307   4.318
13182TIP3   OH239488   5.496   8.780   4.494
13182TIP3    H139489   5.456   8.857   4.539
13182TIP3    H239490   5.473   8.711   4.560
13183TIP3   OH239491   6.044   8.959   4.977
13183TIP3    H139492   6.021   8.897   5.050
13183TIP3    H239493   6.104   8.904   4.922
13184TIP3   OH239494   6.032   8.803   3.833
13184TIP3    H139495   6.066   8.794   3.925
13184TIP3    H239496   5.953   8.859   3.847
13185TIP3   OH239497   5.354   8.119   5.541
13185TIP3    H139498   5.258   8.126   5.554
13185TIP3    H239499   5.382   8.069   5.619
13186TIP3   OH239500   6.156   8.778   4.080
13186TIP3    H139501   6.152   8.708   4.148
13186TIP3    H239502   6.252   8.777   4.059
13187TIP3   OH239503   5.350   8.801   3.909
13187TIP3    H139504   5.388   8.713   3.887
13187TIP3    H239505   5.380   8.813   3.999
13188TIP3   OH239506   5.050   8.543   4.335
13188TIP3    H139507   4.980   8.578   4.394
13188TIP3    H239508   5.054   8.615   4.269
13189TIP3   OH239509   6.212   8.178   5.228
13189TIP3    H139510   6.250   8.239   5.292
13189TIP3    H239511   6.187   8.101   5.283
13190TIP3   OH239512   6.074   7.936   4.402
13190TIP3    H139513   6.069   7.963   4.309
13190TIP3    H239514   6.119   8.014   4.442
13191TIP3   OH239515   5.757   8.119   4.499
13191TIP3    H139516   5.823   8.189   4.483
13191TIP3    H239517   5.765   8.107   4.596
13192TIP3   OH239518   6.006   8.422   5.305
13192TIP3    H139519   5.985   8.439   5.399
13192TIP3    H239520   6.098   8.391   5.317
13193TIP3   OH239521   5.904   7.834   4.597
13193TIP3    H139522   5.901   7.910   4.658
13193TIP3    H239523   5.966   7.869   4.529
13194TIP3   OH239524   5.421   7.843   4.386
13194TIP3    H139525   5.417   7.932   4.426
13194TIP3    H239526   5.517   7.826   4.395
13195TIP3   OH239527   6.322   8.530   4.675
13195TIP3    H139528   6.247   8.469   4.689
13195TIP3    H239529   6.394   8.486   4.724
13196TIP3   OH239530   5.042   8.758   4.148
13196TIP3    H139531   5.070   8.850   4.134
13196TIP3    H239532   5.097   8.709   4.083
13197TIP3   OH239533   4.978   8.031   4.275
13197TIP3    H139534   4.980   8.128   4.275
13197TIP3    H239535   4.894   8.013   4.232
13198TIP3   OH239536   5.369   7.752   5.146
13198TIP3    H139537   5.338   7.718   5.059
13198TIP3    H239538   5.358   7.674   5.203
13199TIP3   OH239539   5.187   8.887   5.819
13199TIP3    H139540   5.224   8.799   5.794
13199TIP3    H239541   5.107   8.893   5.762
13200TIP3   OH239542   5.170   8.560   4.005
13200TIP3    H139543   5.220   8.526   4.081
13200TIP3    H239544   5.242   8.563   3.938
13201TIP3   OH239545   5.622   8.739   3.810
13201TIP3    H139546   5.652   8.760   3.900
13201TIP3    H239547   5.653   8.647   3.799
13202TIP3   OH239548   5.328   8.653   5.800
13202TIP3    H139549   5.394   8.592   5.765
13202TIP3    H239550   5.310   8.612   5.886
13203TIP3   OH239551   5.368   8.474   4.211
13203TIP3    H139552   5.343   8.436   4.297
13203TIP3    H239553   5.410   8.399   4.165
13204TIP3   OH239554   5.639   8.523   5.434
13204TIP3    H139555   5.570   8.592   5.441
13204TIP3    H239556   5.703   8.567   5.373
13205TIP3   OH239557   5.485   8.271   4.059
13205TIP3    H139558   5.459   8.274   3.964
13205TIP3    H239559   5.582   8.276   4.051
13206TIP3   OH239560   6.293   8.608   3.721
13206TIP3    H139561   6.277   8.559   3.639
13206TIP3    H239562   6.277   8.699   3.689
13207TIP3   OH239563   5.753   8.321   5.572
13207TIP3    H139564   5.764   8.246   5.510
13207TIP3    H239565   5.715   8.390   5.514
13208TIP3   OH239566   5.776   8.114   5.377
13208TIP3    H139567   5.804   8.157   5.293
13208TIP3    H239568   5.682   8.093   5.358
13209TIP3   OH239569   5.791   8.642   5.245
13209TIP3    H139570   5.875   8.650   5.200
13209TIP3    H239571   5.737   8.713   5.204
13210TIP3   OH239572   5.644   8.434   5.799
13210TIP3    H139573   5.572   8.371   5.817
13210TIP3    H239574   5.675   8.402   5.711
13211TIP3   OH239575   5.905   7.877   5.446
13211TIP3    H139576   5.856   7.958   5.423
13211TIP3    H239577   5.836   7.808   5.435
13212TIP3   OH239578   6.029   8.380   5.588
13212TIP3    H139579   6.064   8.399   5.675
13212TIP3    H239580   5.936   8.355   5.607
13213TIP3   OH239581   5.489   8.208   5.847
13213TIP3    H139582   5.492   8.115   5.817
13213TIP3    H239583   5.519   8.200   5.939
13214TIP3   OH239584   5.996   7.876   5.705
13214TIP3    H139585   6.067   7.809   5.694
13214TIP3    H239586   5.958   7.877   5.614
13215TIP3   OH239587   6.030   8.080   5.887
13215TIP3    H139588   6.020   8.013   5.817
13215TIP3    H239589   5.964   8.147   5.864
13216TIP3   OH239590   4.781   8.661   4.197
13216TIP3    H139591   4.860   8.706   4.160
13216TIP3    H239592   4.766   8.590   4.132
13217TIP3   OH239593   6.424   8.772   4.059
13217TIP3    H139594   6.491   8.837   4.027
13217TIP3    H239595   6.472   8.736   4.137
13218TIP3   OH239596   6.558   8.653   4.260
13218TIP3    H139597   6.502   8.608   4.327
13218TIP3    H239598   6.635   8.683   4.312
13219TIP3   OH239599   6.494   8.557   3.903
13219TIP3    H139600   6.423   8.569   3.836
13219TIP3    H239601   6.474   8.633   3.961
13220TIP3   OH239602   6.370   8.231   3.861
13220TIP3    H139603   6.338   8.272   3.780
13220TIP3    H239604   6.351   8.136   3.846
13221TIP3   OH239605   6.376   8.508   4.408
13221TIP3    H139606   6.391   8.412   4.400
13221TIP3    H239607   6.364   8.520   4.505
13222TIP3   OH239608   5.003   8.591   5.153
13222TIP3    H139609   4.999   8.552   5.064
13222TIP3    H239610   5.100   8.589   5.170
13223TIP3   OH239611   6.318   7.965   3.829
13223TIP3    H139612   6.401   7.941   3.876
13223TIP3    H239613   6.254   7.905   3.871
13224TIP3   OH239614   6.374   8.228   4.293
13224TIP3    H139615   6.416   8.141   4.311
13224TIP3    H239616   6.436   8.262   4.226
13225TIP3   OH239617   6.538   8.403   4.794
13225TIP3    H139618   6.622   8.428   4.750
13225TIP3    H239619   6.557   8.441   4.881
13226TIP3   OH239620   5.218   8.258   5.810
13226TIP3    H139621   5.314   8.269   5.829
13226TIP3    H239622   5.201   8.174   5.857
13227TIP3   OH239623   6.479   7.984   4.343
13227TIP3    H139624   6.532   7.964   4.422
13227TIP3    H239625   6.431   7.900   4.332
13228TIP3   OH239626   5.185   7.962   5.158
13228TIP3    H139627   5.247   7.887   5.165
13228TIP3    H239628   5.248   8.036   5.148
13229TIP3   OH239629   4.983   8.234   5.227
13229TIP3    H139630   5.035   8.231   5.143
13229TIP3    H239631   5.019   8.314   5.268
13230TIP3   OH239632   6.561   7.903   3.940
13230TIP3    H139633   6.618   7.826   3.925
13230TIP3    H239634   6.627   7.974   3.953
13231TIP3   OH239635   4.973   7.739   4.730
13231TIP3    H139636   4.880   7.731   4.759
13231TIP3    H239637   4.965   7.797   4.652
13232TIP3   OH239638   5.191   7.813   5.543
13232TIP3    H139639   5.140   7.813   5.625
13232TIP3    H239640   5.127   7.855   5.482
13233TIP3   OH239641   6.812   8.018   5.239
13233TIP3    H139642   6.717   8.003   5.231
13233TIP3    H239643   6.848   7.928   5.231
13234TIP3   OH239644   6.029   7.949   4.881
13234TIP3    H139645   5.992   7.876   4.934
13234TIP3    H239646   6.107   7.907   4.840
13235TIP3   OH239647   6.550   7.829   4.792
13235TIP3    H139648   6.590   7.876   4.715
13235TIP3    H239649   6.456   7.852   4.783
13236TIP3   OH239650   6.646   7.924   4.555
13236TIP3    H139651   6.713   7.868   4.509
13236TIP3    H239652   6.687   8.013   4.541
13237TIP3   OH239653   5.280   7.657   4.899
13237TIP3    H139654   5.187   7.625   4.903
13237TIP3    H239655   5.327   7.572   4.895
13238TIP3   OH239656   5.072   7.535   4.551
13238TIP3    H139657   5.100   7.592   4.478
13238TIP3    H239658   5.045   7.600   4.619
13239TIP3   OH239659   5.728   7.690   4.782
13239TIP3    H139660   5.783   7.737   4.717
13239TIP3    H239661   5.756   7.731   4.865
13240TIP3   OH239662   6.264   7.840   4.764
13240TIP3    H139663   6.275   7.800   4.678
13240TIP3    H239664   6.254   7.761   4.822
13241TIP3   OH239665   6.293   7.767   4.328
13241TIP3    H139666   6.209   7.809   4.355
13241TIP3    H239667   6.285   7.679   4.370
13242TIP3   OH239668   5.190   7.691   4.310
13242TIP3    H139669   5.237   7.626   4.254
13242TIP3    H239670   5.264   7.744   4.345
13243TIP3   OH239671   5.697   7.868   4.410
13243TIP3    H139672   5.757   7.822   4.471
13243TIP3    H239673   5.717   7.961   4.436
13244TIP3   OH239674   5.488   7.931   5.790
13244TIP3    H139675   5.453   7.860   5.848
13244TIP3    H239676   5.581   7.934   5.820
13245TIP3   OH239677   5.734   7.942   5.919
13245TIP3    H139678   5.823   7.927   5.884
13245TIP3    H239679   5.724   7.867   5.982
13246TIP3   OH239680   6.736   8.419   4.212
13246TIP3    H139681   6.704   8.510   4.223
13246TIP3    H239682   6.662   8.380   4.162
13247TIP3   OH239683   6.800   8.703   4.369
13247TIP3    H139684   6.854   8.642   4.422
13247TIP3    H239685   6.862   8.731   4.300
13248TIP3   OH239686   7.291   8.286   4.424
13248TIP3    H139687   7.302   8.362   4.363
13248TIP3    H239688   7.241   8.226   4.367
13249TIP3   OH239689   6.961   8.513   4.500
13249TIP3    H139690   7.056   8.530   4.507
13249TIP3    H239691   6.961   8.450   4.423
13250TIP3   OH239692   6.623   8.932   3.973
13250TIP3    H139693   6.617   8.970   3.884
13250TIP3    H239694   6.687   8.992   4.014
13251TIP3   OH239695   6.965   8.689   3.976
13251TIP3    H139696   7.027   8.769   3.953
13251TIP3    H239697   7.044   8.621   3.981
13252TIP3   OH239698   7.261   8.468   4.214
13252TIP3    H139699   7.166   8.448   4.214
13252TIP3    H239700   7.273   8.509   4.126
13253TIP3   OH239701   7.204   8.077   3.594
13253TIP3    H139702   7.204   8.085   3.692
13253TIP3    H239703   7.135   8.140   3.569
13254TIP3   OH239704   6.774   8.149   4.479
13254TIP3    H139705   6.850   8.189   4.526
13254TIP3    H239706   6.810   8.131   4.390
13255TIP3   OH239707   6.734   8.127   3.983
13255TIP3    H139708   6.785   8.158   3.905
13255TIP3    H239709   6.685   8.208   4.004
13256TIP3   OH239710   6.994   8.358   4.280
13256TIP3    H139711   6.905   8.366   4.241
13256TIP3    H239712   7.028   8.273   4.245
13257TIP3   OH239713   7.043   8.376   3.755
13257TIP3    H139714   7.014   8.353   3.664
13257TIP3    H239715   7.087   8.462   3.746
13258TIP3   OH239716   7.162   8.128   4.232
13258TIP3    H139717   7.131   8.048   4.280
13258TIP3    H239718   7.233   8.093   4.177
13259TIP3   OH239719   6.723   8.554   3.749
13259TIP3    H139720   6.786   8.610   3.797
13259TIP3    H239721   6.644   8.560   3.806
13260TIP3   OH239722   7.191   8.101   3.869
13260TIP3    H139723   7.171   8.190   3.904
13260TIP3    H239724   7.282   8.087   3.902
13261TIP3   OH239725   6.749   8.274   3.747
13261TIP3    H139726   6.783   8.365   3.756
13261TIP3    H239727   6.655   8.288   3.738
13262TIP3   OH239728   7.133   8.010   4.645
13262TIP3    H139729   7.131   7.978   4.553
13262TIP3    H239730   7.148   7.928   4.696
13263TIP3   OH239731   6.545   8.933   3.644
13263TIP3    H139732   6.634   8.966   3.631
13263TIP3    H239733   6.549   8.848   3.595
13264TIP3   OH239734   6.976   8.229   4.657
13264TIP3    H139735   7.030   8.146   4.660
13264TIP3    H239736   7.044   8.291   4.628
13265TIP3   OH239737   6.786   8.503   4.721
13265TIP3    H139738   6.839   8.475   4.644
13265TIP3    H239739   6.816   8.594   4.730
13266TIP3   OH239740   6.772   8.002   4.221
13266TIP3    H139741   6.680   7.983   4.246
13266TIP3    H239742   6.761   8.055   4.139
13267TIP3   OH239743   6.995   8.063   5.044
13267TIP3    H139744   6.931   8.070   5.117
13267TIP3    H239745   6.945   8.107   4.973
13268TIP3   OH239746   7.078   7.912   4.385
13268TIP3    H139747   6.984   7.887   4.382
13268TIP3    H239748   7.122   7.824   4.382
13269TIP3   OH239749   6.891   7.790   4.039
13269TIP3    H139750   6.910   7.855   3.969
13269TIP3    H239751   6.854   7.846   4.109
13270TIP3   OH239752   7.514   7.941   4.298
13270TIP3    H139753   7.578   7.994   4.247
13270TIP3    H239754   7.487   8.001   4.367
13271TIP3   OH239755   6.976   7.944   3.793
13271TIP3    H139756   7.027   7.881   3.739
13271TIP3    H239757   7.047   8.002   3.827
13272TIP3   OH239758   7.461   8.106   3.932
13272TIP3    H139759   7.517   8.055   3.866
13272TIP3    H239760   7.480   8.196   3.898
13273TIP3   OH239761   4.611   1.744   7.957
13273TIP3    H139762   4.623   1.839   7.931
13273TIP3    H239763   4.701   1.709   7.937
13274TIP3   OH239764   4.162   1.979   8.032
13274TIP3    H139765   4.211   1.897   8.010
13274TIP3    H239766   4.128   1.959   8.121
13275TIP3   OH239767   4.374   1.235   8.092
13275TIP3    H139768   4.335   1.209   8.007
13275TIP3    H239769   4.469   1.239   8.067
13276TIP3   OH239770   4.523   1.809   8.211
13276TIP3    H139771   4.530   1.721   8.250
13276TIP3    H239772   4.563   1.794   8.123
13277TIP3   OH239773   4.644   2.017   7.933
13277TIP3    H139774   4.689   2.090   7.887
13277TIP3    H239775   4.562   2.064   7.958
13278TIP3   OH239776   3.812   1.714   7.996
13278TIP3    H139777   3.825   1.631   8.047
13278TIP3    H239778   3.896   1.714   7.946
13279TIP3   OH239779   4.283   1.747   7.932
13279TIP3    H139780   4.368   1.737   7.977
13279TIP3    H239781   4.314   1.752   7.838
13280TIP3   OH239782   4.603   1.260   7.945
13280TIP3    H139783   4.605   1.187   7.881
13280TIP3    H239784   4.574   1.337   7.893
13281TIP3   OH239785   4.819   1.316   8.129
13281TIP3    H139786   4.740   1.280   8.083
13281TIP3    H239787   4.813   1.274   8.217
13282TIP3   OH239788   4.565   2.091   8.255
13282TIP3    H139789   4.562   1.994   8.243
13282TIP3    H239790   4.529   2.122   8.169
13283TIP3   OH239791   6.042   1.614   8.228
13283TIP3    H139792   6.022   1.703   8.193
13283TIP3    H239793   5.984   1.560   8.170
13284TIP3   OH239794   6.267   1.876   8.267
13284TIP3    H139795   6.204   1.837   8.330
13284TIP3    H239796   6.287   1.963   8.309
13285TIP3   OH239797   5.946   2.350   8.263
13285TIP3    H139798   6.008   2.277   8.246
13285TIP3    H239799   5.944   2.358   8.360
13286TIP3   OH239800   5.964   1.825   8.071
13286TIP3    H139801   5.918   1.808   7.987
13286TIP3    H239802   5.919   1.908   8.099
13287TIP3   OH239803   4.938   1.633   8.178
13287TIP3    H139804   4.889   1.630   8.094
13287TIP3    H239805   4.958   1.728   8.188
13288TIP3   OH239806   6.344   2.116   8.370
13288TIP3    H139807   6.272   2.133   8.434
13288TIP3    H239808   6.371   2.208   8.350
13289TIP3   OH239809   6.096   2.178   8.110
13289TIP3    H139810   6.149   2.100   8.082
13289TIP3    H239811   6.152   2.250   8.074
13290TIP3   OH239812   6.233   1.965   8.009
13290TIP3    H139813   6.179   1.897   7.967
13290TIP3    H239814   6.248   1.926   8.098
13291TIP3   OH239815   5.903   1.482   8.033
13291TIP3    H139816   5.818   1.525   8.011
13291TIP3    H239817   5.945   1.473   7.946
13292TIP3   OH239818   5.859   1.240   7.753
13292TIP3    H139819   5.927   1.291   7.800
13292TIP3    H239820   5.914   1.177   7.704
13293TIP3   OH239821   6.228   1.558   8.019
13293TIP3    H139822   6.168   1.593   8.089
13293TIP3    H239823   6.286   1.505   8.078
13294TIP3   OH239824   6.133   2.155   8.549
13294TIP3    H139825   6.199   2.217   8.587
13294TIP3    H239826   6.148   2.076   8.602
13295TIP3   OH239827   6.084   1.405   7.835
13295TIP3    H139828   6.142   1.466   7.884
13295TIP3    H239829   6.112   1.423   7.741
13296TIP3   OH239830   5.837   2.069   8.105
13296TIP3    H139831   5.917   2.118   8.131
13296TIP3    H239832   5.778   2.140   8.077
13297TIP3   OH239833   5.362   1.342   8.185
13297TIP3    H139834   5.283   1.392   8.156
13297TIP3    H239835   5.335   1.311   8.273
13298TIP3   OH239836   6.407   1.997   7.440
13298TIP3    H139837   6.416   2.094   7.425
13298TIP3    H239838   6.499   1.968   7.424
13299TIP3   OH239839   5.716   2.312   7.919
13299TIP3    H139840   5.668   2.304   7.835
13299TIP3    H239841   5.686   2.400   7.952
13300TIP3   OH239842   5.138   2.156   8.269
13300TIP3    H139843   5.150   2.115   8.357
13300TIP3    H239844   5.056   2.113   8.240
13301TIP3   OH239845   5.914   2.217   7.557
13301TIP3    H139846   5.975   2.148   7.522
13301TIP3    H239847   5.950   2.230   7.648
13302TIP3   OH239848   5.967   2.266   7.826
13302TIP3    H139849   5.880   2.275   7.871
13302TIP3    H239850   6.023   2.236   7.899
13303TIP3   OH239851   6.157   1.441   7.579
13303TIP3    H139852   6.129   1.407   7.492
13303TIP3    H239853   6.246   1.474   7.557
13304TIP3   OH239854   5.992   1.248   8.148
13304TIP3    H139855   5.961   1.336   8.115
13304TIP3    H239856   6.057   1.224   8.079
13305TIP3   OH239857   5.553   1.029   8.208
13305TIP3    H139858   5.645   1.027   8.175
13305TIP3    H239859   5.501   1.047   8.127
13306TIP3   OH239860   5.409   1.053   7.973
13306TIP3    H139861   5.347   1.034   7.900
13306TIP3    H239862   5.477   1.102   7.922
13307TIP3   OH239863   5.661   1.602   7.970
13307TIP3    H139864   5.591   1.535   7.958
13307TIP3    H239865   5.636   1.639   8.059
13308TIP3   OH239866   6.109   0.959   7.793
13308TIP3    H139867   6.048   0.908   7.851
13308TIP3    H239868   6.131   1.034   7.853
13309TIP3   OH239869   6.169   1.172   7.954
13309TIP3    H139870   6.261   1.184   7.987
13309TIP3    H239871   6.156   1.254   7.901
13310TIP3   OH239872   5.818   1.754   7.809
13310TIP3    H139873   5.769   1.840   7.813
13310TIP3    H239874   5.761   1.698   7.866
13311TIP3   OH239875   6.342   2.073   7.706
13311TIP3    H139876   6.310   2.005   7.766
13311TIP3    H239877   6.357   2.025   7.622
13312TIP3   OH239878   5.434   1.937   8.264
13312TIP3    H139879   5.500   2.005   8.242
13312TIP3    H239880   5.355   1.980   8.229
13313TIP3   OH239881   5.036   1.240   7.984
13313TIP3    H139882   5.095   1.312   8.011
13313TIP3    H239883   4.958   1.262   8.039
13314TIP3   OH239884   5.591   1.713   8.203
13314TIP3    H139885   5.545   1.793   8.235
13314TIP3    H239886   5.637   1.684   8.286
13315TIP3   OH239887   5.377   2.187   8.128
13315TIP3    H139888   5.290   2.196   8.171
13315TIP3    H239889   5.413   2.278   8.139
13316TIP3   OH239890   6.093   1.807   7.600
13316TIP3    H139891   6.150   1.782   7.677
13316TIP3    H239892   6.007   1.775   7.631
13317TIP3   OH239893   6.437   2.275   7.422
13317TIP3    H139894   6.479   2.352   7.380
13317TIP3    H239895   6.356   2.318   7.456
13318TIP3   OH239896   6.243   1.738   7.813
13318TIP3    H139897   6.236   1.677   7.889
13318TIP3    H239898   6.340   1.733   7.797
13319TIP3   OH239899   5.459   1.779   7.605
13319TIP3    H139900   5.477   1.685   7.584
13319TIP3    H239901   5.440   1.773   7.701
13320TIP3   OH239902   5.402   1.786   7.877
13320TIP3    H139903   5.474   1.754   7.934
13320TIP3    H239904   5.409   1.884   7.888
13321TIP3   OH239905   5.145   1.481   8.085
13321TIP3    H139906   5.068   1.518   8.133
13321TIP3    H239907   5.159   1.550   8.019
13322TIP3   OH239908   5.673   1.981   7.817
13322TIP3    H139909   5.587   2.003   7.857
13322TIP3    H239910   5.697   2.067   7.779
13323TIP3   OH239911   5.834   1.029   8.159
13323TIP3    H139912   5.879   1.116   8.146
13323TIP3    H239913   5.861   1.010   8.250
13324TIP3   OH239914   5.421   2.058   7.893
13324TIP3    H139915   5.392   2.128   7.830
13324TIP3    H239916   5.408   2.105   7.979
13325TIP3   OH239917   5.136   1.683   7.880
13325TIP3    H139918   5.210   1.745   7.893
13325TIP3    H239919   5.179   1.621   7.818
13326TIP3   OH239920   5.050   0.942   7.940
13326TIP3    H139921   5.057   1.034   7.971
13326TIP3    H239922   5.028   0.896   8.023
13327TIP3   OH239923   6.422   2.376   8.317
13327TIP3    H139924   6.359   2.432   8.267
13327TIP3    H239925   6.490   2.443   8.335
13328TIP3   OH239926   4.993   1.885   8.249
13328TIP3    H139927   4.966   1.932   8.331
13328TIP3    H239928   4.956   1.943   8.179
13329TIP3   OH239929   5.621   1.980   7.508
13329TIP3    H139930   5.566   1.912   7.554
13329TIP3    H239931   5.702   1.929   7.494
13330TIP3   OH239932   6.059   2.020   7.428
13330TIP3    H139933   6.094   1.953   7.491
13330TIP3    H239934   6.124   2.016   7.355
13331TIP3   OH239935   5.276   1.496   7.743
13331TIP3    H139936   5.332   1.464   7.817
13331TIP3    H239937   5.344   1.502   7.673
13332TIP3   OH239938   5.783   1.701   7.542
13332TIP3    H139939   5.788   1.714   7.640
13332TIP3    H239940   5.788   1.603   7.537
13333TIP3   OH239941   5.466   1.412   7.940
13333TIP3    H139942   5.440   1.383   8.031
13333TIP3    H239943   5.508   1.330   7.906
13334TIP3   OH239944   5.581   1.197   7.807
13334TIP3    H139945   5.556   1.201   7.713
13334TIP3    H239946   5.679   1.199   7.800
13335TIP3   OH239947   6.387   1.525   7.458
13335TIP3    H139948   6.368   1.483   7.372
13335TIP3    H239949   6.356   1.617   7.438
13336TIP3   OH239950   5.390   2.257   7.703
13336TIP3    H139951   5.486   2.249   7.687
13336TIP3    H239952   5.366   2.315   7.628
13337TIP3   OH239953   4.863   1.646   7.903
13337TIP3    H139954   4.959   1.666   7.896
13337TIP3    H239955   4.860   1.555   7.867
13338TIP3   OH239956   4.797   2.240   8.321
13338TIP3    H139957   4.714   2.202   8.286
13338TIP3    H239958   4.826   2.170   8.381
13339TIP3   OH239959   6.639   2.554   8.309
13339TIP3    H139960   6.650   2.623   8.380
13339TIP3    H239961   6.627   2.616   8.233
13340TIP3   OH239962   6.511   1.713   7.784
13340TIP3    H139963   6.571   1.784   7.751
13340TIP3    H239964   6.572   1.661   7.839
13341TIP3   OH239965   6.586   1.501   7.633
13341TIP3    H139966   6.516   1.489   7.565
13341TIP3    H239967   6.547   1.577   7.680
13342TIP3   OH239968   6.389   1.160   7.593
13342TIP3    H139969   6.448   1.224   7.552
13342TIP3    H239970   6.428   1.075   7.567
13343TIP3   OH239971   6.226   2.372   7.975
13343TIP3    H139972   6.286   2.369   7.898
13343TIP3    H239973   6.268   2.440   8.032
13344TIP3   OH239974   5.886   2.467   8.506
13344TIP3    H139975   5.795   2.485   8.476
13344TIP3    H239976   5.886   2.513   8.590
13345TIP3   OH239977   6.105   2.459   8.673
13345TIP3    H139978   6.063   2.455   8.584
13345TIP3    H239979   6.192   2.495   8.644
13346TIP3   OH239980   6.267   2.610   8.506
13346TIP3    H139981   6.281   2.706   8.494
13346TIP3    H239982   6.358   2.579   8.521
13347TIP3   OH239983   4.886   2.051   8.069
13347TIP3    H139984   4.802   2.015   8.034
13347TIP3    H239985   4.878   2.143   8.037
13348TIP3   OH239986   5.656   2.215   7.651
13348TIP3    H139987   5.745   2.237   7.617
13348TIP3    H239988   5.635   2.138   7.594
13349TIP3   OH239989   6.379   2.340   7.745
13349TIP3    H139990   6.370   2.243   7.736
13349TIP3    H239991   6.331   2.370   7.665
13350TIP3   OH239992   4.959   2.052   7.707
13350TIP3    H139993   4.967   2.077   7.800
13350TIP3    H239994   5.046   2.010   7.689
13351TIP3   OH239995   6.708   1.885   7.733
13351TIP3    H139996   6.717   1.889   7.636
13351TIP3    H239997   6.739   1.976   7.757
13352TIP3   OH239998   7.495   2.594   7.393
13352TIP3    H139999   7.456   2.556   7.312
13352TIP3    H240000   7.442   2.674   7.408
13353TIP3   OH240001   6.891   2.428   7.753
13353TIP3    H140002   6.975   2.415   7.801
13353TIP3    H240003   6.840   2.355   7.789
13354TIP3   OH240004   7.695   2.460   7.017
13354TIP3    H140005   7.729   2.375   6.984
13354TIP3    H240006   7.762   2.479   7.086
13355TIP3   OH240007   6.798   1.487   7.468
13355TIP3    H140008   6.834   1.578   7.482
13355TIP3    H240009   6.727   1.489   7.537
13356TIP3   OH240010   7.191   2.437   7.609
13356TIP3    H140011   7.125   2.409   7.674
13356TIP3    H240012   7.191   2.535   7.620
13357TIP3   OH240013   7.263   2.033   7.069
13357TIP3    H140014   7.274   1.938   7.048
13357TIP3    H240015   7.241   2.028   7.164
13358TIP3   OH240016   7.193   2.053   7.332
13358TIP3    H140017   7.220   2.021   7.420
13358TIP3    H240018   7.204   2.150   7.345
13359TIP3   OH240019   6.872   1.747   7.534
13359TIP3    H140020   6.891   1.764   7.627
13359TIP3    H240021   6.935   1.805   7.488
13360TIP3   OH240022   7.470   2.233   7.303
13360TIP3    H140023   7.385   2.263   7.340
13360TIP3    H240024   7.490   2.307   7.244
13361TIP3   OH240025   7.219   2.320   7.367
13361TIP3    H140026   7.182   2.393   7.312
13361TIP3    H240027   7.207   2.358   7.457
13362TIP3   OH240028   6.929   1.965   7.346
13362TIP3    H140029   7.002   2.030   7.355
13362TIP3    H240030   6.973   1.903   7.284
13363TIP3   OH240031   6.865   1.214   7.439
13363TIP3    H140032   6.849   1.305   7.470
13363TIP3    H240033   6.873   1.164   7.522
13364TIP3   OH240034   6.779   2.140   7.772
13364TIP3    H140035   6.700   2.196   7.766
13364TIP3    H240036   6.824   2.170   7.692
13365TIP3   OH240037   7.413   2.247   6.995
13365TIP3    H140038   7.361   2.171   7.030
13365TIP3    H240039   7.488   2.199   6.954
13366TIP3   OH240040   7.831   2.239   6.897
13366TIP3    H140041   7.908   2.262   6.954
13366TIP3    H240042   7.875   2.245   6.809
13367TIP3   OH240043   7.070   1.762   7.217
13367TIP3    H140044   7.114   1.729   7.296
13367TIP3    H240045   7.146   1.768   7.156
13368TIP3   OH240046   7.560   1.954   7.040
13368TIP3    H140047   7.554   1.982   7.132
13368TIP3    H240048   7.541   1.860   7.045
13369TIP3   OH240049   7.177   2.530   7.194
13369TIP3    H140050   7.271   2.515   7.176
13369TIP3    H240051   7.152   2.579   7.113
13370TIP3   OH240052   6.662   1.909   7.393
13370TIP3    H140053   6.757   1.932   7.388
13370TIP3    H240054   6.664   1.816   7.363
13371TIP3   OH240055   6.574   2.520   7.821
13371TIP3    H140056   6.511   2.455   7.783
13371TIP3    H240057   6.626   2.461   7.879
13372TIP3   OH240058   6.714   2.365   7.997
13372TIP3    H140059   6.705   2.297   8.065
13372TIP3    H240060   6.774   2.427   8.041
13373TIP3   OH240061   6.674   2.292   7.565
13373TIP3    H140062   6.589   2.265   7.526
13373TIP3    H240063   6.674   2.386   7.545
13374TIP3   OH240064   7.442   2.477   7.138
13374TIP3    H140065   7.530   2.497   7.100
13374TIP3    H240066   7.417   2.402   7.079
13375TIP3   OH240067   6.754   2.312   7.195
13375TIP3    H140068   6.758   2.325   7.290
13375TIP3    H240069   6.841   2.268   7.177
13376TIP3   OH240070   2.450   3.282   8.016
13376TIP3    H140071   2.441   3.377   8.030
13376TIP3    H240072   2.547   3.267   8.023
13377TIP3   OH240073   2.467   3.593   8.060
13377TIP3    H140074   2.465   3.657   7.983
13377TIP3    H240075   2.375   3.600   8.090
13378TIP3   OH240076   3.926   3.160   8.371
13378TIP3    H140077   3.890   3.250   8.351
13378TIP3    H240078   3.859   3.108   8.322
13379TIP3   OH240079   4.144   3.495   8.381
13379TIP3    H140080   4.152   3.407   8.422
13379TIP3    H240081   4.181   3.549   8.454
13380TIP3   OH240082   3.783   3.913   8.432
13380TIP3    H140083   3.829   3.853   8.370
13380TIP3    H240084   3.828   3.889   8.515
13381TIP3   OH240085   3.783   3.364   8.241
13381TIP3    H140086   3.767   3.359   8.145
13381TIP3    H240087   3.766   3.458   8.257
13382TIP3   OH240088   3.921   3.761   8.254
13382TIP3    H140089   3.967   3.676   8.236
13382TIP3    H240090   3.988   3.823   8.217
13383TIP3   OH240091   4.035   3.538   8.141
13383TIP3    H140092   4.050   3.455   8.094
13383TIP3    H240093   4.080   3.520   8.228
13384TIP3   OH240094   3.758   3.022   8.203
13384TIP3    H140095   3.675   3.067   8.178
13384TIP3    H240096   3.796   3.002   8.115
13385TIP3   OH240097   3.704   2.795   7.902
13385TIP3    H140098   3.772   2.848   7.948
13385TIP3    H240099   3.761   2.732   7.854
13386TIP3   OH240100   4.077   3.100   8.145
13386TIP3    H140101   4.037   3.118   8.232
13386TIP3    H240102   4.165   3.064   8.171
13387TIP3   OH240103   3.923   2.944   7.986
13387TIP3    H140104   3.981   3.008   8.034
13387TIP3    H240105   3.951   2.962   7.893
13388TIP3   OH240106   3.683   3.634   8.258
13388TIP3    H140107   3.763   3.689   8.248
13388TIP3    H240108   3.616   3.689   8.215
13389TIP3   OH240109   4.448   2.185   8.023
13389TIP3    H140110   4.361   2.201   8.064
13389TIP3    H240111   4.463   2.270   7.976
13390TIP3   OH240112   4.249   3.555   7.589
13390TIP3    H140113   4.258   3.652   7.575
13390TIP3    H240114   4.342   3.526   7.576
13391TIP3   OH240115   3.558   3.869   8.072
13391TIP3    H140116   3.514   3.854   7.986
13391TIP3    H240117   3.532   3.961   8.093
13392TIP3   OH240118   3.751   3.773   7.708
13392TIP3    H140119   3.812   3.704   7.672
13392TIP3    H240120   3.790   3.788   7.796
13393TIP3   OH240121   3.809   3.825   7.974
13393TIP3    H140122   3.723   3.832   8.021
13393TIP3    H240123   3.865   3.784   8.041
13394TIP3   OH240124   4.007   2.990   7.735
13394TIP3    H140125   3.972   2.969   7.646
13394TIP3    H240126   4.093   3.030   7.712
13395TIP3   OH240127   3.730   2.371   8.037
13395TIP3    H140128   3.675   2.392   8.114
13395TIP3    H240129   3.684   2.291   8.003
13396TIP3   OH240130   3.915   2.841   8.350
13396TIP3    H140131   3.848   2.896   8.303
13396TIP3    H240132   3.945   2.784   8.277
13397TIP3   OH240133   3.407   2.388   8.009
13397TIP3    H140134   3.381   2.316   8.069
13397TIP3    H240135   3.322   2.412   7.971
13398TIP3   OH240136   3.238   2.621   8.112
13398TIP3    H140137   3.189   2.612   8.027
13398TIP3    H240138   3.324   2.651   8.075
13399TIP3   OH240139   3.514   3.156   8.138
13399TIP3    H140140   3.448   3.098   8.093
13399TIP3    H240141   3.464   3.186   8.215
13400TIP3   OH240142   3.971   2.482   7.996
13400TIP3    H140143   3.877   2.454   8.010
13400TIP3    H240144   3.972   2.572   8.033
13401TIP3   OH240145   4.040   2.725   8.129
13401TIP3    H140146   4.138   2.718   8.125
13401TIP3    H240147   4.022   2.799   8.068
13402TIP3   OH240148   3.666   3.311   7.966
13402TIP3    H140149   3.617   3.397   7.969
13402TIP3    H240150   3.611   3.256   8.027
13403TIP3   OH240151   4.471   2.804   7.942
13403TIP3    H140152   4.410   2.772   7.872
13403TIP3    H240153   4.482   2.897   7.913
13404TIP3   OH240154   4.181   3.631   7.852
13404TIP3    H140155   4.154   3.561   7.912
13404TIP3    H240156   4.198   3.584   7.768
13405TIP3   OH240157   3.197   3.751   8.241
13405TIP3    H140158   3.166   3.745   8.333
13405TIP3    H240159   3.248   3.834   8.245
13406TIP3   OH240160   3.942   3.363   7.754
13406TIP3    H140161   3.996   3.343   7.834
13406TIP3    H240162   3.855   3.331   7.783
13407TIP3   OH240163   4.278   3.831   7.573
13407TIP3    H140164   4.318   3.906   7.526
13407TIP3    H240165   4.197   3.876   7.607
13408TIP3   OH240166   4.104   3.312   7.973
13408TIP3    H140167   4.088   3.235   8.032
13408TIP3    H240168   4.200   3.299   7.955
13409TIP3   OH240169   3.304   3.336   7.756
13409TIP3    H140170   3.316   3.243   7.728
13409TIP3    H240171   3.282   3.324   7.850
13410TIP3   OH240172   3.244   3.344   8.027
13410TIP3    H140173   3.302   3.327   8.103
13410TIP3    H240174   3.247   3.442   8.023
13411TIP3   OH240175   4.061   2.440   8.255
13411TIP3    H140176   4.030   2.445   8.162
13411TIP3    H240177   3.993   2.497   8.297
13412TIP3   OH240178   3.521   3.539   7.975
13412TIP3    H140179   3.430   3.560   8.003
13412TIP3    H240180   3.537   3.614   7.915
13413TIP3   OH240181   3.258   3.612   8.018
13413TIP3    H140182   3.228   3.683   7.958
13413TIP3    H240183   3.234   3.652   8.105
13414TIP3   OH240184   2.982   3.257   8.037
13414TIP3    H140185   3.066   3.306   8.043
13414TIP3    H240186   3.013   3.183   7.980
13415TIP3   OH240187   4.224   4.004   8.538
13415TIP3    H140188   4.192   4.048   8.456
13415TIP3    H240189   4.321   4.005   8.520
13416TIP3   OH240190   3.465   3.540   7.665
13416TIP3    H140191   3.411   3.466   7.702
13416TIP3    H240192   3.542   3.490   7.632
13417TIP3   OH240193   3.902   3.578   7.580
13417TIP3    H140194   3.940   3.513   7.642
13417TIP3    H240195   3.964   3.574   7.504
13418TIP3   OH240196   3.114   3.064   7.889
13418TIP3    H140197   3.178   3.036   7.959
13418TIP3    H240198   3.178   3.069   7.814
13419TIP3   OH240199   3.632   3.259   7.697
13419TIP3    H140200   3.634   3.270   7.794
13419TIP3    H240201   3.632   3.161   7.690
13420TIP3   OH240202   3.323   2.981   8.050
13420TIP3    H140203   3.298   2.956   8.141
13420TIP3    H240204   3.360   2.897   8.014
13421TIP3   OH240205   3.431   2.746   7.946
13421TIP3    H140206   3.407   2.753   7.851
13421TIP3    H240207   3.529   2.748   7.940
13422TIP3   OH240208   4.237   3.085   7.619
13422TIP3    H140209   4.220   3.042   7.533
13422TIP3    H240210   4.206   3.176   7.597
13423TIP3   OH240211   3.214   3.830   7.850
13423TIP3    H140212   3.311   3.814   7.849
13423TIP3    H240213   3.209   3.879   7.765
13424TIP3   OH240214   2.713   3.215   8.042
13424TIP3    H140215   2.810   3.225   8.044
13424TIP3    H240216   2.704   3.119   8.028
13425TIP3   OH240217   4.499   4.066   8.496
13425TIP3    H140218   4.529   4.134   8.558
13425TIP3    H240219   4.554   4.085   8.417
13426TIP3   OH240220   4.377   3.279   7.941
13426TIP3    H140221   4.444   3.343   7.908
13426TIP3    H240222   4.427   3.242   8.018
13427TIP3   OH240223   4.516   3.150   8.136
13427TIP3    H140224   4.450   3.102   8.189
13427TIP3    H240225   4.583   3.178   8.203
13428TIP3   OH240226   4.545   3.522   8.567
13428TIP3    H140227   4.623   3.464   8.547
13428TIP3    H240228   4.565   3.597   8.508
13429TIP3   OH240229   4.444   3.049   7.797
13429TIP3    H140230   4.371   3.051   7.731
13429TIP3    H240231   4.418   3.125   7.853
13430TIP3   OH240232   4.308   2.722   7.743
13430TIP3    H140233   4.264   2.754   7.664
13430TIP3    H240234   4.289   2.625   7.738
13431TIP3   OH240235   4.307   2.981   8.225
13431TIP3    H140236   4.319   2.887   8.199
13431TIP3    H240237   4.329   2.978   8.321
13432TIP3   OH240238   4.258   2.454   7.725
13432TIP3    H140239   4.332   2.424   7.783
13432TIP3    H240240   4.184   2.397   7.750
13433TIP3   OH240241   4.322   2.712   8.157
13433TIP3    H140242   4.360   2.627   8.188
13433TIP3    H240243   4.386   2.733   8.085
13434TIP3   OH240244   4.422   2.453   8.214
13434TIP3    H140245   4.453   2.431   8.303
13434TIP3    H240246   4.356   2.382   8.196
13435TIP3   OH240247   4.499   2.399   7.857
13435TIP3    H140248   4.546   2.331   7.805
13435TIP3    H240249   4.565   2.471   7.861
13436TIP3   OH240250   4.076   3.938   8.126
13436TIP3    H140251   4.127   3.925   8.043
13436TIP3    H240252   4.129   4.007   8.170
13437TIP3   OH240253   4.233   2.243   8.182
13437TIP3    H140254   4.156   2.303   8.198
13437TIP3    H240255   4.195   2.157   8.203
13438TIP3   OH240256   2.749   3.652   8.172
13438TIP3    H140257   2.660   3.615   8.163
13438TIP3    H240258   2.734   3.709   8.251
13439TIP3   OH240259   3.491   3.774   7.807
13439TIP3    H140260   3.579   3.798   7.771
13439TIP3    H240261   3.471   3.699   7.746
13440TIP3   OH240262   4.218   3.898   7.895
13440TIP3    H140263   4.209   3.800   7.883
13440TIP3    H240264   4.173   3.930   7.814
13441TIP3   OH240265   2.860   3.677   7.921
13441TIP3    H140266   2.819   3.645   8.005
13441TIP3    H240267   2.906   3.596   7.888
13442TIP3   OH240268   5.713   3.421   7.839
13442TIP3    H140269   5.678   3.510   7.815
13442TIP3    H240270   5.634   3.366   7.825
13443TIP3   OH240271   5.029   3.355   8.586
13443TIP3    H140272   5.041   3.281   8.648
13443TIP3    H240273   5.111   3.346   8.531
13444TIP3   OH240274   5.954   3.713   7.920
13444TIP3    H140275   5.941   3.641   7.984
13444TIP3    H240276   5.986   3.785   7.977
13445TIP3   OH240277   4.975   3.722   8.323
13445TIP3    H140278   4.965   3.625   8.312
13445TIP3    H240279   5.073   3.729   8.317
13446TIP3   OH240280   4.700   2.935   8.075
13446TIP3    H140281   4.644   3.013   8.090
13446TIP3    H240282   4.645   2.862   8.110
13447TIP3   OH240283   4.743   3.205   8.279
13447TIP3    H140284   4.789   3.128   8.319
13447TIP3    H240285   4.813   3.241   8.222
13448TIP3   OH240286   5.609   4.178   7.933
13448TIP3    H140287   5.649   4.107   7.877
13448TIP3    H240288   5.596   4.132   8.016
13449TIP3   OH240289   5.503   3.646   8.280
13449TIP3    H140290   5.532   3.566   8.234
13449TIP3    H240291   5.592   3.683   8.303
13450TIP3   OH240292   6.516   2.983   8.263
13450TIP3    H140293   6.545   3.066   8.306
13450TIP3    H240294   6.534   3.004   8.170
13451TIP3   OH240295   5.261   2.790   8.279
13451TIP3    H140296   5.245   2.871   8.226
13451TIP3    H240297   5.209   2.725   8.226
13452TIP3   OH240298   5.959   2.878   7.894
13452TIP3    H140299   6.026   2.866   7.966
13452TIP3    H240300   6.013   2.924   7.828
13453TIP3   OH240301   4.890   3.004   8.378
13453TIP3    H140302   4.946   2.963   8.447
13453TIP3    H240303   4.917   2.950   8.302
13454TIP3   OH240304   5.330   3.199   8.186
13454TIP3    H140305   5.425   3.172   8.193
13454TIP3    H240306   5.290   3.115   8.157
13455TIP3   OH240307   6.583   3.180   8.447
13455TIP3    H140308   6.500   3.228   8.426
13455TIP3    H240309   6.555   3.138   8.530
13456TIP3   OH240310   5.596   3.638   7.713
13456TIP3    H140311   5.553   3.622   7.627
13456TIP3    H240312   5.549   3.719   7.742
13457TIP3   OH240313   5.368   3.572   8.505
13457TIP3    H140314   5.303   3.640   8.533
13457TIP3    H240315   5.413   3.615   8.430
13458TIP3   OH240316   6.152   2.894   8.086
13458TIP3    H140317   6.115   2.873   8.174
13458TIP3    H240318   6.204   2.974   8.107
13459TIP3   OH240319   5.105   2.875   8.495
13459TIP3    H140320   5.163   2.954   8.503
13459TIP3    H240321   5.151   2.828   8.424
13460TIP3   OH240322   5.181   3.753   8.605
13460TIP3    H140323   5.150   3.840   8.572
13460TIP3    H240324   5.120   3.739   8.680
13461TIP3   OH240325   4.578   3.447   7.836
13461TIP3    H140326   4.542   3.478   7.750
13461TIP3    H240327   4.613   3.531   7.873
13462TIP3   OH240328   6.021   3.965   8.079
13462TIP3    H140329   5.931   3.952   8.118
13462TIP3    H240330   6.009   4.050   8.033
13463TIP3   OH240331   6.313   2.887   8.441
13463TIP3    H140332   6.222   2.885   8.406
13463TIP3    H240333   6.364   2.918   8.363
13464TIP3   OH240334   5.612   2.489   8.401
13464TIP3    H140335   5.622   2.397   8.433
13464TIP3    H240336   5.603   2.535   8.487
13465TIP3   OH240337   5.718   4.005   7.745
13465TIP3    H140338   5.770   3.922   7.731
13465TIP3    H240339   5.782   4.070   7.707
13466TIP3   OH240340   5.866   3.789   7.669
13466TIP3    H140341   5.822   3.709   7.637
13466TIP3    H240342   5.906   3.756   7.753
13467TIP3   OH240343   6.240   3.872   8.418
13467TIP3    H140344   6.231   3.790   8.364
13467TIP3    H240345   6.227   3.942   8.350
13468TIP3   OH240346   5.536   3.262   7.679
13468TIP3    H140347   5.458   3.318   7.658
13468TIP3    H240348   5.587   3.265   7.596
13469TIP3   OH240349   5.496   3.056   7.389
13469TIP3    H140350   5.561   3.104   7.444
13469TIP3    H240351   5.555   2.992   7.344
13470TIP3   OH240352   6.446   3.519   8.267
13470TIP3    H140353   6.360   3.566   8.276
13470TIP3    H240354   6.468   3.539   8.174
13471TIP3   OH240355   5.891   3.347   7.648
13471TIP3    H140356   5.836   3.372   7.726
13471TIP3    H240357   5.974   3.322   7.694
13472TIP3   OH240358   6.121   3.370   8.563
13472TIP3    H140359   6.107   3.451   8.613
13472TIP3    H240360   6.039   3.371   8.508
13473TIP3   OH240361   5.127   3.342   8.064
13473TIP3    H140362   5.088   3.282   7.998
13473TIP3    H240363   5.201   3.288   8.100
13474TIP3   OH240364   5.248   3.760   8.216
13474TIP3    H140365   5.229   3.723   8.128
13474TIP3    H240366   5.337   3.724   8.234
13475TIP3   OH240367   5.241   3.346   8.409
13475TIP3    H140368   5.281   3.309   8.327
13475TIP3    H240369   5.299   3.423   8.429
13476TIP3   OH240370   5.779   3.955   8.202
13476TIP3    H140371   5.771   4.026   8.268
13476TIP3    H240372   5.770   3.874   8.256
13477TIP3   OH240373   5.392   3.905   8.697
13477TIP3    H140374   5.352   3.934   8.780
13477TIP3    H240375   5.327   3.839   8.666
13478TIP3   OH240376   5.726   3.208   7.478
13478TIP3    H140377   5.787   3.267   7.529
13478TIP3    H240378   5.753   3.229   7.385
13479TIP3   OH240379   5.473   3.884   7.751
13479TIP3    H140380   5.557   3.933   7.758
13479TIP3    H240381   5.413   3.948   7.710
13480TIP3   OH240382   6.241   2.444   7.527
13480TIP3    H140383   6.161   2.466   7.579
13480TIP3    H240384   6.257   2.528   7.479
13481TIP3   OH240385   4.992   3.187   7.864
13481TIP3    H140386   4.916   3.226   7.816
13481TIP3    H240387   4.956   3.102   7.894
13482TIP3   OH240388   6.044   3.811   7.077
13482TIP3    H140389   6.053   3.907   7.061
13482TIP3    H240390   6.137   3.782   7.064
13483TIP3   OH240391   4.628   3.769   8.401
13483TIP3    H140392   4.722   3.750   8.387
13483TIP3    H240393   4.632   3.847   8.459
13484TIP3   OH240394   6.488   4.224   8.467
13484TIP3    H140395   6.489   4.127   8.480
13484TIP3    H240396   6.401   4.244   8.509
13485TIP3   OH240397   5.604   4.012   8.582
13485TIP3    H140398   5.604   4.100   8.624
13485TIP3    H240399   5.524   3.971   8.623
13486TIP3   OH240400   5.357   4.129   7.557
13486TIP3    H140401   5.308   4.112   7.475
13486TIP3    H240402   5.322   4.215   7.586
13487TIP3   OH240403   4.791   3.975   7.942
13487TIP3    H140404   4.839   3.967   8.027
13487TIP3    H240405   4.743   3.890   7.938
13488TIP3   OH240406   5.554   4.033   7.193
13488TIP3    H140407   5.612   3.962   7.158
13488TIP3    H240408   5.589   4.043   7.284
13489TIP3   OH240409   5.607   4.081   7.463
13489TIP3    H140410   5.519   4.091   7.504
13489TIP3    H240411   5.658   4.041   7.535
13490TIP3   OH240412   6.387   3.351   8.705
13490TIP3    H140413   6.292   3.369   8.693
13490TIP3    H240414   6.388   3.255   8.713
13491TIP3   OH240415   6.154   3.134   8.702
13491TIP3    H140416   6.104   3.153   8.783
13491TIP3    H240417   6.127   3.207   8.643
13492TIP3   OH240418   5.801   3.244   7.220
13492TIP3    H140419   5.769   3.224   7.130
13492TIP3    H240420   5.886   3.288   7.200
13493TIP3   OH240421   5.515   2.626   7.527
13493TIP3    H140422   5.484   2.624   7.620
13493TIP3    H240423   5.475   2.542   7.495
13494TIP3   OH240424   5.256   3.095   8.526
13494TIP3    H140425   5.342   3.076   8.571
13494TIP3    H240426   5.276   3.180   8.481
13495TIP3   OH240427   5.190   2.980   8.092
13495TIP3    H140428   5.098   2.952   8.114
13495TIP3    H240429   5.200   2.936   8.005
13496TIP3   OH240430   5.672   3.060   7.811
13496TIP3    H140431   5.622   3.133   7.768
13496TIP3    H240432   5.730   3.029   7.739
13497TIP3   OH240433   5.838   3.100   8.036
13497TIP3    H140434   5.766   3.113   7.973
13497TIP3    H240435   5.869   3.012   8.010
13498TIP3   OH240436   5.169   2.599   7.490
13498TIP3    H140437   5.163   2.600   7.588
13498TIP3    H240438   5.094   2.656   7.468
13499TIP3   OH240439   4.670   2.696   8.245
13499TIP3    H140440   4.720   2.701   8.331
13499TIP3    H240441   4.719   2.618   8.205
13500TIP3   OH240442   4.679   2.623   7.879
13500TIP3    H140443   4.726   2.663   7.803
13500TIP3    H240444   4.623   2.699   7.906
13501TIP3   OH240445   5.512   2.792   8.138
13501TIP3    H140446   5.436   2.790   8.199
13501TIP3    H240447   5.582   2.827   8.196
13502TIP3   OH240448   4.953   2.862   8.153
13502TIP3    H140449   4.862   2.872   8.118
13502TIP3    H240450   4.976   2.769   8.132
13503TIP3   OH240451   5.210   2.849   7.849
13503TIP3    H140452   5.305   2.867   7.833
13503TIP3    H240453   5.167   2.874   7.764
13504TIP3   OH240454   6.041   2.863   8.336
13504TIP3    H140455   6.013   2.894   8.425
13504TIP3    H240456   5.959   2.821   8.306
13505TIP3   OH240457   5.064   2.888   7.619
13505TIP3    H140458   4.993   2.845   7.569
13505TIP3    H240459   5.117   2.927   7.546
13506TIP3   OH240460   6.187   4.561   8.557
13506TIP3    H140461   6.190   4.581   8.461
13506TIP3    H240462   6.226   4.641   8.594
13507TIP3   OH240463   5.584   3.110   8.230
13507TIP3    H140464   5.677   3.131   8.211
13507TIP3    H240465   5.585   3.102   8.328
13508TIP3   OH240466   5.111   2.625   8.116
13508TIP3    H140467   5.070   2.548   8.160
13508TIP3    H240468   5.171   2.581   8.054
13509TIP3   OH240469   5.561   3.071   8.507
13509TIP3    H140470   5.519   3.003   8.563
13509TIP3    H240471   5.640   3.091   8.560
13510TIP3   OH240472   5.307   3.418   7.625
13510TIP3    H140473   5.235   3.352   7.615
13510TIP3    H240474   5.288   3.452   7.717
13511TIP3   OH240475   6.211   3.656   8.254
13511TIP3    H140476   6.232   3.706   8.173
13511TIP3    H240477   6.128   3.609   8.227
13512TIP3   OH240478   5.762   2.734   7.479
13512TIP3    H140479   5.668   2.712   7.501
13512TIP3    H240480   5.774   2.823   7.518
13513TIP3   OH240481   5.732   3.752   8.617
13513TIP3    H140482   5.720   3.678   8.678
13513TIP3    H240483   5.665   3.817   8.642
13514TIP3   OH240484   5.836   2.975   7.595
13514TIP3    H140485   5.932   2.981   7.616
13514TIP3    H240486   5.820   3.059   7.548
13515TIP3   OH240487   4.994   3.451   8.281
13515TIP3    H140488   5.038   3.416   8.200
13515TIP3    H240489   5.043   3.405   8.351
13516TIP3   OH240490   5.453   3.566   7.450
13516TIP3    H140491   5.405   3.652   7.454
13516TIP3    H240492   5.399   3.511   7.511
13517TIP3   OH240493   5.868   4.025   8.506
13517TIP3    H140494   5.778   3.989   8.519
13517TIP3    H240495   5.884   4.064   8.593
13518TIP3   OH240496   6.275   3.071   7.431
13518TIP3    H140497   6.213   3.028   7.368
13518TIP3    H240498   6.272   3.161   7.393
13519TIP3   OH240499   6.486   3.946   8.503
13519TIP3    H140500   6.391   3.923   8.490
13519TIP3    H240501   6.524   3.905   8.422
13520TIP3   OH240502   5.980   3.888   7.342
13520TIP3    H140503   5.953   3.819   7.405
13520TIP3    H240504   5.993   3.839   7.259
13521TIP3   OH240505   5.993   3.519   8.162
13521TIP3    H140506   5.945   3.482   8.240
13521TIP3    H240507   6.010   3.437   8.112
13522TIP3   OH240508   5.105   3.747   7.933
13522TIP3    H140509   5.101   3.827   7.877
13522TIP3    H240510   5.012   3.726   7.944
13523TIP3   OH240511   4.667   3.047   7.636
13523TIP3    H140512   4.714   3.130   7.660
13523TIP3    H240513   4.592   3.050   7.700
13524TIP3   OH240514   5.235   3.509   7.868
13524TIP3    H140515   5.201   3.598   7.892
13524TIP3    H240516   5.204   3.456   7.944
13525TIP3   OH240517   5.372   4.089   8.395
13525TIP3    H140518   5.414   4.161   8.344
13525TIP3    H240519   5.450   4.046   8.433
13526TIP3   OH240520   5.021   3.983   7.781
13526TIP3    H140521   4.935   3.993   7.828
13526TIP3    H240522   5.055   4.076   7.785
13527TIP3   OH240523   5.763   3.716   8.350
13527TIP3    H140524   5.757   3.722   8.448
13527TIP3    H240525   5.809   3.629   8.345
13528TIP3   OH240526   5.739   3.619   7.244
13528TIP3    H140527   5.794   3.592   7.321
13528TIP3    H240528   5.652   3.589   7.274
13529TIP3   OH240529   6.003   4.259   8.414
13529TIP3    H140530   5.930   4.194   8.405
13529TIP3    H240531   5.988   4.317   8.336
13530TIP3   OH240532   6.074   4.087   7.059
13530TIP3    H140533   6.110   4.161   7.008
13530TIP3    H240534   5.994   4.130   7.095
13531TIP3   OH240535   5.900   3.545   7.453
13531TIP3    H140536   5.889   3.481   7.527
13531TIP3    H240537   5.998   3.543   7.444
13532TIP3   OH240538   4.814   3.953   8.537
13532TIP3    H140539   4.880   3.883   8.545
13532TIP3    H240540   4.803   3.982   8.628
13533TIP3   OH240541   5.099   3.594   7.242
13533TIP3    H140542   5.113   3.501   7.218
13533TIP3    H240543   5.078   3.587   7.338
13534TIP3   OH240544   5.043   3.600   7.514
13534TIP3    H140545   5.118   3.572   7.568
13534TIP3    H240546   5.047   3.698   7.524
13535TIP3   OH240547   4.775   3.290   7.719
13535TIP3    H140548   4.709   3.335   7.776
13535TIP3    H240549   4.790   3.358   7.652
13536TIP3   OH240550   5.959   2.935   8.588
13536TIP3    H140551   6.019   2.958   8.661
13536TIP3    H240552   5.877   2.906   8.634
13537TIP3   OH240553   5.819   2.672   7.778
13537TIP3    H140554   5.805   2.705   7.688
13537TIP3    H240555   5.862   2.749   7.821
13538TIP3   OH240556   5.312   3.796   7.460
13538TIP3    H140557   5.225   3.819   7.498
13538TIP3    H240558   5.328   3.875   7.406
13539TIP3   OH240559   5.490   2.864   7.875
13539TIP3    H140560   5.556   2.935   7.861
13539TIP3    H240561   5.499   2.849   7.972
13540TIP3   OH240562   5.757   3.178   8.708
13540TIP3    H140563   5.796   3.264   8.730
13540TIP3    H240564   5.825   3.142   8.647
13541TIP3   OH240565   5.640   2.578   7.976
13541TIP3    H140566   5.638   2.650   8.042
13541TIP3    H240567   5.706   2.614   7.912
13542TIP3   OH240568   5.059   3.872   7.532
13542TIP3    H140569   5.029   3.943   7.471
13542TIP3    H240570   5.042   3.915   7.619
13543TIP3   OH240571   5.158   2.587   7.765
13543TIP3    H140572   5.153   2.675   7.807
13543TIP3    H240573   5.254   2.571   7.776
13544TIP3   OH240574   6.407   3.056   8.638
13544TIP3    H140575   6.316   3.079   8.668
13544TIP3    H240576   6.383   2.988   8.571
13545TIP3   OH240577   6.057   3.272   8.051
13545TIP3    H140578   5.977   3.217   8.065
13545TIP3    H240579   6.125   3.223   8.101
13546TIP3   OH240580   4.776   3.496   7.521
13546TIP3    H140581   4.848   3.561   7.531
13546TIP3    H240582   4.819   3.436   7.455
13547TIP3   OH240583   4.716   2.776   7.653
13547TIP3    H140584   4.722   2.874   7.654
13547TIP3    H240585   4.628   2.763   7.616
13548TIP3   OH240586   6.029   4.236   8.000
13548TIP3    H140587   5.987   4.284   7.924
13548TIP3    H240588   6.124   4.253   7.979
13549TIP3   OH240589   4.640   3.717   7.904
13549TIP3    H140590   4.578   3.746   7.973
13549TIP3    H240591   4.603   3.762   7.824
13550TIP3   OH240592   5.262   3.796   7.149
13550TIP3    H140593   5.207   3.725   7.189
13550TIP3    H240594   5.339   3.744   7.119
13551TIP3   OH240595   5.941   4.103   8.772
13551TIP3    H140596   5.985   4.017   8.761
13551TIP3    H240597   6.015   4.165   8.757
13552TIP3   OH240598   5.698   3.834   7.067
13552TIP3    H140599   5.737   3.768   7.128
13552TIP3    H240600   5.757   3.829   6.990
13553TIP3   OH240601   4.911   3.309   7.379
13553TIP3    H140602   4.968   3.281   7.453
13553TIP3    H240603   4.979   3.316   7.307
13554TIP3   OH240604   5.426   3.513   7.182
13554TIP3    H140605   5.427   3.526   7.279
13554TIP3    H240606   5.425   3.415   7.177
13555TIP3   OH240607   6.043   3.781   8.593
13555TIP3    H140608   6.111   3.809   8.529
13555TIP3    H240609   5.960   3.803   8.547
13556TIP3   OH240610   5.110   3.223   7.592
13556TIP3    H140611   5.086   3.188   7.680
13556TIP3    H240612   5.150   3.145   7.549
13557TIP3   OH240613   5.220   3.017   7.435
13557TIP3    H140614   5.196   3.026   7.340
13557TIP3    H240615   5.318   3.020   7.429
13558TIP3   OH240616   6.035   3.341   7.105
13558TIP3    H140617   6.017   3.298   7.019
13558TIP3    H240618   6.002   3.432   7.084
13559TIP3   OH240619   5.547   3.414   8.655
13559TIP3    H140620   5.623   3.375   8.609
13559TIP3    H240621   5.508   3.469   8.585
13560TIP3   OH240622   6.170   3.599   8.757
13560TIP3    H140623   6.108   3.658   8.708
13560TIP3    H240624   6.255   3.629   8.719
13561TIP3   OH240625   5.029   4.074   7.343
13561TIP3    H140626   5.124   4.065   7.323
13561TIP3    H240627   5.001   4.129   7.268
13562TIP3   OH240628   4.506   3.460   7.554
13562TIP3    H140629   4.602   3.480   7.541
13562TIP3    H240630   4.501   3.370   7.514
13563TIP3   OH240631   4.423   4.066   7.976
13563TIP3    H140632   4.359   4.005   7.933
13563TIP3    H240633   4.467   4.005   8.039
13564TIP3   OH240634   4.555   3.910   8.162
13564TIP3    H140635   4.551   3.842   8.232
13564TIP3    H240636   4.612   3.976   8.205
13565TIP3   OH240637   6.285   4.322   7.960
13565TIP3    H140638   6.311   4.349   8.050
13565TIP3    H240639   6.357   4.358   7.906
13566TIP3   OH240640   6.313   4.339   8.240
13566TIP3    H140641   6.266   4.252   8.238
13566TIP3    H240642   6.388   4.316   8.298
13567TIP3   OH240643   6.178   3.528   7.434
13567TIP3    H140644   6.245   3.594   7.406
13567TIP3    H240645   6.221   3.491   7.514
13568TIP3   OH240646   6.303   3.396   7.640
13568TIP3    H140647   6.236   3.354   7.699
13568TIP3    H240648   6.368   3.432   7.704
13569TIP3   OH240649   6.365   3.796   8.071
13569TIP3    H140650   6.416   3.724   8.027
13569TIP3    H240651   6.357   3.862   8.000
13570TIP3   OH240652   6.186   4.095   8.258
13570TIP3    H140653   6.113   4.123   8.315
13570TIP3    H240654   6.139   4.046   8.187
13571TIP3   OH240655   6.241   3.306   7.283
13571TIP3    H140656   6.167   3.308   7.217
13571TIP3    H240657   6.213   3.381   7.340
13572TIP3   OH240658   6.112   2.976   7.234
13572TIP3    H140659   6.063   3.010   7.158
13572TIP3    H240660   6.091   2.881   7.227
13573TIP3   OH240661   6.115   3.255   7.784
13573TIP3    H140662   6.122   3.158   7.778
13573TIP3    H240663   6.098   3.268   7.881
13574TIP3   OH240664   4.761   3.375   8.504
13574TIP3    H140665   4.753   3.315   8.427
13574TIP3    H240666   4.855   3.364   8.528
13575TIP3   OH240667   6.405   3.695   8.645
13575TIP3    H140668   6.473   3.626   8.636
13575TIP3    H240669   6.449   3.772   8.606
13576TIP3   OH240670   6.602   3.499   8.640
13576TIP3    H140671   6.525   3.439   8.657
13576TIP3    H240672   6.645   3.497   8.728
13577TIP3   OH240673   6.058   2.709   7.215
13577TIP3    H140674   6.132   2.681   7.273
13577TIP3    H240675   5.985   2.652   7.243
13578TIP3   OH240676   6.113   2.972   7.673
13578TIP3    H140677   6.153   2.883   7.689
13578TIP3    H240678   6.173   3.005   7.604
13579TIP3   OH240679   6.269   3.139   8.169
13579TIP3    H140680   6.356   3.163   8.131
13579TIP3    H240681   6.281   3.177   8.259
13580TIP3   OH240682   6.337   3.292   8.393
13580TIP3    H140683   6.264   3.319   8.453
13580TIP3    H240684   6.369   3.378   8.360
13581TIP3   OH240685   6.222   2.722   7.712
13581TIP3    H140686   6.269   2.709   7.798
13581TIP3    H240687   6.161   2.646   7.714
13582TIP3   OH240688   6.297   2.653   7.349
13582TIP3    H140689   6.341   2.582   7.298
13582TIP3    H240690   6.366   2.723   7.350
13583TIP3   OH240691   4.695   2.457   8.090
13583TIP3    H140692   4.603   2.467   8.120
13583TIP3    H240693   4.700   2.524   8.018
13584TIP3   OH240694   5.867   4.190   7.616
13584TIP3    H140695   5.919   4.178   7.534
13584TIP3    H240696   5.923   4.252   7.665
13585TIP3   OH240697   5.141   4.019   8.543
13585TIP3    H140698   5.097   4.098   8.506
13585TIP3    H240699   5.230   4.035   8.506
13586TIP3   OH240700   5.614   4.261   8.695
13586TIP3    H140701   5.673   4.266   8.771
13586TIP3    H240702   5.663   4.318   8.632
13587TIP3   OH240703   5.779   4.419   8.546
13587TIP3    H140704   5.830   4.359   8.487
13587TIP3    H240705   5.848   4.481   8.574
13588TIP3   OH240706   4.827   4.304   8.564
13588TIP3    H140707   4.744   4.343   8.533
13588TIP3    H240708   4.810   4.294   8.658
13589TIP3   OH240709   5.063   4.261   8.432
13589TIP3    H140710   4.977   4.280   8.476
13589TIP3    H240711   5.044   4.291   8.341
13590TIP3   OH240712   5.483   4.286   8.229
13590TIP3    H140713   5.413   4.302   8.163
13590TIP3    H240714   5.493   4.375   8.269
13591TIP3   OH240715   5.751   4.234   8.289
13591TIP3    H140716   5.658   4.244   8.262
13591TIP3    H240717   5.797   4.297   8.231
13592TIP3   OH240718   5.959   4.417   8.193
13592TIP3    H140719   5.944   4.501   8.144
13592TIP3    H240720   5.987   4.356   8.122
13593TIP3   OH240721   4.730   4.074   8.308
13593TIP3    H140722   4.763   4.048   8.397
13593TIP3    H240723   4.803   4.035   8.255
13594TIP3   OH240724   4.930   3.947   8.175
13594TIP3    H140725   4.944   3.864   8.226
13594TIP3    H240726   5.022   3.982   8.172
13595TIP3   OH240727   5.196   4.037   8.182
13595TIP3    H140728   5.225   3.944   8.173
13595TIP3    H240729   5.245   4.061   8.264
13596TIP3   OH240730   5.773   2.693   8.250
13596TIP3    H140731   5.729   2.618   8.294
13596TIP3    H240732   5.856   2.652   8.217
13597TIP3   OH240733   6.291   2.566   8.160
13597TIP3    H140734   6.320   2.628   8.090
13597TIP3    H240735   6.202   2.599   8.180
13598TIP3   OH240736   6.383   2.682   7.930
13598TIP3    H140737   6.456   2.628   7.893
13598TIP3    H240738   6.419   2.773   7.914
13599TIP3   OH240739   5.012   2.402   8.229
13599TIP3    H140740   4.924   2.375   8.262
13599TIP3    H240741   5.062   2.320   8.244
13600TIP3   OH240742   4.802   2.267   7.919
13600TIP3    H140743   4.838   2.329   7.852
13600TIP3    H240744   4.771   2.330   7.988
13601TIP3   OH240745   5.466   2.442   8.166
13601TIP3    H140746   5.515   2.494   8.100
13601TIP3    H240747   5.513   2.467   8.249
13602TIP3   OH240748   6.001   2.581   8.142
13602TIP3    H140749   6.012   2.544   8.054
13602TIP3    H240750   5.986   2.499   8.195
13603TIP3   OH240751   6.038   2.510   7.708
13603TIP3    H140752   5.955   2.556   7.731
13603TIP3    H240753   6.024   2.424   7.754
13604TIP3   OH240754   4.520   3.854   7.705
13604TIP3    H140755   4.434   3.822   7.673
13604TIP3    H240756   4.514   3.947   7.677
13605TIP3   OH240757   4.927   2.433   7.690
13605TIP3    H140758   4.977   2.372   7.633
13605TIP3    H240759   4.999   2.489   7.727
13606TIP3   OH240760   5.435   2.611   7.790
13606TIP3    H140761   5.498   2.569   7.852
13606TIP3    H240762   5.451   2.705   7.815
13607TIP3   OH240763   5.296   4.028   7.291
13607TIP3    H140764   5.383   4.052   7.254
13607TIP3    H240765   5.273   3.954   7.230
13608TIP3   OH240766   6.015   4.155   7.385
13608TIP3    H140767   6.008   4.057   7.375
13608TIP3    H240768   5.968   4.185   7.305
13609TIP3   OH240769   4.594   3.867   7.340
13609TIP3    H140770   4.599   3.897   7.431
13609TIP3    H240771   4.682   3.825   7.326
13610TIP3   OH240772   6.237   4.290   8.558
13610TIP3    H140773   6.156   4.269   8.508
13610TIP3    H240774   6.223   4.386   8.574
13611TIP3   OH240775   7.503   3.665   7.338
13611TIP3    H140776   7.478   3.758   7.319
13611TIP3    H240777   7.428   3.619   7.295
13612TIP3   OH240778   7.494   3.668   7.717
13612TIP3    H140779   7.573   3.619   7.747
13612TIP3    H240780   7.454   3.605   7.655
13613TIP3   OH240781   6.799   3.568   8.072
13613TIP3    H140782   6.827   3.498   8.135
13613TIP3    H240783   6.883   3.614   8.058
13614TIP3   OH240784   7.748   3.972   7.397
13614TIP3    H140785   7.747   3.899   7.462
13614TIP3    H240786   7.784   4.044   7.452
13615TIP3   OH240787   6.779   3.977   7.804
13615TIP3    H140788   6.771   3.879   7.804
13615TIP3    H240789   6.876   3.985   7.796
13616TIP3   OH240790   6.484   3.178   7.584
13616TIP3    H140791   6.434   3.259   7.606
13616TIP3    H240792   6.413   3.124   7.547
13617TIP3   OH240793   6.539   3.465   7.768
13617TIP3    H140794   6.588   3.387   7.801
13617TIP3    H240795   6.600   3.499   7.701
13618TIP3   OH240796   7.401   4.430   7.420
13618TIP3    H140797   7.442   4.359   7.368
13618TIP3    H240798   7.401   4.392   7.509
13619TIP3   OH240799   7.303   3.898   7.763
13619TIP3    H140800   7.347   3.814   7.739
13619TIP3    H240801   7.383   3.952   7.776
13620TIP3   OH240802   7.046   3.064   7.743
13620TIP3    H140803   7.023   3.136   7.682
13620TIP3    H240804   6.997   2.989   7.703
13621TIP3   OH240805   7.725   3.186   7.360
13621TIP3    H140806   7.785   3.119   7.400
13621TIP3    H240807   7.779   3.219   7.286
13622TIP3   OH240808   6.689   3.260   7.867
13622TIP3    H140809   6.773   3.242   7.912
13622TIP3    H240810   6.700   3.203   7.788
13623TIP3   OH240811   7.127   3.454   7.668
13623TIP3    H140812   7.220   3.423   7.677
13623TIP3    H240813   7.083   3.373   7.632
13624TIP3   OH240814   7.062   3.054   8.187
13624TIP3    H140815   6.995   3.098   8.134
13624TIP3    H240816   7.028   3.063   8.278
13625TIP3   OH240817   7.396   3.888   7.201
13625TIP3    H140818   7.354   3.876   7.115
13625TIP3    H240819   7.351   3.970   7.232
13626TIP3   OH240820   7.142   3.823   7.974
13626TIP3    H140821   7.088   3.896   8.014
13626TIP3    H240822   7.196   3.872   7.908
13627TIP3   OH240823   6.924   3.159   7.970
13627TIP3    H140824   6.989   3.229   7.994
13627TIP3    H240825   6.972   3.115   7.897
13628TIP3   OH240826   6.987   4.020   8.095
13628TIP3    H140827   6.963   4.109   8.061
13628TIP3    H240828   6.906   4.001   8.148
13629TIP3   OH240829   6.377   3.702   7.324
13629TIP3    H140830   6.336   3.730   7.240
13629TIP3    H240831   6.410   3.788   7.360
13630TIP3   OH240832   7.820   4.221   7.555
13630TIP3    H140833   7.734   4.203   7.600
13630TIP3    H240834   7.800   4.310   7.520
13631TIP3   OH240835   7.514   4.260   7.231
13631TIP3    H140836   7.567   4.178   7.215
13631TIP3    H240837   7.577   4.326   7.194
13632TIP3   OH240838   7.663   4.046   7.150
13632TIP3    H140839   7.618   3.966   7.119
13632TIP3    H240840   7.700   4.014   7.236
13633TIP3   OH240841   7.334   3.531   7.163
13633TIP3    H140842   7.253   3.582   7.144
13633TIP3    H240843   7.377   3.528   7.075
13634TIP3   OH240844   7.294   3.310   6.877
13634TIP3    H140845   7.361   3.362   6.926
13634TIP3    H240846   7.352   3.246   6.831
13635TIP3   OH240847   7.681   3.607   7.137
13635TIP3    H140848   7.627   3.629   7.215
13635TIP3    H240849   7.766   3.583   7.180
13636TIP3   OH240850   6.917   3.600   7.555
13636TIP3    H140851   6.876   3.541   7.488
13636TIP3    H240852   6.992   3.546   7.587
13637TIP3   OH240853   7.047   4.015   7.701
13637TIP3    H140854   7.027   3.980   7.613
13637TIP3    H240855   7.136   3.977   7.718
13638TIP3   OH240856   7.045   3.575   7.908
13638TIP3    H140857   7.079   3.545   7.821
13638TIP3    H240858   7.082   3.665   7.917
13639TIP3   OH240859   7.578   4.221   7.674
13639TIP3    H140860   7.567   4.300   7.730
13639TIP3    H240861   7.563   4.146   7.736
13640TIP3   OH240862   7.191   4.145   8.238
13640TIP3    H140863   7.120   4.200   8.279
13640TIP3    H240864   7.136   4.081   8.188
13641TIP3   OH240865   7.520   3.465   6.963
13641TIP3    H140866   7.579   3.527   7.012
13641TIP3    H240867   7.547   3.485   6.870
13642TIP3   OH240868   6.927   3.690   8.339
13642TIP3    H140869   6.920   3.779   8.380
13642TIP3    H240870   6.834   3.660   8.351
13643TIP3   OH240871   7.271   4.136   7.238
13643TIP3    H140872   7.354   4.187   7.246
13643TIP3    H240873   7.211   4.200   7.199
13644TIP3   OH240874   6.980   4.292   8.325
13644TIP3    H140875   6.943   4.302   8.235
13644TIP3    H240876   6.900   4.278   8.380
13645TIP3   OH240877   7.966   2.703   6.957
13645TIP3    H140878   7.910   2.721   7.036
13645TIP3    H240879   7.986   2.794   6.926
13646TIP3   OH240880   6.785   3.445   7.355
13646TIP3    H140881   6.712   3.486   7.304
13646TIP3    H240882   6.748   3.358   7.374
13647TIP3   OH240883   7.841   4.067   6.564
13647TIP3    H140884   7.849   4.164   6.548
13647TIP3    H240885   7.934   4.038   6.551
13648TIP3   OH240886   6.564   3.829   8.269
13648TIP3    H140887   6.493   3.811   8.204
13648TIP3    H240888   6.596   3.739   8.290
13649TIP3   OH240889   6.419   4.025   7.892
13649TIP3    H140890   6.515   4.013   7.887
13649TIP3    H240891   6.411   4.098   7.954
13650TIP3   OH240892   7.368   4.278   8.085
13650TIP3    H140893   7.410   4.327   8.157
13650TIP3    H240894   7.301   4.226   8.136
13651TIP3   OH240895   7.152   4.384   7.044
13651TIP3    H140896   7.104   4.367   6.961
13651TIP3    H240897   7.118   4.471   7.071
13652TIP3   OH240898   6.588   4.234   7.430
13652TIP3    H140899   6.634   4.225   7.516
13652TIP3    H240900   6.540   4.149   7.426
13653TIP3   OH240901   7.350   4.289   6.681
13653TIP3    H140902   7.408   4.218   6.646
13653TIP3    H240903   7.385   4.300   6.772
13654TIP3   OH240904   7.403   4.338   6.950
13654TIP3    H140905   7.315   4.347   6.992
13654TIP3    H240906   7.455   4.301   7.024
13655TIP3   OH240907   6.763   4.014   8.256
13655TIP3    H140908   6.802   3.995   8.344
13655TIP3    H240909   6.688   3.950   8.256
13656TIP3   OH240910   0.653   6.195   1.437
13656TIP3    H140911   0.720   6.141   1.485
13656TIP3    H240912   0.630   6.260   1.506
13657TIP3   OH240913   7.600   3.502   6.709
13657TIP3    H140914   7.565   3.482   6.620
13657TIP3    H240915   7.685   3.545   6.685
13658TIP3   OH240916   7.311   2.881   7.010
13658TIP3    H140917   7.274   2.879   7.101
13658TIP3    H240918   7.271   2.799   6.975
13659TIP3   OH240919   7.095   3.351   8.060
13659TIP3    H140920   7.041   3.373   8.137
13659TIP3    H240921   7.088   3.433   8.007
13660TIP3   OH240922   6.973   3.249   7.562
13660TIP3    H140923   6.883   3.219   7.584
13660TIP3    H240924   6.986   3.203   7.476
13661TIP3   OH240925   7.456   3.326   7.298
13661TIP3    H140926   7.410   3.397   7.249
13661TIP3    H240927   7.521   3.295   7.232
13662TIP3   OH240928   7.602   3.370   7.532
13662TIP3    H140929   7.541   3.397   7.461
13662TIP3    H240930   7.643   3.293   7.486
13663TIP3   OH240931   6.905   3.393   8.258
13663TIP3    H140932   6.930   3.458   8.325
13663TIP3    H240933   6.861   3.326   8.311
13664TIP3   OH240934   6.969   2.858   6.977
13664TIP3    H140935   6.957   2.856   7.075
13664TIP3    H240936   6.890   2.911   6.952
13665TIP3   OH240937   6.511   2.901   7.838
13665TIP3    H140938   6.582   2.935   7.898
13665TIP3    H240939   6.561   2.865   7.763
13666TIP3   OH240940   6.473   2.879   7.366
13666TIP3    H140941   6.521   2.916   7.290
13666TIP3    H240942   6.413   2.954   7.387
13667TIP3   OH240943   7.299   3.046   7.642
13667TIP3    H140944   7.209   3.040   7.682
13667TIP3    H240945   7.348   3.074   7.720
13668TIP3   OH240946   6.745   3.118   7.637
13668TIP3    H140947   6.650   3.125   7.610
13668TIP3    H240948   6.767   3.025   7.616
13669TIP3   OH240949   7.008   3.110   7.331
13669TIP3    H140950   7.100   3.123   7.305
13669TIP3    H240951   6.958   3.129   7.248
13670TIP3   OH240952   6.860   3.146   7.107
13670TIP3    H140953   6.789   3.099   7.059
13670TIP3    H240954   6.912   3.183   7.032
13671TIP3   OH240955   6.898   3.919   8.494
13671TIP3    H140956   6.972   3.969   8.531
13671TIP3    H240957   6.861   3.875   8.573
13672TIP3   OH240958   7.392   3.371   7.713
13672TIP3    H140959   7.471   3.362   7.655
13672TIP3    H240960   7.429   3.360   7.800
13673TIP3   OH240961   6.908   2.876   7.601
13673TIP3    H140962   6.864   2.808   7.658
13673TIP3    H240963   6.952   2.819   7.537
13674TIP3   OH240964   7.101   3.675   7.114
13674TIP3    H140965   7.030   3.609   7.102
13674TIP3    H240966   7.082   3.708   7.205
13675TIP3   OH240967   7.562   2.981   6.988
13675TIP3    H140968   7.466   2.961   6.993
13675TIP3    H240969   7.567   3.077   7.007
13676TIP3   OH240970   7.442   3.987   8.069
13676TIP3    H140971   7.458   3.939   8.152
13676TIP3    H240972   7.436   4.079   8.098
13677TIP3   OH240973   7.630   3.239   7.074
13677TIP3    H140974   7.727   3.252   7.075
13677TIP3    H240975   7.600   3.319   7.026
13678TIP3   OH240976   6.800   3.702   7.786
13678TIP3    H140977   6.838   3.670   7.702
13678TIP3    H240978   6.840   3.641   7.850
13679TIP3   OH240979   7.251   3.823   6.941
13679TIP3    H140980   7.203   3.909   6.943
13679TIP3    H240981   7.195   3.769   7.000
13680TIP3   OH240982   6.674   3.600   8.396
13680TIP3    H140983   6.659   3.569   8.489
13680TIP3    H240984   6.599   3.553   8.353
13681TIP3   OH240985   7.647   4.280   8.023
13681TIP3    H140986   7.553   4.281   7.998
13681TIP3    H240987   7.648   4.348   8.092
13682TIP3   OH240988   8.071   3.329   6.926
13682TIP3    H140989   8.014   3.286   6.857
13682TIP3    H240990   8.073   3.419   6.886
13683TIP3   OH240991   7.780   4.145   6.830
13683TIP3    H140992   7.748   4.077   6.891
13683TIP3    H240993   7.790   4.096   6.746
13684TIP3   OH240994   7.759   3.775   7.592
13684TIP3    H140995   7.667   3.770   7.624
13684TIP3    H240996   7.779   3.682   7.576
13685TIP3   OH240997   6.902   4.003   7.419
13685TIP3    H140998   6.898   4.084   7.364
13685TIP3    H240999   6.809   3.983   7.431
13686TIP3   OH241000   6.465   3.304   7.124
13686TIP3    H141001   6.510   3.388   7.147
13686TIP3    H241002   6.388   3.308   7.185
13687TIP3   OH241003   7.030   3.764   7.358
13687TIP3    H141004   6.998   3.854   7.379
13687TIP3    H241005   6.996   3.713   7.434
13688TIP3   OH241006   7.170   4.341   7.883
13688TIP3    H141007   7.212   4.409   7.825
13688TIP3    H241008   7.247   4.309   7.933
13689TIP3   OH241009   6.817   4.242   7.268
13689TIP3    H141010   6.732   4.250   7.316
13689TIP3    H241011   6.849   4.334   7.272
13690TIP3   OH241012   7.556   3.992   7.826
13690TIP3    H141013   7.519   3.986   7.917
13690TIP3    H241014   7.639   3.941   7.840
13691TIP3   OH241015   7.534   3.877   6.729
13691TIP3    H141016   7.588   3.850   6.807
13691TIP3    H241017   7.447   3.846   6.756
13692TIP3   OH241018   7.871   4.343   6.546
13692TIP3    H141019   7.906   4.417   6.494
13692TIP3    H241020   7.791   4.387   6.582
13693TIP3   OH241021   7.693   3.803   6.940
13693TIP3    H141022   7.683   3.740   7.013
13693TIP3    H241023   7.791   3.801   6.928
13694TIP3   OH241024   6.605   4.206   8.042
13694TIP3    H141025   6.660   4.136   8.081
13694TIP3    H241026   6.630   4.283   8.096
13695TIP3   OH241027   6.896   3.852   6.729
13695TIP3    H141028   6.908   3.758   6.704
13695TIP3    H241029   6.875   3.843   6.824
13696TIP3   OH241030   6.839   3.857   7.001
13696TIP3    H141031   6.914   3.830   7.055
13696TIP3    H241032   6.843   3.955   7.010
13697TIP3   OH241033   6.573   3.548   7.206
13697TIP3    H141034   6.507   3.593   7.262
13697TIP3    H241035   6.587   3.616   7.137
13698TIP3   OH241036   7.606   2.946   7.262
13698TIP3    H141037   7.595   2.948   7.165
13698TIP3    H241038   7.629   3.039   7.281
13699TIP3   OH241039   7.109   4.052   6.947
13699TIP3    H141040   7.022   4.076   6.985
13699TIP3    H241041   7.125   4.129   6.891
13700TIP3   OH241042   7.294   3.118   7.370
13700TIP3    H141043   7.351   3.194   7.348
13700TIP3    H241044   7.290   3.124   7.468
13701TIP3   OH241045   7.434   2.863   7.462
13701TIP3    H141046   7.398   2.948   7.494
13701TIP3    H241047   7.498   2.894   7.393
13702TIP3   OH241048   6.855   4.130   7.019
13702TIP3    H141049   6.825   4.200   6.958
13702TIP3    H241050   6.839   4.172   7.106
13703TIP3   OH241051   6.949   2.844   7.253
13703TIP3    H141052   6.945   2.932   7.296
13703TIP3    H241053   7.045   2.826   7.259
13704TIP3   OH241054   7.862   3.488   7.534
13704TIP3    H141055   7.773   3.455   7.558
13704TIP3    H241056   7.896   3.518   7.620
13705TIP3   OH241057   6.572   3.752   7.008
13705TIP3    H141058   6.645   3.817   7.017
13705TIP3    H241059   6.614   3.693   6.942
13706TIP3   OH241060   6.513   3.034   7.143
13706TIP3    H141061   6.515   3.132   7.141
13706TIP3    H241062   6.428   3.016   7.100
13707TIP3   OH241063   7.810   4.494   7.490
13707TIP3    H141064   7.780   4.543   7.410
13707TIP3    H241065   7.906   4.491   7.477
13708TIP3   OH241066   7.055   2.622   7.901
13708TIP3    H141067   6.976   2.669   7.876
13708TIP3    H241068   7.063   2.644   7.995
13709TIP3   OH241069   6.437   3.974   7.392
13709TIP3    H141070   6.376   4.003   7.461
13709TIP3    H241071   6.399   4.018   7.312
13710TIP3   OH241072   6.596   4.506   8.438
13710TIP3    H141073   6.665   4.497   8.505
13710TIP3    H241074   6.556   4.417   8.441
13711TIP3   OH241075   7.059   4.053   6.636
13711TIP3    H141076   7.004   3.981   6.676
13711TIP3    H241077   7.135   4.002   6.604
13712TIP3   OH241078   7.494   4.091   6.554
13712TIP3    H141079   7.532   4.024   6.614
13712TIP3    H241080   7.553   4.086   6.476
13713TIP3   OH241081   6.707   3.566   6.865
13713TIP3    H141082   6.765   3.538   6.938
13713TIP3    H241083   6.774   3.573   6.793
13714TIP3   OH241084   7.224   3.771   6.671
13714TIP3    H141085   7.224   3.783   6.768
13714TIP3    H241086   7.224   3.673   6.664
13715TIP3   OH241087   6.909   3.478   7.080
13715TIP3    H141088   6.882   3.440   7.165
13715TIP3    H241089   6.947   3.401   7.033
13716TIP3   OH241090   7.168   3.566   8.330
13716TIP3    H141091   7.080   3.610   8.327
13716TIP3    H241092   7.207   3.597   8.245
13717TIP3   OH241093   7.017   3.274   6.922
13717TIP3    H141094   6.991   3.281   6.828
13717TIP3    H241095   7.115   3.276   6.914
13718TIP3   OH241096   7.833   3.598   6.592
13718TIP3    H141097   7.814   3.555   6.506
13718TIP3    H241098   7.800   3.688   6.571
13719TIP3   OH241099   7.299   3.644   8.105
13719TIP3    H141100   7.379   3.646   8.051
13719TIP3    H241101   7.242   3.709   8.058
13720TIP3   OH241102   6.826   4.334   6.832
13720TIP3    H141103   6.920   4.322   6.812
13720TIP3    H241104   6.798   4.385   6.753
13721TIP3   OH241105   6.302   3.716   7.042
13721TIP3    H141106   6.398   3.736   7.029
13721TIP3    H241107   6.296   3.626   7.002
13722TIP3   OH241108   6.219   4.325   7.464
13722TIP3    H141109   6.154   4.264   7.424
13722TIP3    H241110   6.264   4.265   7.528
13723TIP3   OH241111   6.352   4.170   7.649
13723TIP3    H141112   6.342   4.101   7.717
13723TIP3    H241113   6.405   4.234   7.699
13724TIP3   OH241114   7.970   3.787   6.919
13724TIP3    H141115   8.031   3.857   6.888
13724TIP3    H241116   8.020   3.751   6.996
13725TIP3   OH241117   8.098   3.660   7.133
13725TIP3    H141118   8.025   3.607   7.172
13725TIP3    H241119   8.117   3.722   7.204
13726TIP3   OH241120   8.073   4.002   7.481
13726TIP3    H141121   8.163   4.016   7.512
13726TIP3    H241122   8.038   4.092   7.475
13727TIP3   OH241123   7.997   4.379   7.709
13727TIP3    H141124   7.957   4.379   7.797
13727TIP3    H241125   7.940   4.314   7.663
13728TIP3   OH241126   8.034   3.560   6.775
13728TIP3    H141127   7.964   3.561   6.705
13728TIP3    H241128   8.006   3.640   6.825
13729TIP3   OH241129   7.907   3.235   6.730
13729TIP3    H141130   7.869   3.272   6.650
13729TIP3    H241131   7.884   3.140   6.719
13730TIP3   OH241132   7.910   3.510   7.262
13730TIP3    H141133   7.917   3.415   7.238
13730TIP3    H241134   7.895   3.506   7.359
13731TIP3   OH241135   6.534   3.586   8.016
13731TIP3    H141136   6.531   3.550   7.925
13731TIP3    H241137   6.632   3.588   8.031
13732TIP3   OH241138   7.851   2.970   6.707
13732TIP3    H141139   7.925   2.935   6.760
13732TIP3    H241140   7.776   2.911   6.727
13733TIP3   OH241141   7.913   3.245   7.146
13733TIP3    H141142   7.939   3.152   7.154
13733TIP3    H241143   7.973   3.275   7.074
13734TIP3   OH241144   6.709   2.972   8.012
13734TIP3    H141145   6.772   2.900   8.034
13734TIP3    H241146   6.773   3.046   8.000
13735TIP3   OH241147   6.520   3.233   8.093
13735TIP3    H141148   6.570   3.234   8.009
13735TIP3    H241149   6.544   3.318   8.131
13736TIP3   OH241150   8.100   2.910   6.832
13736TIP3    H141151   8.146   2.851   6.770
13736TIP3    H241152   8.163   2.986   6.839
13737TIP3   OH241153   6.505   2.732   7.592
13737TIP3    H141154   6.414   2.731   7.627
13737TIP3    H241155   6.497   2.795   7.517
13738TIP3   OH241156   7.661   4.445   7.101
13738TIP3    H141157   7.718   4.438   7.021
13738TIP3    H241158   7.707   4.512   7.154
13739TIP3   OH241159   6.658   2.804   8.407
13739TIP3    H141160   6.630   2.822   8.498
13739TIP3    H241161   6.601   2.867   8.356
13740TIP3   OH241162   6.766   4.247   8.498
13740TIP3    H141163   6.676   4.229   8.463
13740TIP3    H241164   6.758   4.211   8.587
13741TIP3   OH241165   6.946   4.289   8.037
13741TIP3    H141166   6.899   4.366   7.998
13741TIP3    H241167   7.031   4.300   7.990
13742TIP3   OH241168   6.620   4.538   8.063
13742TIP3    H141169   6.528   4.567   8.043
13742TIP3    H241170   6.637   4.594   8.141
13743TIP3   OH241171   6.857   4.521   7.922
13743TIP3    H141172   6.768   4.531   7.964
13743TIP3    H241173   6.838   4.551   7.831
13744TIP3   OH241174   7.267   4.531   7.707
13744TIP3    H141175   7.202   4.557   7.640
13744TIP3    H241176   7.288   4.616   7.751
13745TIP3   OH241177   7.534   4.477   7.771
13745TIP3    H141178   7.443   4.499   7.743
13745TIP3    H241179   7.583   4.557   7.744
13746TIP3   OH241180   7.682   4.691   7.652
13746TIP3    H141181   7.769   4.729   7.675
13746TIP3    H241182   7.711   4.614   7.599
13747TIP3   OH241183   6.529   4.331   7.803
13747TIP3    H141184   6.556   4.301   7.893
13747TIP3    H241185   6.601   4.288   7.751
13748TIP3   OH241186   6.726   4.204   7.664
13748TIP3    H141187   6.740   4.120   7.714
13748TIP3    H241188   6.817   4.239   7.661
13749TIP3   OH241189   6.993   4.295   7.669
13749TIP3    H141190   7.023   4.202   7.659
13749TIP3    H241191   7.043   4.318   7.750
13750TIP3   OH241192   6.792   2.682   7.746
13750TIP3    H141193   6.700   2.655   7.761
13750TIP3    H241194   6.833   2.592   7.741
13751TIP3   OH241195   6.592   2.532   7.413
13751TIP3    H141196   6.629   2.590   7.344
13751TIP3    H241197   6.572   2.596   7.484
13752TIP3   OH241198   7.229   2.711   7.644
13752TIP3    H141199   7.272   2.795   7.619
13752TIP3    H241200   7.204   2.726   7.736
13753TIP3   OH241201   7.827   2.773   7.185
13753TIP3    H141202   7.754   2.822   7.227
13753TIP3    H241203   7.830   2.693   7.241
13754TIP3   OH241204   6.317   4.108   7.190
13754TIP3    H141205   6.231   4.075   7.159
13754TIP3    H241206   6.309   4.201   7.162
13755TIP3   OH241207   6.722   2.691   7.174
13755TIP3    H141208   6.770   2.626   7.120
13755TIP3    H241209   6.795   2.744   7.212
13756TIP3   OH241210   7.224   2.872   7.271
13756TIP3    H141211   7.276   2.820   7.333
13756TIP3    H241212   7.248   2.963   7.300
13757TIP3   OH241213   7.091   4.285   6.777
13757TIP3    H141214   7.179   4.309   6.741
13757TIP3    H241215   7.069   4.211   6.717
13758TIP3   OH241216   7.813   4.412   6.871
13758TIP3    H141217   7.805   4.314   6.862
13758TIP3    H241218   7.764   4.441   6.791
13759TIP3   OH241219   6.394   4.124   6.830
13759TIP3    H141220   6.399   4.141   6.925
13759TIP3    H241221   6.481   4.081   6.813
13760TIP3   OH241222   8.262   3.422   7.134
13760TIP3    H141223   8.222   3.510   7.124
13760TIP3    H241224   8.221   3.376   7.059
13761TIP3   OH241225   8.154   3.972   6.817
13761TIP3    H141226   8.119   3.998   6.730
13761TIP3    H241227   8.194   4.056   6.848
13762TIP3   OH241228   8.534   3.643   6.764
13762TIP3    H141229   8.467   3.714   6.757
13762TIP3    H241230   8.584   3.665   6.846
13763TIP3   OH241231   8.190   4.296   7.403
13763TIP3    H141232   8.286   4.280   7.386
13763TIP3    H241233   8.187   4.278   7.501
13764TIP3   OH241234   8.912   4.620   6.539
13764TIP3    H141235   8.883   4.612   6.447
13764TIP3    H241236   8.877   4.706   6.567
13765TIP3   OH241237   8.384   4.494   6.924
13765TIP3    H141238   8.411   4.474   7.015
13765TIP3    H241239   8.331   4.416   6.902
13766TIP3   OH241240   8.731   3.180   6.450
13766TIP3    H141241   8.690   3.138   6.527
13766TIP3    H241242   8.654   3.218   6.404
13767TIP3   OH241243   8.269   3.126   6.858
13767TIP3    H141244   8.313   3.164   6.779
13767TIP3    H241245   8.212   3.201   6.881
13768TIP3   OH241246   8.623   3.413   6.582
13768TIP3    H141247   8.560   3.370   6.524
13768TIP3    H241248   8.696   3.437   6.522
13769TIP3   OH241249   8.850   3.958   6.606
13769TIP3    H141250   8.804   3.873   6.586
13769TIP3    H241251   8.839   3.964   6.702
13770TIP3   OH241252   8.999   4.075   6.398
13770TIP3    H141253   8.978   4.166   6.427
13770TIP3    H241254   8.971   4.024   6.476
13771TIP3   OH241255   8.700   4.267   6.862
13771TIP3    H141256   8.674   4.347   6.813
13771TIP3    H241257   8.633   4.262   6.932
13772TIP3   OH241258   8.252   3.560   6.600
13772TIP3    H141259   8.308   3.635   6.626
13772TIP3    H241260   8.183   3.563   6.670
13773TIP3   OH241261   8.821   4.025   6.887
13773TIP3    H141262   8.787   4.116   6.867
13773TIP3    H241263   8.755   3.996   6.951
13774TIP3   OH241264   8.604   4.509   6.753
13774TIP3    H141265   8.519   4.517   6.801
13774TIP3    H241266   8.652   4.586   6.785
13775TIP3   OH241267   8.685   4.107   6.216
13775TIP3    H141268   8.690   4.013   6.191
13775TIP3    H241269   8.668   4.100   6.313
13776TIP3   OH241270   8.638   4.113   6.486
13776TIP3    H141271   8.719   4.078   6.530
13776TIP3    H241272   8.646   4.209   6.503
13777TIP3   OH241273   8.343   3.822   6.682
13777TIP3    H141274   8.278   3.867   6.740
13777TIP3    H241275   8.360   3.892   6.616
13778TIP3   OH241276   8.909   4.323   6.460
13778TIP3    H141277   8.818   4.346   6.486
13778TIP3    H241278   8.929   4.398   6.401
13779TIP3   OH241279   8.646   4.388   6.507
13779TIP3    H141280   8.614   4.454   6.442
13779TIP3    H241281   8.629   4.435   6.591
13780TIP3   OH241282   8.369   4.018   6.482
13780TIP3    H141283   8.446   4.078   6.496
13780TIP3    H241284   8.410   3.956   6.419
13781TIP3   OH241285   8.303   3.284   6.636
13781TIP3    H141286   8.332   3.377   6.634
13781TIP3    H241287   8.225   3.288   6.578
13782TIP3   OH241288   8.234   4.236   6.879
13782TIP3    H141289   8.173   4.268   6.948
13782TIP3    H241290   8.196   4.277   6.798
13783TIP3   OH241291   8.853   4.303   6.130
13783TIP3    H141292   8.787   4.236   6.162
13783TIP3    H241293   8.935   4.254   6.145
13784TIP3   OH241294   8.506   3.825   6.347
13784TIP3    H141295   8.553   3.789   6.424
13784TIP3    H241296   8.580   3.830   6.282
13785TIP3   OH241297   8.995   4.009   6.139
13785TIP3    H141298   9.012   4.039   6.233
13785TIP3    H241299   8.919   3.951   6.157
13786TIP3   OH241300   8.707   3.725   6.566
13786TIP3    H141301   8.649   3.680   6.632
13786TIP3    H241302   8.747   3.647   6.522
13787TIP3   OH241303   8.817   3.523   6.413
13787TIP3    H141304   8.786   3.530   6.321
13787TIP3    H241305   8.912   3.507   6.397
13788TIP3   OH241306   8.608   4.590   6.325
13788TIP3    H141307   8.704   4.584   6.308
13788TIP3    H241308   8.581   4.638   6.243
13789TIP3   OH241309   8.101   3.974   6.532
13789TIP3    H141310   8.194   3.997   6.513
13789TIP3    H241311   8.095   3.884   6.493
13790TIP3   OH241312   8.018   4.583   6.944
13790TIP3    H141313   7.950   4.524   6.904
13790TIP3    H241314   8.063   4.520   7.003
13791TIP3   OH241315   8.149   4.413   7.117
13791TIP3    H141316   8.121   4.349   7.184
13791TIP3    H241317   8.196   4.477   7.174
13792TIP3   OH241318   8.113   4.367   6.678
13792TIP3    H141319   8.028   4.332   6.647
13792TIP3    H241320   8.103   4.460   6.648
13793TIP3   OH241321   8.508   2.997   6.643
13793TIP3    H141322   8.576   2.928   6.652
13793TIP3    H241323   8.516   3.042   6.730
13794TIP3   OH241324   8.873   4.542   6.270
13794TIP3    H141325   8.961   4.558   6.228
13794TIP3    H241326   8.845   4.466   6.213
13795TIP3   OH241327   8.190   4.381   6.317
13795TIP3    H141328   8.196   4.399   6.412
13795TIP3    H241329   8.277   4.338   6.299
13796TIP3   OH241330   1.872   5.078   8.284
13796TIP3    H141331   1.905   5.021   8.211
13796TIP3    H241332   1.952   5.129   8.310
13797TIP3   OH241333   1.569   4.351   8.065
13797TIP3    H141334   1.644   4.409   8.092
13797TIP3    H241335   1.618   4.285   8.011
13798TIP3   OH241336   1.783   4.508   8.131
13798TIP3    H141337   1.765   4.602   8.149
13798TIP3    H241338   1.812   4.513   8.036
13799TIP3   OH241339   2.091   5.116   7.740
13799TIP3    H141340   2.099   5.211   7.717
13799TIP3    H241341   2.183   5.084   7.726
13800TIP3   OH241342   1.398   5.427   8.207
13800TIP3    H141343   1.354   5.422   8.120
13800TIP3    H241344   1.373   5.517   8.237
13801TIP3   OH241345   1.604   5.337   7.857
13801TIP3    H141346   1.662   5.265   7.821
13801TIP3    H241347   1.637   5.345   7.948
13802TIP3   OH241348   1.659   5.389   8.128
13802TIP3    H141349   1.568   5.387   8.166
13802TIP3    H241350   1.711   5.350   8.200
13803TIP3   OH241351   1.853   4.554   7.879
13803TIP3    H141352   1.810   4.530   7.794
13803TIP3    H241353   1.937   4.591   7.848
13804TIP3   OH241354   1.517   4.868   8.066
13804TIP3    H141355   1.484   4.960   8.081
13804TIP3    H241356   1.484   4.826   8.146
13805TIP3   OH241357   2.337   4.363   8.068
13805TIP3    H141358   2.263   4.324   8.016
13805TIP3    H241359   2.333   4.454   8.034
13806TIP3   OH241360   2.036   5.185   8.002
13806TIP3    H141361   1.983   5.113   8.036
13806TIP3    H241362   2.051   5.157   7.909
13807TIP3   OH241363   1.775   4.921   7.905
13807TIP3    H141364   1.828   4.899   7.984
13807TIP3    H241365   1.686   4.895   7.936
13808TIP3   OH241366   2.120   5.393   7.723
13808TIP3    H141367   2.164   5.469   7.682
13808TIP3    H241368   2.038   5.436   7.754
13809TIP3   OH241369   1.951   4.875   8.116
13809TIP3    H141370   1.934   4.817   8.192
13809TIP3    H241371   2.046   4.859   8.099
13810TIP3   OH241372   1.151   4.894   7.910
13810TIP3    H141373   1.173   4.804   7.881
13810TIP3    H241374   1.105   4.877   7.994
13811TIP3   OH241375   1.407   5.111   8.114
13811TIP3    H141376   1.351   5.124   8.194
13811TIP3    H241377   1.378   5.186   8.060
13812TIP3   OH241378   0.965   5.201   8.149
13812TIP3    H141379   0.988   5.270   8.083
13812TIP3    H241380   1.022   5.228   8.222
13813TIP3   OH241381   1.305   5.096   7.809
13813TIP3    H141382   1.249   5.028   7.853
13813TIP3    H241383   1.379   5.040   7.778
13814TIP3   OH241384   1.747   5.138   7.731
13814TIP3    H141385   1.782   5.067   7.788
13814TIP3    H241386   1.801   5.131   7.650
13815TIP3   OH241387   0.930   4.655   7.958
13815TIP3    H141388   0.953   4.706   8.038
13815TIP3    H241389   1.019   4.632   7.924
13816TIP3   OH241390   1.457   4.805   7.810
13816TIP3    H141391   1.467   4.825   7.905
13816TIP3    H241392   1.462   4.707   7.814
13817TIP3   OH241393   1.212   4.375   8.078
13817TIP3    H141394   1.216   4.364   7.981
13817TIP3    H241395   1.304   4.374   8.106
13818TIP3   OH241396   2.088   4.643   7.768
13818TIP3    H141397   2.068   4.599   7.683
13818TIP3    H241398   2.053   4.733   7.747
13819TIP3   OH241399   1.078   5.391   7.991
13819TIP3    H141400   1.174   5.374   7.977
13819TIP3    H241401   1.061   5.453   7.918
13820TIP3   OH241402   2.222   4.849   8.096
13820TIP3    H141403   2.290   4.908   8.055
13820TIP3    H241404   2.245   4.859   8.190
13821TIP3   OH241405   2.346   4.650   8.273
13821TIP3    H141406   2.273   4.693   8.320
13821TIP3    H241407   2.301   4.614   8.195
13822TIP3   OH241408   2.283   4.615   7.958
13822TIP3    H141409   2.214   4.609   7.887
13822TIP3    H241410   2.258   4.701   7.997
13823TIP3   OH241411   2.149   4.275   7.890
13823TIP3    H141412   2.100   4.305   7.812
13823TIP3    H241413   2.130   4.179   7.887
13824TIP3   OH241414   2.098   4.007   7.887
13824TIP3    H141415   2.166   3.978   7.951
13824TIP3    H241416   2.016   3.967   7.922
13825TIP3   OH241417   2.347   3.957   8.019
13825TIP3    H141418   2.387   3.894   7.958
13825TIP3    H241419   2.414   4.029   8.021
13826TIP3   OH241420   1.957   5.426   8.304
13826TIP3    H141421   1.978   5.447   8.211
13826TIP3    H241422   1.968   5.512   8.347
13827TIP3   OH241423   1.342   5.334   7.939
13827TIP3    H141424   1.432   5.352   7.905
13827TIP3    H241425   1.319   5.258   7.880
13828TIP3   OH241426   2.061   5.457   8.046
13828TIP3    H141427   2.056   5.359   8.033
13828TIP3    H241428   2.012   5.489   7.967
13829TIP3   OH241429   3.541   4.958   8.010
13829TIP3    H141430   3.523   5.053   7.994
13829TIP3    H241431   3.467   4.918   7.960
13830TIP3   OH241432   3.488   4.965   8.393
13830TIP3    H141433   3.574   4.970   8.442
13830TIP3    H241434   3.519   4.942   8.303
13831TIP3   OH241435   2.826   5.288   8.460
13831TIP3    H141436   2.818   5.191   8.466
13831TIP3    H241437   2.923   5.295   8.448
13832TIP3   OH241438   2.567   4.499   8.197
13832TIP3    H141439   2.510   4.573   8.227
13832TIP3    H241440   2.505   4.426   8.211
13833TIP3   OH241441   2.722   4.733   8.414
13833TIP3    H141442   2.637   4.752   8.461
13833TIP3    H241443   2.706   4.773   8.328
13834TIP3   OH241444   3.452   5.735   8.085
13834TIP3    H141445   3.488   5.665   8.027
13834TIP3    H241446   3.444   5.687   8.168
13835TIP3   OH241447   3.339   5.202   8.418
13835TIP3    H141448   3.377   5.113   8.402
13835TIP3    H241449   3.420   5.250   8.442
13836TIP3   OH241450   4.367   4.527   8.409
13836TIP3    H141451   4.388   4.615   8.447
13836TIP3    H241452   4.391   4.542   8.316
13837TIP3   OH241453   3.731   4.675   8.464
13837TIP3    H141454   3.788   4.598   8.483
13837TIP3    H241455   3.710   4.659   8.369
13838TIP3   OH241456   3.138   4.331   8.375
13838TIP3    H141457   3.106   4.416   8.336
13838TIP3    H241458   3.054   4.295   8.408
13839TIP3   OH241459   3.792   4.450   8.051
13839TIP3    H141460   3.864   4.440   8.117
13839TIP3    H241461   3.844   4.488   7.977
13840TIP3   OH241462   3.174   4.756   8.330
13840TIP3    H141463   3.267   4.726   8.337
13840TIP3    H241464   3.130   4.676   8.294
13841TIP3   OH241465   4.433   4.732   8.595
13841TIP3    H141466   4.348   4.773   8.569
13841TIP3    H241467   4.425   4.735   8.691
13842TIP3   OH241468   3.434   5.184   7.868
13842TIP3    H141469   3.400   5.177   7.778
13842TIP3    H241470   3.391   5.267   7.898
13843TIP3   OH241471   4.001   4.453   8.226
13843TIP3    H141472   4.001   4.408   8.311
13843TIP3    H241473   4.047   4.536   8.247
13844TIP3   OH241474   2.419   5.007   7.985
13844TIP3    H141475   2.385   5.032   7.897
13844TIP3    H241476   2.452   5.093   8.018
13845TIP3   OH241477   3.859   5.545   8.274
13845TIP3    H141478   3.830   5.459   8.237
13845TIP3    H241479   3.840   5.608   8.203
13846TIP3   OH241480   4.140   4.451   8.570
13846TIP3    H141481   4.055   4.479   8.531
13846TIP3    H241482   4.206   4.486   8.506
13847TIP3   OH241483   3.556   5.564   7.890
13847TIP3    H141484   3.609   5.481   7.882
13847TIP3    H241485   3.622   5.628   7.855
13848TIP3   OH241486   3.712   5.346   7.832
13848TIP3    H141487   3.680   5.268   7.784
13848TIP3    H241488   3.768   5.306   7.901
13849TIP3   OH241489   4.089   5.426   8.572
13849TIP3    H141490   4.074   5.349   8.512
13849TIP3    H241491   4.070   5.501   8.512
13850TIP3   OH241492   3.378   4.823   7.829
13850TIP3    H141493   3.300   4.877   7.807
13850TIP3    H241494   3.427   4.823   7.745
13851TIP3   OH241495   3.340   4.610   7.541
13851TIP3    H141496   3.404   4.663   7.592
13851TIP3    H241497   3.401   4.550   7.493
13852TIP3   OH241498   4.284   5.066   8.427
13852TIP3    H141499   4.200   5.117   8.428
13852TIP3    H241500   4.315   5.087   8.336
13853TIP3   OH241501   3.722   4.909   7.801
13853TIP3    H141502   3.674   4.929   7.885
13853TIP3    H241503   3.811   4.885   7.837
13854TIP3   OH241504   3.954   4.977   8.688
13854TIP3    H141505   3.950   5.074   8.699
13854TIP3    H241506   3.876   4.964   8.630
13855TIP3   OH241507   2.963   4.905   8.215
13855TIP3    H141508   2.925   4.843   8.150
13855TIP3    H241509   3.038   4.854   8.252
13856TIP3   OH241510   3.089   5.315   8.366
13856TIP3    H141511   3.079   5.279   8.276
13856TIP3    H241512   3.177   5.277   8.391
13857TIP3   OH241513   3.107   4.859   8.577
13857TIP3    H141514   3.125   4.822   8.488
13857TIP3    H241515   3.176   4.927   8.584
13858TIP3   OH241516   3.558   5.513   8.339
13858TIP3    H141517   3.610   5.587   8.375
13858TIP3    H241518   3.584   5.439   8.397
13859TIP3   OH241519   3.563   4.767   7.628
13859TIP3    H141520   3.624   4.826   7.678
13859TIP3    H241521   3.591   4.788   7.535
13860TIP3   OH241522   3.313   5.438   7.901
13860TIP3    H141523   3.398   5.487   7.908
13860TIP3    H241524   3.255   5.503   7.860
13861TIP3   OH241525   4.084   4.004   7.675
13861TIP3    H141526   4.004   4.029   7.726
13861TIP3    H241527   4.103   4.088   7.628
13862TIP3   OH241528   2.827   4.743   8.018
13862TIP3    H141529   2.758   4.786   7.963
13862TIP3    H241530   2.783   4.661   8.044
13863TIP3   OH241531   3.886   5.369   7.229
13863TIP3    H141532   3.895   5.466   7.211
13863TIP3    H241533   3.978   5.339   7.214
13864TIP3   OH241534   4.323   5.782   8.617
13864TIP3    H141535   4.327   5.685   8.628
13864TIP3    H241536   4.236   5.799   8.659
13865TIP3   OH241537   3.197   5.686   7.707
13865TIP3    H141538   3.150   5.667   7.624
13865TIP3    H241539   3.162   5.773   7.733
13866TIP3   OH241540   2.628   5.537   8.086
13866TIP3    H141541   2.683   5.529   8.167
13866TIP3    H241542   2.576   5.455   8.090
13867TIP3   OH241543   3.396   5.590   7.345
13867TIP3    H141544   3.453   5.519   7.309
13867TIP3    H241545   3.431   5.600   7.435
13868TIP3   OH241546   3.448   5.639   7.615
13868TIP3    H141547   3.359   5.648   7.655
13868TIP3    H241548   3.497   5.597   7.688
13869TIP3   OH241549   3.636   4.807   7.371
13869TIP3    H141550   3.609   4.781   7.281
13869TIP3    H241551   3.725   4.844   7.352
13870TIP3   OH241552   3.354   4.183   7.677
13870TIP3    H141553   3.319   4.180   7.768
13870TIP3    H241554   3.315   4.101   7.641
13871TIP3   OH241555   3.032   4.545   8.235
13871TIP3    H141556   2.939   4.524   8.259
13871TIP3    H241557   3.036   4.504   8.146
13872TIP3   OH241558   3.514   4.620   7.957
13872TIP3    H141559   3.468   4.696   7.916
13872TIP3    H241560   3.574   4.592   7.885
13873TIP3   OH241561   3.649   4.644   8.203
13873TIP3    H141562   3.606   4.683   8.124
13873TIP3    H241563   3.697   4.572   8.159
13874TIP3   OH241564   3.013   4.159   7.635
13874TIP3    H141565   3.003   4.163   7.732
13874TIP3    H241566   2.937   4.214   7.607
13875TIP3   OH241567   2.532   4.176   8.025
13875TIP3    H141568   2.568   4.221   7.946
13875TIP3    H241569   2.465   4.244   8.051
13876TIP3   OH241570   3.709   4.927   8.565
13876TIP3    H141571   3.720   4.833   8.537
13876TIP3    H241572   3.672   4.918   8.655
13877TIP3   OH241573   3.390   4.363   8.266
13877TIP3    H141574   3.301   4.352   8.307
13877TIP3    H241575   3.431   4.427   8.328
13878TIP3   OH241576   2.802   4.395   8.277
13878TIP3    H141577   2.718   4.443   8.258
13878TIP3    H241578   2.806   4.334   8.202
13879TIP3   OH241579   3.052   4.410   7.999
13879TIP3    H141580   3.146   4.425   7.975
13879TIP3    H241581   3.005   4.422   7.914
13880TIP3   OH241582   3.856   4.433   8.511
13880TIP3    H141583   3.836   4.426   8.605
13880TIP3    H241584   3.786   4.375   8.473
13881TIP3   OH241585   2.910   4.434   7.767
13881TIP3    H141586   2.840   4.397   7.711
13881TIP3    H241587   2.963   4.482   7.700
13882TIP3   OH241588   4.047   6.113   8.702
13882TIP3    H141589   4.032   6.138   8.609
13882TIP3    H241590   4.063   6.198   8.744
13883TIP3   OH241591   3.440   4.635   8.382
13883TIP3    H141592   3.502   4.638   8.305
13883TIP3    H241593   3.499   4.677   8.449
13884TIP3   OH241594   2.965   4.140   8.194
13884TIP3    H141595   2.933   4.128   8.285
13884TIP3    H241596   3.060   4.152   8.206
13885TIP3   OH241597   3.148   4.974   7.775
13885TIP3    H141598   3.074   4.910   7.764
13885TIP3    H241599   3.129   5.009   7.865
13886TIP3   OH241600   4.058   5.214   8.403
13886TIP3    H141601   4.092   5.269   8.329
13886TIP3    H241602   3.979   5.181   8.354
13887TIP3   OH241603   3.608   4.283   7.648
13887TIP3    H141604   3.511   4.269   7.656
13887TIP3    H241605   3.620   4.378   7.670
13888TIP3   OH241606   3.674   4.534   7.745
13888TIP3    H141607   3.770   4.538   7.762
13888TIP3    H241608   3.660   4.614   7.690
13889TIP3   OH241609   2.863   5.014   8.448
13889TIP3    H141610   2.894   4.991   8.359
13889TIP3    H241611   2.860   4.926   8.488
13890TIP3   OH241612   3.296   5.124   7.601
13890TIP3    H141613   3.247   5.210   7.605
13890TIP3    H241614   3.242   5.069   7.662
13891TIP3   OH241615   3.715   5.527   8.715
13891TIP3    H141616   3.641   5.570   8.670
13891TIP3    H241617   3.750   5.598   8.773
13892TIP3   OH241618   4.330   5.507   8.658
13892TIP3    H141619   4.235   5.486   8.642
13892TIP3    H241620   4.370   5.463   8.580
13893TIP3   OH241621   3.820   5.445   7.492
13893TIP3    H141622   3.799   5.372   7.552
13893TIP3    H241623   3.835   5.400   7.407
13894TIP3   OH241624   2.946   5.305   8.081
13894TIP3    H141625   2.945   5.386   8.026
13894TIP3    H241626   2.852   5.286   8.090
13895TIP3   OH241627   2.511   4.601   7.794
13895TIP3    H141628   2.557   4.686   7.812
13895TIP3    H241629   2.435   4.609   7.855
13896TIP3   OH241630   3.072   5.066   8.015
13896TIP3    H141631   3.044   5.157   8.039
13896TIP3    H241632   3.043   5.016   8.093
13897TIP3   OH241633   3.208   5.649   8.536
13897TIP3    H141634   3.261   5.719   8.491
13897TIP3    H241635   3.276   5.589   8.569
13898TIP3   OH241636   2.861   5.543   7.931
13898TIP3    H141637   2.775   5.552   7.976
13898TIP3    H241638   2.894   5.636   7.935
13899TIP3   OH241639   3.606   5.283   8.506
13899TIP3    H141640   3.648   5.274   8.593
13899TIP3    H241641   3.673   5.242   8.450
13900TIP3   OH241642   3.582   5.178   7.395
13900TIP3    H141643   3.637   5.153   7.473
13900TIP3    H241644   3.495   5.145   7.423
13901TIP3   OH241645   3.842   5.811   8.558
13901TIP3    H141646   3.759   5.766   8.532
13901TIP3    H241647   3.842   5.883   8.491
13902TIP3   OH241648   3.915   5.645   7.209
13902TIP3    H141649   3.950   5.719   7.156
13902TIP3    H241650   3.834   5.688   7.245
13903TIP3   OH241651   3.740   5.111   7.611
13903TIP3    H141652   3.728   5.043   7.680
13903TIP3    H241653   3.837   5.106   7.598
13904TIP3   OH241654   2.940   5.154   7.394
13904TIP3    H141655   2.954   5.061   7.367
13904TIP3    H241656   2.919   5.144   7.489
13905TIP3   OH241657   2.884   5.158   7.666
13905TIP3    H141658   2.961   5.132   7.718
13905TIP3    H241659   2.887   5.256   7.673
13906TIP3   OH241660   2.616   4.848   7.869
13906TIP3    H141661   2.551   4.897   7.924
13906TIP3    H241662   2.633   4.915   7.800
13907TIP3   OH241663   3.661   4.235   7.928
13907TIP3    H141664   3.646   4.259   7.835
13907TIP3    H241665   3.699   4.318   7.965
13908TIP3   OH241666   3.152   5.353   7.611
13908TIP3    H141667   3.066   5.378   7.649
13908TIP3    H241668   3.168   5.429   7.552
13909TIP3   OH241669   3.335   4.420   8.005
13909TIP3    H141670   3.397   4.493   7.983
13909TIP3    H241671   3.355   4.411   8.101
13910TIP3   OH241672   3.483   4.143   8.117
13910TIP3    H141673   3.467   4.224   8.171
13910TIP3    H241674   3.551   4.178   8.054
13911TIP3   OH241675   2.899   5.430   7.682
13911TIP3    H141676   2.870   5.501   7.620
13911TIP3    H241677   2.883   5.473   7.769
13912TIP3   OH241678   3.006   4.106   7.907
13912TIP3    H141679   2.970   4.169   7.973
13912TIP3    H241680   3.102   4.125   7.919
13913TIP3   OH241681   3.914   4.780   8.176
13913TIP3    H141682   3.833   4.789   8.228
13913TIP3    H241683   3.981   4.760   8.245
13914TIP3   OH241684   2.617   5.053   7.672
13914TIP3    H141685   2.689   5.119   7.681
13914TIP3    H241686   2.659   4.994   7.606
13915TIP3   OH241687   2.554   4.327   7.796
13915TIP3    H141688   2.564   4.424   7.804
13915TIP3    H241689   2.467   4.320   7.756
13916TIP3   OH241690   3.869   5.810   8.148
13916TIP3    H141691   3.827   5.859   8.075
13916TIP3    H241692   3.964   5.825   8.126
13917TIP3   OH241693   2.478   5.269   8.056
13917TIP3    H141694   2.416   5.304   8.121
13917TIP3    H241695   2.446   5.314   7.974
13918TIP3   OH241696   3.104   5.355   7.300
13918TIP3    H141697   3.050   5.283   7.340
13918TIP3    H241698   3.180   5.304   7.266
13919TIP3   OH241699   3.539   5.392   7.218
13919TIP3    H141700   3.578   5.326   7.279
13919TIP3    H241701   3.598   5.386   7.140
13920TIP3   OH241702   2.753   4.867   7.530
13920TIP3    H141703   2.812   4.841   7.603
13920TIP3    H241704   2.818   4.873   7.457
13921TIP3   OH241705   3.266   5.071   7.333
13921TIP3    H141706   3.269   5.083   7.430
13921TIP3    H241707   3.266   4.973   7.328
13922TIP3   OH241708   3.859   5.291   8.676
13922TIP3    H141709   3.950   5.324   8.662
13922TIP3    H241710   3.813   5.375   8.694
13923TIP3   OH241711   2.949   4.780   7.742
13923TIP3    H141712   2.928   4.744   7.830
13923TIP3    H241713   2.991   4.705   7.697
13924TIP3   OH241714   3.063   4.574   7.588
13924TIP3    H141715   3.037   4.584   7.494
13924TIP3    H241716   3.161   4.578   7.580
13925TIP3   OH241717   3.864   4.904   7.250
13925TIP3    H141718   3.849   4.857   7.166
13925TIP3    H241719   3.832   4.993   7.226
13926TIP3   OH241720   2.871   5.635   7.497
13926TIP3    H141721   2.966   5.625   7.474
13926TIP3    H241722   2.841   5.684   7.419
13927TIP3   OH241723   2.348   5.014   7.709
13927TIP3    H141724   2.442   5.036   7.692
13927TIP3    H241725   2.340   4.926   7.666
13928TIP3   OH241726   2.267   5.628   8.115
13928TIP3    H141727   2.198   5.567   8.081
13928TIP3    H241728   2.309   5.572   8.183
13929TIP3   OH241729   2.398   5.480   8.304
13929TIP3    H141730   2.381   5.415   8.373
13929TIP3    H241731   2.451   5.547   8.353
13930TIP3   OH241732   4.126   5.897   8.109
13930TIP3    H141733   4.160   5.912   8.199
13930TIP3    H241734   4.205   5.907   8.054
13931TIP3   OH241735   4.164   5.903   8.391
13931TIP3    H141736   4.113   5.819   8.389
13931TIP3    H241737   4.237   5.873   8.448
13932TIP3   OH241738   4.015   5.093   7.587
13932TIP3    H141739   4.084   5.153   7.553
13932TIP3    H241740   4.062   5.052   7.663
13933TIP3   OH241741   4.148   4.960   7.788
13933TIP3    H141742   4.076   4.918   7.840
13933TIP3    H241743   4.202   5.002   7.858
13934TIP3   OH241744   4.215   5.357   8.224
13934TIP3    H141745   4.250   5.277   8.179
13934TIP3    H241746   4.136   5.375   8.168
13935TIP3   OH241747   4.041   5.664   8.429
13935TIP3    H141748   3.969   5.698   8.484
13935TIP3    H241749   3.989   5.617   8.360
13936TIP3   OH241750   4.066   4.865   7.429
13936TIP3    H141751   3.997   4.876   7.361
13936TIP3    H241752   4.046   4.941   7.487
13937TIP3   OH241753   3.865   4.533   7.401
13937TIP3    H141754   3.940   4.592   7.381
13937TIP3    H241755   3.896   4.447   7.367
13938TIP3   OH241756   3.956   4.815   7.915
13938TIP3    H141757   3.964   4.718   7.913
13938TIP3    H241758   3.942   4.828   8.012
13939TIP3   OH241759   4.212   5.226   8.782
13939TIP3    H141760   4.300   5.184   8.777
13939TIP3    H241761   4.227   5.312   8.742
13940TIP3   OH241762   4.419   5.044   8.792
13940TIP3    H141763   4.355   4.994   8.845
13940TIP3    H241764   4.495   4.986   8.795
13941TIP3   OH241765   3.911   4.249   7.345
13941TIP3    H141766   3.980   4.241   7.414
13941TIP3    H241767   3.831   4.220   7.391
13942TIP3   OH241768   3.946   4.525   7.830
13942TIP3    H141769   3.991   4.437   7.842
13942TIP3    H241770   4.005   4.564   7.763
13943TIP3   OH241771   4.118   4.694   8.343
13943TIP3    H141772   4.200   4.719   8.295
13943TIP3    H241773   4.132   4.742   8.427
13944TIP3   OH241774   4.185   4.853   8.566
13944TIP3    H141775   4.109   4.891   8.614
13944TIP3    H241776   4.218   4.932   8.519
13945TIP3   OH241777   4.064   4.280   7.865
13945TIP3    H141778   4.116   4.263   7.946
13945TIP3    H241779   4.005   4.202   7.864
13946TIP3   OH241780   4.143   4.221   7.495
13946TIP3    H141781   4.191   4.150   7.449
13946TIP3    H241782   4.204   4.297   7.483
13947TIP3   OH241783   2.563   4.038   8.263
13947TIP3    H141784   2.477   4.067   8.294
13947TIP3    H241785   2.571   4.088   8.179
13948TIP3   OH241786   3.710   5.753   7.768
13948TIP3    H141787   3.755   5.734   7.683
13948TIP3    H241788   3.778   5.804   7.814
13949TIP3   OH241789   2.981   5.599   8.698
13949TIP3    H141790   2.962   5.679   8.643
13949TIP3    H241791   3.072   5.581   8.666
13950TIP3   OH241792   3.594   5.978   8.665
13950TIP3    H141793   3.681   5.940   8.653
13950TIP3    H241794   3.604   6.021   8.754
13951TIP3   OH241795   2.893   5.829   8.578
13951TIP3    H141796   2.800   5.844   8.601
13951TIP3    H241797   2.892   5.853   8.483
13952TIP3   OH241798   3.331   5.846   8.380
13952TIP3    H141799   3.261   5.859   8.313
13952TIP3    H241800   3.339   5.935   8.418
13953TIP3   OH241801   3.602   5.774   8.433
13953TIP3    H141802   3.507   5.787   8.414
13953TIP3    H241803   3.640   5.851   8.390
13954TIP3   OH241804   3.810   5.982   8.349
13954TIP3    H141805   3.786   6.061   8.297
13954TIP3    H241806   3.830   5.917   8.277
13955TIP3   OH241807   2.591   5.638   8.439
13955TIP3    H141808   2.616   5.600   8.526
13955TIP3    H241809   2.660   5.595   8.384
13956TIP3   OH241810   2.782   5.505   8.304
13956TIP3    H141811   2.794   5.421   8.354
13956TIP3    H241812   2.873   5.542   8.308
13957TIP3   OH241813   3.041   5.594   8.328
13957TIP3    H141814   3.069   5.500   8.320
13957TIP3    H241815   3.092   5.619   8.408
13958TIP3   OH241816   3.646   4.273   8.436
13958TIP3    H141817   3.564   4.223   8.449
13958TIP3    H241818   3.698   4.216   8.376
13959TIP3   OH241819   4.129   4.142   8.324
13959TIP3    H141820   4.165   4.190   8.246
13959TIP3    H241821   4.033   4.156   8.313
13960TIP3   OH241822   4.227   4.226   8.084
13960TIP3    H141823   4.301   4.175   8.045
13960TIP3    H241824   4.262   4.317   8.070
13961TIP3   OH241825   3.305   4.020   8.293
13961TIP3    H141826   3.367   4.051   8.224
13961TIP3    H241827   3.334   4.079   8.367
13962TIP3   OH241828   3.847   4.135   8.290
13962TIP3    H141829   3.851   4.100   8.201
13962TIP3    H241830   3.822   4.056   8.343
13963TIP3   OH241831   3.880   4.068   7.857
13963TIP3    H141832   3.797   4.116   7.877
13963TIP3    H241833   3.864   3.983   7.902
13964TIP3   OH241834   2.362   5.408   7.857
13964TIP3    H141835   2.276   5.376   7.822
13964TIP3    H241836   2.354   5.502   7.836
13965TIP3   OH241837   3.269   4.165   7.940
13965TIP3    H141838   3.339   4.128   7.998
13965TIP3    H241839   3.285   4.261   7.958
13966TIP3   OH241840   3.137   5.587   7.441
13966TIP3    H141841   3.225   5.610   7.404
13966TIP3    H241842   3.114   5.513   7.381
13967TIP3   OH241843   3.854   5.711   7.536
13967TIP3    H141844   3.847   5.613   7.525
13967TIP3    H241845   3.808   5.741   7.455
13968TIP3   OH241846   2.436   5.424   7.488
13968TIP3    H141847   2.446   5.444   7.582
13968TIP3    H241848   2.524   5.383   7.467
13969TIP3   OH241849   4.071   5.841   8.715
13969TIP3    H141850   3.992   5.824   8.660
13969TIP3    H241851   4.063   5.938   8.728
13970TIP3   OH241852   5.349   5.232   7.481
13970TIP3    H141853   5.314   5.321   7.457
13970TIP3    H241854   5.275   5.177   7.451
13971TIP3   OH241855   5.352   5.230   7.871
13971TIP3    H141856   5.385   5.205   7.960
13971TIP3    H241857   5.307   5.148   7.844
13972TIP3   OH241858   4.647   5.120   8.226
13972TIP3    H141859   4.673   5.051   8.290
13972TIP3    H241860   4.728   5.173   8.221
13973TIP3   OH241861   5.599   5.529   7.552
13973TIP3    H141862   5.569   5.460   7.613
13973TIP3    H241863   5.618   5.604   7.611
13974TIP3   OH241864   4.623   5.539   7.957
13974TIP3    H141865   4.614   5.441   7.956
13974TIP3    H241866   4.719   5.546   7.947
13975TIP3   OH241867   4.325   4.735   7.734
13975TIP3    H141868   4.260   4.807   7.749
13975TIP3    H241869   4.298   4.701   7.647
13976TIP3   OH241870   4.389   5.027   7.923
13976TIP3    H141871   4.434   4.944   7.952
13976TIP3    H241872   4.427   5.041   7.835
13977TIP3   OH241873   5.246   5.993   7.570
13977TIP3    H141874   5.287   5.922   7.516
13977TIP3    H241875   5.227   5.946   7.652
13978TIP3   OH241876   5.143   5.456   7.916
13978TIP3    H141877   5.181   5.379   7.871
13978TIP3    H241878   5.226   5.500   7.942
13979TIP3   OH241879   6.160   4.771   7.915
13979TIP3    H141880   6.189   4.854   7.958
13979TIP3    H241881   6.199   4.778   7.826
13980TIP3   OH241882   5.562   4.954   7.943
13980TIP3    H141883   5.602   4.867   7.964
13980TIP3    H241884   5.526   4.936   7.854
13981TIP3   OH241885   4.903   4.614   7.909
13981TIP3    H141886   4.878   4.686   7.847
13981TIP3    H241887   4.855   4.539   7.867
13982TIP3   OH241888   5.592   4.707   7.531
13982TIP3    H141889   5.663   4.692   7.597
13982TIP3    H241890   5.646   4.741   7.456
13983TIP3   OH241891   4.525   4.810   8.022
13983TIP3    H141892   4.610   4.794   8.066
13983TIP3    H241893   4.538   4.756   7.941
13984TIP3   OH241894   4.967   5.014   7.816
13984TIP3    H141895   5.061   4.989   7.828
13984TIP3    H241896   4.927   4.930   7.784
13985TIP3   OH241897   6.224   4.989   8.078
13985TIP3    H141898   6.138   5.036   8.071
13985TIP3    H241899   6.255   5.018   8.166
13986TIP3   OH241900   4.894   4.603   8.342
13986TIP3    H141901   4.838   4.633   8.267
13986TIP3    H241902   4.841   4.635   8.417
13987TIP3   OH241903   5.237   5.450   7.352
13987TIP3    H141904   5.193   5.432   7.267
13987TIP3    H241905   5.189   5.531   7.380
13988TIP3   OH241906   4.999   5.376   8.138
13988TIP3    H141907   4.937   5.444   8.173
13988TIP3    H241908   5.040   5.423   8.062
13989TIP3   OH241909   5.794   4.714   7.712
13989TIP3    H141910   5.780   4.664   7.793
13989TIP3    H241911   5.850   4.788   7.742
13990TIP3   OH241912   4.765   4.711   8.125
13990TIP3    H141913   4.826   4.785   8.150
13990TIP3    H241914   4.815   4.673   8.049
13991TIP3   OH241915   4.827   5.571   8.239
13991TIP3    H141916   4.801   5.658   8.201
13991TIP3    H241917   4.747   5.554   8.294
13992TIP3   OH241918   4.214   5.258   7.474
13992TIP3    H141919   4.176   5.285   7.388
13992TIP3    H241920   4.251   5.342   7.507
13993TIP3   OH241921   5.666   5.776   7.717
13993TIP3    H141922   5.577   5.765   7.759
13993TIP3    H241923   5.651   5.860   7.669
13994TIP3   OH241924   5.950   4.675   8.082
13994TIP3    H141925   5.863   4.695   8.044
13994TIP3    H241926   6.011   4.705   8.011
13995TIP3   OH241927   5.245   4.311   8.065
13995TIP3    H141928   5.228   4.217   8.082
13995TIP3    H241929   5.168   4.351   8.111
13996TIP3   OH241930   5.359   5.818   7.388
13996TIP3    H141931   5.408   5.735   7.369
13996TIP3    H241932   5.421   5.883   7.347
13997TIP3   OH241933   5.505   5.604   7.303
13997TIP3    H141934   5.461   5.525   7.266
13997TIP3    H241935   5.545   5.567   7.384
13998TIP3   OH241936   5.877   5.685   8.048
13998TIP3    H141937   5.857   5.604   7.995
13998TIP3    H241938   5.843   5.757   7.992
13999TIP3   OH241939   5.179   5.081   7.321
13999TIP3    H141940   5.097   5.131   7.303
13999TIP3    H241941   5.221   5.077   7.233
14000TIP3   OH241942   5.135   4.870   7.026
14000TIP3    H141943   5.203   4.920   7.076
14000TIP3    H241944   5.193   4.805   6.980
14001TIP3   OH241945   5.527   5.164   7.285
14001TIP3    H141946   5.471   5.188   7.363
14001TIP3    H241947   5.610   5.139   7.330
14002TIP3   OH241948   5.747   5.181   8.199
14002TIP3    H141949   5.758   5.260   8.257
14002TIP3    H241950   5.659   5.200   8.160
14003TIP3   OH241951   4.755   5.156   7.703
14003TIP3    H141952   4.713   5.096   7.639
14003TIP3    H241953   4.831   5.103   7.735
14004TIP3   OH241954   4.889   5.576   7.850
14004TIP3    H141955   4.865   5.538   7.763
14004TIP3    H241956   4.976   5.535   7.867
14005TIP3   OH241957   4.902   5.127   8.064
14005TIP3    H141958   4.926   5.105   7.972
14005TIP3    H241959   4.939   5.216   8.076
14006TIP3   OH241960   5.427   5.768   7.841
14006TIP3    H141961   5.409   5.846   7.897
14006TIP3    H241962   5.407   5.693   7.900
14007TIP3   OH241963   5.031   5.687   8.384
14007TIP3    H141964   4.967   5.747   8.428
14007TIP3    H241965   4.969   5.632   8.331
14008TIP3   OH241966   5.363   5.020   7.115
14008TIP3    H141967   5.422   5.081   7.164
14008TIP3    H241968   5.390   5.041   7.022
14009TIP3   OH241969   4.790   5.239   8.480
14009TIP3    H141970   4.785   5.327   8.521
14009TIP3    H241971   4.696   5.212   8.488
14010TIP3   OH241972   5.113   5.695   7.391
14010TIP3    H141973   5.194   5.750   7.397
14010TIP3    H241974   5.051   5.753   7.345
14011TIP3   OH241975   4.821   5.839   8.468
14011TIP3    H141976   4.785   5.849   8.378
14011TIP3    H241977   4.741   5.834   8.524
14012TIP3   OH241978   5.880   4.257   7.166
14012TIP3    H141979   5.799   4.280   7.215
14012TIP3    H241980   5.895   4.340   7.114
14013TIP3   OH241981   4.626   4.994   7.512
14013TIP3    H141982   4.562   5.050   7.462
14013TIP3    H241983   4.580   4.909   7.513
14014TIP3   OH241984   5.682   5.626   6.715
14014TIP3    H141985   5.690   5.722   6.698
14014TIP3    H241986   5.774   5.596   6.702
14015TIP3   OH241987   4.407   5.395   8.422
14015TIP3    H141988   4.339   5.382   8.351
14015TIP3    H241989   4.443   5.304   8.433
14016TIP3   OH241990   4.262   5.603   8.018
14016TIP3    H141991   4.344   5.552   8.032
14016TIP3    H241992   4.254   5.649   8.104
14017TIP3   OH241993   5.220   5.816   8.236
14017TIP3    H141994   5.219   5.907   8.272
14017TIP3    H241995   5.152   5.773   8.292
14018TIP3   OH241996   4.995   5.943   7.194
14018TIP3    H141997   4.945   5.924   7.113
14018TIP3    H241998   4.958   6.030   7.221
14019TIP3   OH241999   4.430   5.791   7.579
14019TIP3    H142000   4.473   5.782   7.667
14019TIP3    H242001   4.384   5.705   7.571
14020TIP3   OH242002   5.191   5.848   6.830
14020TIP3    H142003   5.249   5.777   6.795
14020TIP3    H242004   5.226   5.858   6.921
14021TIP3   OH242005   5.245   5.896   7.099
14021TIP3    H142006   5.156   5.906   7.140
14021TIP3    H242007   5.294   5.855   7.172
14022TIP3   OH242008   6.037   5.164   8.346
14022TIP3    H142009   5.945   5.191   8.359
14022TIP3    H242010   6.032   5.067   8.344
14023TIP3   OH242011   4.608   5.576   8.405
14023TIP3    H142012   4.652   5.552   8.489
14023TIP3    H242013   4.531   5.515   8.408
14024TIP3   OH242014   5.008   4.391   8.193
14024TIP3    H142015   4.920   4.361   8.162
14024TIP3    H242016   4.982   4.472   8.241
14025TIP3   OH242017   5.542   4.509   8.388
14025TIP3    H142018   5.607   4.477   8.453
14025TIP3    H242019   5.456   4.490   8.432
14026TIP3   OH242020   5.775   4.934   8.309
14026TIP3    H142021   5.723   4.936   8.393
14026TIP3    H242022   5.754   5.021   8.269
14027TIP3   OH242023   5.442   5.062   6.860
14027TIP3    H142024   5.405   5.040   6.772
14027TIP3    H242025   5.527   5.103   6.835
14028TIP3   OH242026   5.153   4.438   7.163
14028TIP3    H142027   5.118   4.436   7.255
14028TIP3    H242028   5.111   4.357   7.128
14029TIP3   OH242029   4.942   4.905   8.211
14029TIP3    H142030   4.890   4.927   8.291
14029TIP3    H242031   4.929   4.987   8.158
14030TIP3   OH242032   4.822   4.797   7.727
14030TIP3    H142033   4.729   4.772   7.743
14030TIP3    H242034   4.836   4.755   7.639
14031TIP3   OH242035   5.316   4.882   7.456
14031TIP3    H142036   5.265   4.952   7.411
14031TIP3    H242037   5.370   4.846   7.383
14032TIP3   OH242038   5.472   5.155   8.530
14032TIP3    H142039   5.464   5.086   8.599
14032TIP3    H242040   5.557   5.197   8.551
14033TIP3   OH242041   5.471   4.906   7.688
14033TIP3    H142042   5.406   4.931   7.619
14033TIP3    H242043   5.508   4.826   7.644
14034TIP3   OH242044   4.762   4.939   8.417
14034TIP3    H142045   4.788   5.005   8.483
14034TIP3    H242046   4.747   4.860   8.471
14035TIP3   OH242047   4.806   4.416   7.128
14035TIP3    H142048   4.797   4.411   7.225
14035TIP3    H242049   4.732   4.475   7.105
14036TIP3   OH242050   4.357   4.447   8.006
14036TIP3    H142051   4.428   4.488   8.060
14036TIP3    H242052   4.395   4.446   7.917
14037TIP3   OH242053   5.475   5.151   8.106
14037TIP3    H142054   5.514   5.080   8.049
14037TIP3    H242055   5.445   5.097   8.182
14038TIP3   OH242056   5.159   4.613   7.784
14038TIP3    H142057   5.075   4.613   7.834
14038TIP3    H242058   5.225   4.608   7.855
14039TIP3   OH242059   4.583   4.673   7.790
14039TIP3    H142060   4.490   4.684   7.761
14039TIP3    H242061   4.605   4.585   7.756
14040TIP3   OH242062   4.856   4.667   7.491
14040TIP3    H142063   4.949   4.682   7.464
14040TIP3    H242064   4.806   4.687   7.409
14041TIP3   OH242065   5.644   4.691   7.988
14041TIP3    H142066   5.611   4.705   8.080
14041TIP3    H242067   5.575   4.630   7.955
14042TIP3   OH242068   4.709   4.701   7.270
14042TIP3    H142069   4.623   4.664   7.246
14042TIP3    H242070   4.744   4.728   7.183
14043TIP3   OH242071   4.747   5.483   8.632
14043TIP3    H142072   4.834   5.511   8.664
14043TIP3    H242073   4.712   5.433   8.708
14044TIP3   OH242074   5.232   4.947   7.884
14044TIP3    H142075   5.304   4.903   7.836
14044TIP3    H242076   5.235   4.903   7.971
14045TIP3   OH242077   4.760   4.428   7.767
14045TIP3    H142078   4.718   4.353   7.814
14045TIP3    H242079   4.787   4.387   7.684
14046TIP3   OH242080   5.210   4.846   8.167
14046TIP3    H142081   5.119   4.878   8.184
14046TIP3    H242082   5.265   4.909   8.218
14047TIP3   OH242083   4.948   5.231   7.268
14047TIP3    H142084   4.877   5.164   7.256
14047TIP3    H242085   4.926   5.265   7.359
14048TIP3   OH242086   5.852   5.462   7.887
14048TIP3    H142087   5.869   5.486   7.794
14048TIP3    H242088   5.767   5.413   7.878
14049TIP3   OH242089   5.404   4.540   7.136
14049TIP3    H142090   5.307   4.519   7.144
14049TIP3    H242091   5.408   4.635   7.161
14050TIP3   OH242092   5.347   5.559   8.264
14050TIP3    H142093   5.347   5.527   8.355
14050TIP3    H242094   5.299   5.643   8.273
14051TIP3   OH242095   5.471   4.793   7.238
14051TIP3    H142096   5.567   4.799   7.250
14051TIP3    H242097   5.450   4.873   7.185
14052TIP3   OH242098   4.651   5.267   7.940
14052TIP3    H142099   4.681   5.229   7.855
14052TIP3    H242100   4.669   5.196   8.003
14053TIP3   OH242101   5.092   5.381   7.093
14053TIP3    H142102   5.043   5.467   7.095
14053TIP3    H242103   5.037   5.326   7.152
14054TIP3   OH242104   4.529   5.170   8.539
14054TIP3    H142105   4.547   5.165   8.634
14054TIP3    H242106   4.447   5.117   8.531
14055TIP3   OH242107   5.231   5.291   8.559
14055TIP3    H142108   5.174   5.222   8.522
14055TIP3    H242109   5.320   5.251   8.547
14056TIP3   OH242110   5.502   5.819   8.150
14056TIP3    H142111   5.406   5.805   8.164
14056TIP3    H242112   5.529   5.853   8.238
14057TIP3   OH242113   5.912   4.887   7.069
14057TIP3    H142114   5.851   4.842   7.005
14057TIP3    H242115   5.909   4.976   7.028
14058TIP3   OH242116   6.138   5.677   8.114
14058TIP3    H142117   6.040   5.690   8.103
14058TIP3    H242118   6.175   5.751   8.066
14059TIP3   OH242119   5.623   5.702   6.981
14059TIP3    H142120   5.588   5.632   7.039
14059TIP3    H242121   5.631   5.656   6.895
14060TIP3   OH242122   5.616   5.328   7.812
14060TIP3    H142123   5.522   5.306   7.827
14060TIP3    H242124   5.646   5.247   7.766
14061TIP3   OH242125   4.742   5.561   7.571
14061TIP3    H142126   4.735   5.641   7.515
14061TIP3    H242127   4.649   5.536   7.580
14062TIP3   OH242128   4.874   5.323   7.511
14062TIP3    H142129   4.840   5.413   7.532
14062TIP3    H242130   4.836   5.270   7.583
14063TIP3   OH242131   5.012   5.901   8.035
14063TIP3    H142132   5.056   5.972   7.984
14063TIP3    H242133   5.088   5.861   8.081
14064TIP3   OH242134   4.658   5.798   7.419
14064TIP3    H142135   4.573   5.806   7.467
14064TIP3    H242136   4.690   5.891   7.422
14065TIP3   OH242137   5.396   5.537   7.998
14065TIP3    H142138   5.384   5.538   8.096
14065TIP3    H242139   5.471   5.477   7.989
14066TIP3   OH242140   5.376   5.435   6.879
14066TIP3    H142141   5.428   5.408   6.958
14066TIP3    H242142   5.288   5.402   6.903
14067TIP3   OH242143   5.635   6.073   8.050
14067TIP3    H142144   5.560   6.009   8.041
14067TIP3    H242145   5.619   6.132   7.973
14068TIP3   OH242146   5.711   5.902   6.697
14068TIP3    H142147   5.744   5.974   6.640
14068TIP3    H242148   5.632   5.945   6.734
14069TIP3   OH242149   4.711   4.676   8.542
14069TIP3    H142150   4.616   4.699   8.551
14069TIP3    H242151   4.705   4.579   8.550
14070TIP3   OH242152   5.536   5.365   7.093
14070TIP3    H142153   5.525   5.298   7.163
14070TIP3    H242154   5.633   5.360   7.080
14071TIP3   OH242155   4.446   5.767   8.197
14071TIP3    H142156   4.498   5.689   8.220
14071TIP3    H242157   4.482   5.833   8.257
14072TIP3   OH242158   4.738   5.409   6.879
14072TIP3    H142159   4.749   5.315   6.853
14072TIP3    H242160   4.715   5.400   6.973
14073TIP3   OH242161   4.678   5.416   7.149
14073TIP3    H142162   4.748   5.384   7.207
14073TIP3    H242163   4.685   5.513   7.160
14074TIP3   OH242164   4.443   5.135   7.369
14074TIP3    H142165   4.360   5.155   7.415
14074TIP3    H242166   4.436   5.196   7.293
14075TIP3   OH242167   5.571   4.745   8.248
14075TIP3    H142168   5.653   4.782   8.284
14075TIP3    H242169   5.559   4.663   8.302
14076TIP3   OH242170   5.454   4.488   7.417
14076TIP3    H142171   5.437   4.510   7.323
14076TIP3    H242172   5.492   4.572   7.451
14077TIP3   OH242173   4.952   5.613   7.099
14077TIP3    H142174   4.864   5.635   7.136
14077TIP3    H242175   4.964   5.687   7.038
14078TIP3   OH242176   5.142   4.676   7.514
14078TIP3    H142177   5.204   4.750   7.500
14078TIP3    H242178   5.144   4.668   7.612
14079TIP3   OH242179   5.405   4.990   8.313
14079TIP3    H142180   5.427   5.043   8.392
14079TIP3    H242181   5.460   4.910   8.324
14080TIP3   OH242182   5.277   4.395   7.615
14080TIP3    H142183   5.263   4.476   7.668
14080TIP3    H242184   5.341   4.428   7.548
14081TIP3   OH242185   4.699   5.688   7.170
14081TIP3    H142186   4.667   5.758   7.108
14081TIP3    H242187   4.680   5.729   7.257
14082TIP3   OH242188   4.795   4.402   7.401
14082TIP3    H142189   4.781   4.489   7.442
14082TIP3    H242190   4.892   4.393   7.413
14083TIP3   OH242191   6.040   4.883   8.302
14083TIP3    H142192   5.942   4.889   8.307
14083TIP3    H242193   6.050   4.824   8.226
14084TIP3   OH242194   5.697   5.085   7.688
14084TIP3    H142195   5.618   5.028   7.700
14084TIP3    H242196   5.765   5.036   7.739
14085TIP3   OH242197   4.411   5.316   7.152
14085TIP3    H142198   4.486   5.377   7.162
14085TIP3    H242199   4.451   5.253   7.088
14086TIP3   OH242200   5.661   6.041   7.634
14086TIP3    H142201   5.617   6.088   7.559
14086TIP3    H242202   5.755   6.059   7.613
14087TIP3   OH242203   4.742   4.315   8.162
14087TIP3    H142204   4.713   4.282   8.074
14087TIP3    H242205   4.731   4.236   8.218
14088TIP3   OH242206   4.284   5.540   7.543
14088TIP3    H142207   4.221   5.561   7.613
14088TIP3    H242208   4.241   5.581   7.463
14089TIP3   OH242209   4.447   6.064   8.587
14089TIP3    H142210   4.526   6.020   8.625
14089TIP3    H242211   4.383   5.991   8.594
14090TIP3   OH242212   4.900   5.610   6.788
14090TIP3    H142213   4.845   5.538   6.826
14090TIP3    H242214   4.976   5.559   6.754
14091TIP3   OH242215   5.547   5.909   8.407
14091TIP3    H142216   5.545   5.858   8.489
14091TIP3    H242217   5.616   5.975   8.426
14092TIP3   OH242218   5.336   5.649   6.705
14092TIP3    H142219   5.372   5.581   6.764
14092TIP3    H242220   5.393   5.643   6.626
14093TIP3   OH242221   4.546   5.127   7.012
14093TIP3    H142222   4.598   5.096   7.088
14093TIP3    H242223   4.616   5.132   6.944
14094TIP3   OH242224   5.219   5.566   8.561
14094TIP3    H142225   5.143   5.590   8.506
14094TIP3    H242226   5.214   5.469   8.568
14095TIP3   OH242227   5.069   5.330   6.822
14095TIP3    H142228   5.066   5.340   6.920
14095TIP3    H242229   5.067   5.232   6.815
14096TIP3   OH242230   5.665   5.575   8.199
14096TIP3    H142231   5.740   5.624   8.162
14096TIP3    H242232   5.591   5.637   8.185
14097TIP3   OH242233   4.708   5.185   8.776
14097TIP3    H142234   4.799   5.153   8.763
14097TIP3    H242235   4.692   5.161   8.869
14098TIP3   OH242236   4.758   5.034   7.235
14098TIP3    H142237   4.722   4.995   7.316
14098TIP3    H242238   4.792   4.955   7.187
14099TIP3   OH242239   5.027   5.096   8.463
14099TIP3    H142240   4.948   5.154   8.461
14099TIP3    H242241   5.075   5.128   8.382
14100TIP3   OH242242   4.855   4.831   7.067
14100TIP3    H142243   4.831   4.842   6.973
14100TIP3    H242244   4.953   4.834   7.062
14101TIP3   OH242245   5.674   5.156   6.742
14101TIP3    H142246   5.656   5.112   6.657
14101TIP3    H242247   5.641   5.246   6.721
14102TIP3   OH242248   5.152   4.889   8.588
14102TIP3    H142249   5.152   4.811   8.529
14102TIP3    H242250   5.107   4.956   8.532
14103TIP3   OH242251   5.151   4.678   8.396
14103TIP3    H142252   5.180   4.718   8.312
14103TIP3    H242253   5.059   4.653   8.375
14104TIP3   OH242254   5.170   5.203   8.263
14104TIP3    H142255   5.256   5.220   8.224
14104TIP3    H242256   5.113   5.270   8.220
14105TIP3   OH242257   5.791   5.390   8.360
14105TIP3    H142258   5.734   5.460   8.320
14105TIP3    H242259   5.880   5.427   8.339
14106TIP3   OH242260   4.970   5.006   8.795
14106TIP3    H142261   4.928   4.917   8.793
14106TIP3    H242262   5.041   4.994   8.730
14107TIP3   OH242263   5.283   4.437   8.463
14107TIP3    H142264   5.231   4.518   8.444
14107TIP3    H242265   5.215   4.367   8.454
14108TIP3   OH242266   5.408   4.934   8.683
14108TIP3    H142267   5.394   4.915   8.776
14108TIP3    H242268   5.319   4.912   8.647
14109TIP3   OH242269   5.638   4.891   8.540
14109TIP3    H142270   5.552   4.896   8.587
14109TIP3    H242271   5.694   4.849   8.606
14110TIP3   OH242272   4.868   4.750   8.848
14110TIP3    H142273   4.935   4.702   8.796
14110TIP3    H242274   4.906   4.739   8.936
14111TIP3   OH242275   5.396   4.436   8.716
14111TIP3    H142276   5.457   4.362   8.705
14111TIP3    H242277   5.347   4.437   8.632
14112TIP3   OH242278   4.667   5.893   6.983
14112TIP3    H142279   4.762   5.881   6.961
14112TIP3    H242280   4.638   5.943   6.905
14113TIP3   OH242281   4.143   5.275   7.190
14113TIP3    H142282   4.238   5.296   7.176
14113TIP3    H242283   4.137   5.185   7.152
14114TIP3   OH242284   4.056   5.884   7.614
14114TIP3    H142285   3.993   5.820   7.574
14114TIP3    H242286   4.103   5.825   7.677
14115TIP3   OH242287   4.191   5.735   7.795
14115TIP3    H142288   4.191   5.664   7.862
14115TIP3    H242289   4.244   5.800   7.844
14116TIP3   OH242290   5.922   6.110   7.599
14116TIP3    H142291   5.951   6.148   7.684
14116TIP3    H242292   5.974   6.159   7.534
14117TIP3   OH242293   5.983   6.132   7.881
14117TIP3    H142294   5.926   6.050   7.879
14117TIP3    H242295   5.955   6.170   7.967
14118TIP3   OH242296   5.814   5.343   7.071
14118TIP3    H142297   5.880   5.409   7.040
14118TIP3    H242298   5.860   5.306   7.150
14119TIP3   OH242299   5.943   5.212   7.278
14119TIP3    H142300   5.874   5.168   7.333
14119TIP3    H242301   6.006   5.245   7.345
14120TIP3   OH242302   6.009   5.567   7.666
14120TIP3    H142303   6.022   5.568   7.570
14120TIP3    H242304   5.976   5.658   7.676
14121TIP3   OH242305   5.818   5.916   7.904
14121TIP3    H142306   5.750   5.955   7.962
14121TIP3    H242307   5.764   5.874   7.833
14122TIP3   OH242308   5.878   5.120   6.921
14122TIP3    H142309   5.806   5.120   6.853
14122TIP3    H242310   5.848   5.196   6.975
14123TIP3   OH242311   5.749   4.792   6.874
14123TIP3    H142312   5.704   4.825   6.796
14123TIP3    H242313   5.727   4.696   6.868
14124TIP3   OH242314   5.754   5.070   7.419
14124TIP3    H142315   5.758   4.973   7.408
14124TIP3    H242316   5.737   5.079   7.516
14125TIP3   OH242317   4.378   5.124   8.179
14125TIP3    H142318   4.372   5.098   8.084
14125TIP3    H242319   4.475   5.131   8.189
14126TIP3   OH242320   6.032   5.473   8.265
14126TIP3    H142321   6.111   5.433   8.306
14126TIP3    H242322   6.071   5.541   8.208
14127TIP3   OH242323   6.259   5.311   8.314
14127TIP3    H142324   6.176   5.261   8.332
14127TIP3    H242325   6.321   5.235   8.312
14128TIP3   OH242326   5.692   4.526   6.859
14128TIP3    H142327   5.763   4.492   6.915
14128TIP3    H242328   5.617   4.467   6.877
14129TIP3   OH242329   5.753   4.789   7.312
14129TIP3    H142330   5.793   4.700   7.327
14129TIP3    H242331   5.810   4.819   7.239
14130TIP3   OH242332   5.917   4.963   7.812
14130TIP3    H142333   6.000   4.999   7.776
14130TIP3    H242334   5.922   4.998   7.903
14131TIP3   OH242335   5.968   5.121   8.038
14131TIP3    H142336   5.898   5.120   8.106
14131TIP3    H242337   5.958   5.212   8.008
14132TIP3   OH242338   5.858   4.537   7.353
14132TIP3    H142339   5.906   4.519   7.437
14132TIP3    H242340   5.797   4.461   7.350
14133TIP3   OH242341   4.559   4.525   8.180
14133TIP3    H142342   4.620   4.448   8.182
14133TIP3    H242343   4.622   4.598   8.164
14134TIP3   OH242344   4.360   4.792   8.251
14134TIP3    H142345   4.408   4.788   8.166
14134TIP3    H242346   4.370   4.886   8.273
14135TIP3   OH242347   6.286   4.832   8.408
14135TIP3    H142348   6.194   4.858   8.388
14135TIP3    H242349   6.292   4.746   8.362
14136TIP3   OH242350   5.936   4.465   6.990
14136TIP3    H142351   5.975   4.396   6.932
14136TIP3    H242352   6.003   4.536   6.985
14137TIP3   OH242353   4.346   4.311   7.721
14137TIP3    H142354   4.253   4.310   7.747
14137TIP3    H242355   4.345   4.377   7.646
14138TIP3   OH242356   5.506   5.999   7.253
14138TIP3    H142357   5.558   5.992   7.171
14138TIP3    H242358   5.552   6.070   7.301
14139TIP3   OH242359   4.585   4.418   8.531
14139TIP3    H142360   4.538   4.359   8.592
14139TIP3    H242361   4.510   4.450   8.476
14140TIP3   OH242362   4.599   5.823   8.647
14140TIP3    H142363   4.509   5.796   8.617
14140TIP3    H242364   4.616   5.757   8.716
14141TIP3   OH242365   4.784   5.843   8.184
14141TIP3    H142366   4.737   5.920   8.145
14141TIP3    H242367   4.870   5.856   8.140
14142TIP3   OH242368   5.239   6.084   8.334
14142TIP3    H142369   5.294   6.059   8.409
14142TIP3    H242370   5.303   6.136   8.280
14143TIP3   OH242371   5.433   6.230   8.196
14143TIP3    H142372   5.485   6.170   8.139
14143TIP3    H242373   5.475   6.315   8.179
14144TIP3   OH242374   6.203   4.588   8.276
14144TIP3    H142375   6.113   4.573   8.243
14144TIP3    H242376   6.241   4.498   8.268
14145TIP3   OH242377   4.461   6.102   8.208
14145TIP3    H142378   4.371   6.135   8.187
14145TIP3    H242379   4.468   6.131   8.300
14146TIP3   OH242380   4.699   6.080   8.072
14146TIP3    H142381   4.611   6.091   8.114
14146TIP3    H242382   4.680   6.107   7.980
14147TIP3   OH242383   5.120   6.101   7.866
14147TIP3    H142384   5.049   6.114   7.801
14147TIP3    H242385   5.129   6.191   7.904
14148TIP3   OH242386   5.387   6.042   7.921
14148TIP3    H142387   5.293   6.059   7.897
14148TIP3    H242388   5.433   6.109   7.868
14149TIP3   OH242389   5.592   6.225   7.827
14149TIP3    H142390   5.575   6.310   7.780
14149TIP3    H242391   5.616   6.166   7.752
14150TIP3   OH242392   4.370   5.892   7.957
14150TIP3    H142393   4.396   5.857   8.045
14150TIP3    H242394   4.439   5.847   7.903
14151TIP3   OH242395   4.564   5.764   7.816
14151TIP3    H142396   4.577   5.680   7.866
14151TIP3    H242397   4.657   5.796   7.811
14152TIP3   OH242398   4.836   5.853   7.818
14152TIP3    H142399   4.862   5.759   7.807
14152TIP3    H242400   4.884   5.873   7.901
14153TIP3   OH242401   5.411   4.511   7.910
14153TIP3    H142402   5.367   4.438   7.957
14153TIP3    H242403   5.481   4.464   7.860
14154TIP3   OH242404   5.925   4.396   7.806
14154TIP3    H142405   5.961   4.445   7.729
14154TIP3    H242406   5.829   4.411   7.797
14155TIP3   OH242407   6.023   4.490   7.569
14155TIP3    H142408   6.097   4.437   7.532
14155TIP3    H242409   6.058   4.581   7.555
14156TIP3   OH242410   4.655   4.216   7.918
14156TIP3    H142411   4.562   4.185   7.920
14156TIP3    H242412   4.702   4.130   7.912
14157TIP3   OH242413   4.442   4.090   7.567
14157TIP3    H142414   4.475   4.140   7.489
14157TIP3    H242415   4.414   4.164   7.624
14158TIP3   OH242416   5.106   4.246   7.799
14158TIP3    H142417   5.160   4.296   7.735
14158TIP3    H242418   5.129   4.289   7.882
14159TIP3   OH242419   5.643   4.398   7.780
14159TIP3    H142420   5.644   4.355   7.694
14159TIP3    H242421   5.633   4.320   7.840
14160TIP3   OH242422   5.676   4.325   7.346
14160TIP3    H142423   5.591   4.368   7.365
14160TIP3    H242424   5.662   4.238   7.389
14161TIP3   OH242425   4.157   5.666   7.339
14161TIP3    H142426   4.072   5.631   7.308
14161TIP3    H242427   4.148   5.759   7.310
14162TIP3   OH242428   4.557   4.218   7.338
14162TIP3    H142429   4.624   4.186   7.276
14162TIP3    H242430   4.597   4.299   7.374
14163TIP3   OH242431   5.071   4.428   7.426
14163TIP3    H142432   5.129   4.380   7.488
14163TIP3    H242433   5.093   4.520   7.452
14164TIP3   OH242434   4.932   5.843   6.927
14164TIP3    H142435   5.020   5.867   6.890
14164TIP3    H242436   4.909   5.769   6.867
14165TIP3   OH242437   5.654   5.970   7.022
14165TIP3    H142438   5.647   5.872   7.012
14165TIP3    H242439   5.605   5.999   6.942
14166TIP3   OH242440   4.236   5.683   6.981
14166TIP3    H142441   4.239   5.697   7.076
14166TIP3    H242442   4.322   5.639   6.964
14167TIP3   OH242443   7.132   5.483   6.974
14167TIP3    H142444   7.102   5.572   6.948
14167TIP3    H242445   7.063   5.429   6.930
14168TIP3   OH242446   7.104   5.493   7.386
14168TIP3    H142447   7.172   5.437   7.428
14168TIP3    H242448   7.091   5.443   7.304
14169TIP3   OH242449   6.402   5.335   7.719
14169TIP3    H142450   6.452   5.278   7.781
14169TIP3    H242451   6.475   5.390   7.687
14170TIP3   OH242452   6.421   5.790   7.440
14170TIP3    H142453   6.408   5.692   7.443
14170TIP3    H242454   6.516   5.794   7.421
14171TIP3   OH242455   6.118   4.989   7.225
14171TIP3    H142456   6.068   5.071   7.241
14171TIP3    H242457   6.049   4.937   7.180
14172TIP3   OH242458   6.169   5.283   7.422
14172TIP3    H142459   6.224   5.207   7.453
14172TIP3    H242460   6.222   5.314   7.348
14173TIP3   OH242461   6.923   5.702   7.352
14173TIP3    H142462   6.947   5.608   7.344
14173TIP3    H242463   7.011   5.741   7.341
14174TIP3   OH242464   7.317   5.199   7.424
14174TIP3    H142465   7.359   5.110   7.430
14174TIP3    H242466   7.293   5.197   7.329
14175TIP3   OH242467   6.695   4.871   7.397
14175TIP3    H142468   6.676   4.943   7.333
14175TIP3    H242469   6.647   4.797   7.354
14176TIP3   OH242470   7.390   4.962   7.018
14176TIP3    H142471   7.458   4.941   7.086
14176TIP3    H242472   7.446   5.000   6.948
14177TIP3   OH242473   6.331   5.077   7.499
14177TIP3    H142474   6.413   5.052   7.546
14177TIP3    H242475   6.342   5.021   7.418
14178TIP3   OH242476   6.760   5.269   7.307
14178TIP3    H142477   6.855   5.243   7.318
14178TIP3    H242478   6.723   5.185   7.271
14179TIP3   OH242479   6.684   4.852   7.833
14179TIP3    H142480   6.623   4.889   7.767
14179TIP3    H242481   6.634   4.866   7.916
14180TIP3   OH242482   7.023   5.702   6.845
14180TIP3    H142483   6.996   5.684   6.753
14180TIP3    H242484   6.981   5.789   6.859
14181TIP3   OH242485   6.784   5.620   7.600
14181TIP3    H142486   6.713   5.684   7.616
14181TIP3    H242487   6.844   5.670   7.542
14182TIP3   OH242488   7.587   4.947   7.205
14182TIP3    H142489   7.536   4.929   7.286
14182TIP3    H242490   7.644   5.019   7.234
14183TIP3   OH242491   6.558   4.966   7.614
14183TIP3    H142492   6.622   5.035   7.641
14183TIP3    H242493   6.609   4.925   7.540
14184TIP3   OH242494   6.012   5.517   6.961
14184TIP3    H142495   5.972   5.540   6.875
14184TIP3    H242496   6.043   5.604   6.993
14185TIP3   OH242497   7.030   4.566   7.541
14185TIP3    H142498   7.020   4.472   7.567
14185TIP3    H242499   6.956   4.606   7.592
14186TIP3   OH242500   7.282   5.887   6.762
14186TIP3    H142501   7.264   5.798   6.729
14186TIP3    H242502   7.350   5.872   6.829
14187TIP3   OH242503   6.972   5.339   6.803
14187TIP3    H142504   6.892   5.390   6.779
14187TIP3    H242505   7.018   5.332   6.717
14188TIP3   OH242506   6.931   5.124   6.517
14188TIP3    H142507   7.000   5.176   6.563
14188TIP3    H242508   6.988   5.060   6.469
14189TIP3   OH242509   7.320   5.419   6.780
14189TIP3    H142510   7.268   5.442   6.860
14189TIP3    H242511   7.405   5.394   6.821
14190TIP3   OH242512   6.554   5.418   7.193
14190TIP3    H142513   6.510   5.359   7.128
14190TIP3    H242514   6.628   5.362   7.224
14191TIP3   OH242515   6.682   5.832   7.327
14191TIP3    H142516   6.645   5.808   7.240
14191TIP3    H242517   6.764   5.775   7.329
14192TIP3   OH242518   6.667   5.376   7.543
14192TIP3    H142519   6.706   5.342   7.459
14192TIP3    H242520   6.723   5.455   7.559
14193TIP3   OH242521   7.157   5.280   6.603
14193TIP3    H142522   7.218   5.339   6.653
14193TIP3    H242523   7.185   5.299   6.510
14194TIP3   OH242524   6.536   5.454   7.947
14194TIP3    H142525   6.572   5.539   7.981
14194TIP3    H242526   6.440   5.470   7.947
14195TIP3   OH242527   6.910   5.955   6.863
14195TIP3    H142528   6.972   6.009   6.915
14195TIP3    H242529   6.848   6.019   6.828
14196TIP3   OH242530   7.677   4.514   6.653
14196TIP3    H142531   7.595   4.536   6.701
14196TIP3    H242532   7.691   4.596   6.600
14197TIP3   OH242533   6.417   5.263   7.003
14197TIP3    H142534   6.348   5.302   6.945
14197TIP3    H242535   6.389   5.171   7.007
14198TIP3   OH242536   7.479   5.885   6.199
14198TIP3    H142537   7.489   5.983   6.200
14198TIP3    H242538   7.569   5.858   6.171
14199TIP3   OH242539   6.213   5.597   7.855
14199TIP3    H142540   6.124   5.631   7.838
14199TIP3    H242541   6.208   5.573   7.951
14200TIP3   OH242542   6.059   5.838   7.561
14200TIP3    H142543   6.144   5.854   7.519
14200TIP3    H242544   6.022   5.927   7.573
14201TIP3   OH242545   6.786   6.203   6.681
14201TIP3    H142546   6.733   6.181   6.603
14201TIP3    H242547   6.746   6.288   6.711
14202TIP3   OH242548   6.220   6.046   7.058
14202TIP3    H142549   6.260   6.036   7.148
14202TIP3    H242550   6.169   5.964   7.052
14203TIP3   OH242551   6.989   6.097   6.312
14203TIP3    H142552   7.045   6.028   6.270
14203TIP3    H242553   7.020   6.090   6.405
14204TIP3   OH242554   7.026   6.123   6.584
14204TIP3    H142555   6.942   6.147   6.629
14204TIP3    H242556   7.049   6.041   6.629
14205TIP3   OH242557   6.801   4.647   7.682
14205TIP3    H142558   6.712   4.618   7.651
14205TIP3    H242559   6.775   4.726   7.733
14206TIP3   OH242560   7.331   4.747   7.857
14206TIP3    H142561   7.390   4.791   7.919
14206TIP3    H242562   7.245   4.746   7.904
14207TIP3   OH242563   7.240   5.320   6.351
14207TIP3    H142564   7.201   5.297   6.264
14207TIP3    H242565   7.325   5.361   6.323
14208TIP3   OH242566   6.949   4.695   6.651
14208TIP3    H142567   6.914   4.692   6.742
14208TIP3    H242568   6.909   4.614   6.615
14209TIP3   OH242569   6.743   5.155   7.686
14209TIP3    H142570   6.704   5.174   7.774
14209TIP3    H242571   6.717   5.236   7.637
14210TIP3   OH242572   6.617   5.053   7.211
14210TIP3    H142573   6.526   5.024   7.230
14210TIP3    H242574   6.631   5.011   7.122
14211TIP3   OH242575   7.105   5.134   6.934
14211TIP3    H142576   7.057   5.206   6.889
14211TIP3    H242577   7.162   5.100   6.862
14212TIP3   OH242578   7.254   5.158   7.164
14212TIP3    H142579   7.192   5.180   7.091
14212TIP3    H242580   7.295   5.078   7.124
14213TIP3   OH242581   6.556   5.164   7.893
14213TIP3    H142582   6.611   5.227   7.943
14213TIP3    H242583   6.550   5.089   7.956
14214TIP3   OH242584   6.608   4.672   6.615
14214TIP3    H142585   6.596   4.671   6.712
14214TIP3    H242586   6.529   4.724   6.588
14215TIP3   OH242587   6.149   4.716   7.490
14215TIP3    H142588   6.229   4.744   7.539
14215TIP3    H242589   6.184   4.682   7.406
14216TIP3   OH242590   6.111   4.692   7.006
14216TIP3    H142591   6.157   4.728   6.927
14216TIP3    H242592   6.050   4.766   7.023
14217TIP3   OH242593   6.951   4.871   7.269
14217TIP3    H142594   6.872   4.870   7.326
14217TIP3    H242595   7.023   4.862   7.333
14218TIP3   OH242596   6.381   4.929   7.275
14218TIP3    H142597   6.287   4.934   7.248
14218TIP3    H242598   6.406   4.836   7.255
14219TIP3   OH242599   6.644   4.924   6.971
14219TIP3    H142600   6.739   4.937   6.951
14219TIP3    H242601   6.599   4.946   6.886
14220TIP3   OH242602   7.401   4.938   7.419
14220TIP3    H142603   7.429   4.925   7.510
14220TIP3    H242604   7.328   4.874   7.408
14221TIP3   OH242605   6.497   4.964   6.744
14221TIP3    H142606   6.429   4.914   6.696
14221TIP3    H242607   6.550   4.999   6.670
14222TIP3   OH242608   7.016   5.190   7.364
14222TIP3    H142609   7.096   5.163   7.315
14222TIP3    H242610   7.034   5.155   7.453
14223TIP3   OH242611   6.546   4.687   7.254
14223TIP3    H142612   6.510   4.610   7.303
14223TIP3    H242613   6.594   4.643   7.182
14224TIP3   OH242614   7.012   5.098   7.655
14224TIP3    H142615   6.918   5.123   7.669
14224TIP3    H242616   7.055   5.128   7.736
14225TIP3   OH242617   6.738   5.491   6.752
14225TIP3    H142618   6.669   5.422   6.741
14225TIP3    H242619   6.719   5.523   6.843
14226TIP3   OH242620   7.200   4.796   6.624
14226TIP3    H142621   7.104   4.776   6.631
14226TIP3    H242622   7.205   4.891   6.647
14227TIP3   OH242623   7.268   5.050   6.723
14227TIP3    H142624   7.364   5.055   6.738
14227TIP3    H242625   7.250   5.130   6.670
14228TIP3   OH242626   6.441   5.514   7.425
14228TIP3    H142627   6.470   5.492   7.334
14228TIP3    H242628   6.489   5.447   7.475
14229TIP3   OH242629   6.891   5.639   6.581
14229TIP3    H142630   6.842   5.724   6.584
14229TIP3    H242631   6.834   5.583   6.639
14230TIP3   OH242632   6.258   5.395   8.042
14230TIP3    H142633   6.292   5.436   8.123
14230TIP3    H242634   6.219   5.315   8.082
14231TIP3   OH242635   7.707   5.140   6.552
14231TIP3    H142636   7.645   5.096   6.489
14231TIP3    H242637   7.701   5.230   6.513
14232TIP3   OH242638   7.350   5.949   6.453
14232TIP3    H142639   7.366   5.886   6.524
14232TIP3    H242640   7.409   5.915   6.383
14233TIP3   OH242641   6.540   5.825   7.074
14233TIP3    H142642   6.534   5.900   7.011
14233TIP3    H242643   6.450   5.790   7.066
14234TIP3   OH242644   6.104   5.118   6.763
14234TIP3    H142645   6.148   5.203   6.785
14234TIP3    H242646   6.026   5.121   6.823
14235TIP3   OH242647   6.666   5.583   6.996
14235TIP3    H142648   6.636   5.671   7.023
14235TIP3    H242649   6.633   5.527   7.070
14236TIP3   OH242650   6.457   6.049   6.909
14236TIP3    H142651   6.369   6.060   6.952
14236TIP3    H242652   6.490   6.141   6.912
14237TIP3   OH242653   7.170   5.686   6.368
14237TIP3    H142654   7.222   5.668   6.449
14237TIP3    H242655   7.084   5.650   6.392
14238TIP3   OH242656   7.499   6.160   6.199
14238TIP3    H142657   7.552   6.208   6.134
14238TIP3    H242658   7.415   6.212   6.197
14239TIP3   OH242659   6.530   4.928   8.051
14239TIP3    H142660   6.435   4.934   8.072
14239TIP3    H242661   6.562   4.873   8.124
14240TIP3   OH242662   7.320   5.629   6.595
14240TIP3    H142663   7.310   5.557   6.660
14240TIP3    H242664   7.416   5.618   6.575
14241TIP3   OH242665   6.263   6.037   7.688
14241TIP3    H142666   6.262   5.943   7.712
14241TIP3    H242667   6.224   6.079   7.767
14242TIP3   OH242668   6.531   5.668   6.367
14242TIP3    H142669   6.544   5.575   6.337
14242TIP3    H242670   6.509   5.654   6.461
14243TIP3   OH242671   6.476   5.672   6.640
14243TIP3    H142672   6.555   5.642   6.687
14243TIP3    H242673   6.482   5.769   6.648
14244TIP3   OH242674   6.211   5.363   6.843
14244TIP3    H142675   6.143   5.408   6.898
14244TIP3    H242676   6.224   5.430   6.773
14245TIP3   OH242677   7.249   4.747   6.904
14245TIP3    H142678   7.235   4.769   6.810
14245TIP3    H242679   7.290   4.829   6.939
14246TIP3   OH242680   6.748   5.869   6.586
14246TIP3    H142681   6.661   5.893   6.623
14246TIP3    H242682   6.755   5.932   6.513
14247TIP3   OH242683   6.926   4.935   7.001
14247TIP3    H142684   6.991   5.006   6.984
14247TIP3    H242685   6.936   4.923   7.099
14248TIP3   OH242686   7.074   4.649   7.098
14248TIP3    H142687   7.073   4.723   7.161
14248TIP3    H242688   7.138   4.683   7.032
14249TIP3   OH242689   6.495   5.945   6.656
14249TIP3    H142690   6.463   6.014   6.594
14249TIP3    H242691   6.476   5.986   6.743
14250TIP3   OH242692   6.589   4.659   6.891
14250TIP3    H142693   6.586   4.748   6.931
14250TIP3    H242694   6.685   4.641   6.898
14251TIP3   OH242695   7.525   5.274   7.179
14251TIP3    H142696   7.436   5.236   7.188
14251TIP3    H242697   7.568   5.244   7.262
14252TIP3   OH242698   6.210   5.566   6.645
14252TIP3    H142699   6.284   5.630   6.653
14252TIP3    H242700   6.249   5.506   6.578
14253TIP3   OH242701   6.148   4.847   6.783
14253TIP3    H142702   6.150   4.944   6.780
14253TIP3    H242703   6.072   4.827   6.726
14254TIP3   OH242704   6.533   4.571   7.651
14254TIP3    H142705   6.506   4.534   7.564
14254TIP3    H242706   6.526   4.492   7.709
14255TIP3   OH242707   6.073   5.788   7.029
14255TIP3    H142708   6.010   5.819   7.096
14255TIP3    H242709   6.036   5.830   6.947
14256TIP3   OH242710   6.699   5.867   6.278
14256TIP3    H142711   6.642   5.794   6.313
14256TIP3    H242712   6.773   5.816   6.240
14257TIP3   OH242713   7.136   5.904   6.192
14257TIP3    H142714   7.175   5.848   6.262
14257TIP3    H242715   7.202   5.896   6.120
14258TIP3   OH242716   6.344   5.381   6.502
14258TIP3    H142717   6.402   5.350   6.573
14258TIP3    H242718   6.410   5.387   6.428
14259TIP3   OH242719   6.861   5.586   6.310
14259TIP3    H142720   6.862   5.595   6.408
14259TIP3    H242721   6.862   5.488   6.301
14260TIP3   OH242722   6.550   5.291   6.718
14260TIP3    H142723   6.522   5.246   6.799
14260TIP3    H242724   6.589   5.218   6.666
14261TIP3   OH242725   6.815   5.328   7.921
14261TIP3    H142726   6.773   5.393   7.980
14261TIP3    H242727   6.861   5.384   7.858
14262TIP3   OH242728   6.654   5.090   6.559
14262TIP3    H142729   6.629   5.095   6.464
14262TIP3    H242730   6.752   5.090   6.551
14263TIP3   OH242731   7.469   5.415   6.229
14263TIP3    H142732   7.450   5.371   6.143
14263TIP3    H242733   7.435   5.506   6.207
14264TIP3   OH242734   2.001   0.227   3.193
14264TIP3    H142735   2.044   0.161   3.137
14264TIP3    H242736   1.974   0.293   3.127
14265TIP3   OH242737   6.946   4.914   7.877
14265TIP3    H142738   6.975   4.953   7.793
14265TIP3    H242739   6.850   4.900   7.861
14266TIP3   OH242740   7.079   4.699   7.977
14266TIP3    H142741   7.029   4.777   7.944
14266TIP3    H242742   7.016   4.627   7.957
14267TIP3   OH242743   6.644   5.024   8.365
14267TIP3    H142744   6.659   4.940   8.319
14267TIP3    H242745   6.712   5.020   8.434
14268TIP3   OH242746   7.177   4.697   8.236
14268TIP3    H142747   7.245   4.639   8.201
14268TIP3    H242748   7.123   4.708   8.155
14269TIP3   OH242749   6.466   6.153   6.472
14269TIP3    H142750   6.558   6.140   6.445
14269TIP3    H242751   6.432   6.200   6.393
14270TIP3   OH242752   5.940   5.528   6.683
14270TIP3    H142753   6.035   5.548   6.666
14270TIP3    H242754   5.932   5.439   6.640
14271TIP3   OH242755   5.856   6.143   7.094
14271TIP3    H142756   5.789   6.084   7.053
14271TIP3    H242757   5.900   6.080   7.154
14272TIP3   OH242758   5.984   5.975   7.270
14272TIP3    H142759   5.953   5.911   7.336
14272TIP3    H242760   6.035   6.037   7.326
14273TIP3   OH242761   7.587   5.585   6.567
14273TIP3    H142762   7.647   5.641   6.512
14273TIP3    H242763   7.646   5.560   6.642
14274TIP3   OH242764   7.737   5.468   6.768
14274TIP3    H142765   7.666   5.419   6.816
14274TIP3    H242766   7.807   5.470   6.835
14275TIP3   OH242767   7.666   5.373   6.412
14275TIP3    H142768   7.597   5.377   6.342
14275TIP3    H242769   7.635   5.445   6.470
14276TIP3   OH242770   7.542   5.047   6.359
14276TIP3    H142771   7.497   5.080   6.280
14276TIP3    H242772   7.521   4.951   6.353
14277TIP3   OH242773   7.553   5.313   6.903
14277TIP3    H142774   7.555   5.219   6.880
14277TIP3    H242775   7.552   5.309   7.002
14278TIP3   OH242776   7.488   4.782   6.345
14278TIP3    H142777   7.559   4.747   6.402
14278TIP3    H242778   7.412   4.724   6.364
14279TIP3   OH242779   7.549   5.045   6.795
14279TIP3    H142780   7.586   4.955   6.812
14279TIP3    H242781   7.606   5.072   6.720
14280TIP3   OH242782   6.381   5.069   8.308
14280TIP3    H142783   6.478   5.070   8.325
14280TIP3    H242784   6.356   4.991   8.363
14281TIP3   OH242785   7.653   4.794   6.838
14281TIP3    H142786   7.702   4.777   6.922
14281TIP3    H242787   7.592   4.718   6.838
14282TIP3   OH242788   6.352   4.783   7.673
14282TIP3    H142789   6.410   4.704   7.677
14282TIP3    H242790   6.419   4.851   7.653
14283TIP3   OH242791   6.164   5.097   7.730
14283TIP3    H142792   6.166   5.051   7.644
14283TIP3    H242793   6.260   5.096   7.751
14284TIP3   OH242794   7.733   4.721   6.477
14284TIP3    H142795   7.771   4.653   6.418
14284TIP3    H242796   7.799   4.793   6.472
14285TIP3   OH242797   6.142   4.561   7.240
14285TIP3    H142798   6.048   4.548   7.263
14285TIP3    H242799   6.135   4.615   7.158
14286TIP3   OH242800   6.363   4.632   8.047
14286TIP3    H142801   6.315   4.627   8.131
14286TIP3    H242802   6.293   4.668   7.989
14287TIP3   OH242803   6.150   6.123   7.439
14287TIP3    H142804   6.196   6.122   7.526
14287TIP3    H242805   6.223   6.090   7.383
14288TIP3   OH242806   6.344   6.008   7.297
14288TIP3    H142807   6.370   5.927   7.347
14288TIP3    H242808   6.432   6.046   7.276
14289TIP3   OH242809   6.594   6.105   7.261
14289TIP3    H142810   6.639   6.023   7.237
14289TIP3    H242811   6.657   6.144   7.323
14290TIP3   OH242812   7.191   4.749   7.380
14290TIP3    H142813   7.149   4.679   7.434
14290TIP3    H242814   7.268   4.702   7.340
14291TIP3   OH242815   7.724   4.644   7.283
14291TIP3    H142816   7.759   4.703   7.212
14291TIP3    H242817   7.632   4.676   7.291
14292TIP3   OH242818   7.823   4.749   7.050
14292TIP3    H142819   7.895   4.693   7.014
14292TIP3    H242820   7.868   4.837   7.048
14293TIP3   OH242821   6.450   4.473   7.403
14293TIP3    H142822   6.358   4.440   7.407
14293TIP3    H242823   6.499   4.388   7.399
14294TIP3   OH242824   6.241   4.348   7.055
14294TIP3    H142825   6.271   4.403   6.980
14294TIP3    H242826   6.216   4.415   7.121
14295TIP3   OH242827   6.897   4.508   7.287
14295TIP3    H142828   6.952   4.554   7.221
14295TIP3    H242829   6.933   4.542   7.371
14296TIP3   OH242830   7.431   4.648   7.266
14296TIP3    H142831   7.448   4.605   7.182
14296TIP3    H242832   7.425   4.571   7.327
14297TIP3   OH242833   7.472   4.581   6.832
14297TIP3    H142834   7.386   4.624   6.851
14297TIP3    H242835   7.459   4.494   6.877
14298TIP3   OH242836   5.955   5.924   6.828
14298TIP3    H142837   5.869   5.890   6.797
14298TIP3    H242838   5.946   6.017   6.798
14299TIP3   OH242839   6.359   4.503   6.815
14299TIP3    H142840   6.406   4.439   6.757
14299TIP3    H242841   6.434   4.556   6.850
14300TIP3   OH242842   6.865   4.684   6.914
14300TIP3    H142843   6.926   4.637   6.974
14300TIP3    H242844   6.887   4.776   6.939
14301TIP3   OH242845   6.729   6.102   6.409
14301TIP3    H142846   6.818   6.120   6.373
14301TIP3    H242847   6.704   6.027   6.351
14302TIP3   OH242848   7.435   6.207   6.486
14302TIP3    H142849   7.406   6.113   6.496
14302TIP3    H242850   7.476   6.198   6.398
14303TIP3   OH242851   6.647   4.746   8.274
14303TIP3    H142852   6.608   4.681   8.336
14303TIP3    H242853   6.741   4.741   8.303
14304TIP3   OH242854   6.899   4.729   8.383
14304TIP3    H142855   6.990   4.731   8.350
14304TIP3    H242856   6.909   4.714   8.478
14305TIP3   OH242857   6.033   5.941   6.466
14305TIP3    H142858   6.034   5.957   6.562
14305TIP3    H242859   6.119   5.896   6.452
14306TIP3   OH242860   7.905   5.246   6.715
14306TIP3    H142861   7.858   5.331   6.707
14306TIP3    H242862   7.843   5.188   6.667
14307TIP3   OH242863   7.747   5.729   6.401
14307TIP3    H142864   7.721   5.772   6.318
14307TIP3    H242865   7.743   5.806   6.462
14308TIP3   OH242866   8.730   4.951   6.072
14308TIP3    H142867   8.775   4.971   6.155
14308TIP3    H242868   8.696   4.860   6.087
14309TIP3   OH242869   8.395   4.921   6.098
14309TIP3    H142870   8.386   4.920   6.196
14309TIP3    H242871   8.321   4.980   6.073
14310TIP3   OH242872   7.978   4.957   6.975
14310TIP3    H142873   8.024   5.038   6.936
14310TIP3    H242874   7.965   4.908   6.891
14311TIP3   OH242875   7.906   4.945   6.493
14311TIP3    H142876   7.957   4.978   6.416
14311TIP3    H242877   7.847   5.021   6.508
14312TIP3   OH242878   8.129   5.119   6.825
14312TIP3    H142879   8.071   5.163   6.761
14312TIP3    H242880   8.189   5.067   6.768
14313TIP3   OH242881   8.483   5.149   6.426
14313TIP3    H142882   8.536   5.230   6.432
14313TIP3    H242883   8.417   5.175   6.359
14314TIP3   OH242884   8.295   5.212   6.240
14314TIP3    H142885   8.218   5.171   6.198
14314TIP3    H242886   8.348   5.237   6.161
14315TIP3   OH242887   8.315   4.951   6.714
14315TIP3    H142888   8.292   4.874   6.770
14315TIP3    H242889   8.389   4.917   6.663
14316TIP3   OH242890   7.883   5.352   6.243
14316TIP3    H142891   7.922   5.442   6.247
14316TIP3    H242892   7.810   5.361   6.308
14317TIP3   OH242893   8.333   5.873   5.819
14317TIP3    H142894   8.301   5.793   5.772
14317TIP3    H242895   8.417   5.839   5.855
14318TIP3   OH242896   7.956   5.612   6.271
14318TIP3    H142897   7.877   5.636   6.325
14318TIP3    H242898   8.018   5.679   6.303
14319TIP3   OH242899   8.376   4.898   6.373
14319TIP3    H142900   8.390   4.989   6.405
14319TIP3    H242901   8.466   4.863   6.383
14320TIP3   OH242902   8.000   5.868   6.092
14320TIP3    H142903   8.021   5.851   6.187
14320TIP3    H242904   8.051   5.795   6.048
14321TIP3   OH242905   7.953   5.091   6.267
14321TIP3    H142906   7.946   5.189   6.265
14321TIP3    H242907   7.874   5.066   6.218
14322TIP3   OH242908   8.160   5.662   5.995
14322TIP3    H142909   8.202   5.603   6.060
14322TIP3    H242910   8.217   5.645   5.917
14323TIP3   OH242911   8.320   5.514   6.170
14323TIP3    H142912   8.344   5.462   6.250
14323TIP3    H242913   8.362   5.456   6.103
14324TIP3   OH242914   8.446   5.318   6.031
14324TIP3    H142915   8.420   5.314   5.937
14324TIP3    H242916   8.537   5.351   6.023
14325TIP3   OH242917   7.731   5.795   6.120
14325TIP3    H142918   7.826   5.817   6.115
14325TIP3    H242919   7.730   5.700   6.093
14326TIP3   OH242920   7.928   4.825   6.736
14326TIP3    H142921   7.834   4.805   6.747
14326TIP3    H242922   7.929   4.874   6.651
14327TIP3   OH242923   8.252   4.743   6.886
14327TIP3    H142924   8.158   4.715   6.893
14327TIP3    H242925   8.296   4.657   6.894
14328TIP3   OH242926   8.039   4.605   6.543
14328TIP3    H142927   8.067   4.658   6.467
14328TIP3    H242928   8.014   4.673   6.608
14329TIP3   OH242929   8.148   4.755   6.301
14329TIP3    H142930   8.196   4.693   6.243
14329TIP3    H242931   8.221   4.810   6.336
14330TIP3   OH242932   8.647   4.910   6.449
14330TIP3    H142933   8.704   4.860   6.510
14330TIP3    H242934   8.613   4.981   6.506
14331TIP3   OH242935   7.769   6.163   5.944
14331TIP3    H142936   7.805   6.233   6.002
14331TIP3    H242937   7.853   6.119   5.918
14332TIP3   OH242938   2.121   6.114   8.491
14332TIP3    H142939   2.142   6.139   8.582
14332TIP3    H242940   2.209   6.110   8.449
14333TIP3   OH242941   1.646   5.993   8.186
14333TIP3    H142942   1.701   6.000   8.267
14333TIP3    H242943   1.700   6.042   8.122
14334TIP3   OH242944   1.842   6.028   8.390
14334TIP3    H142945   1.837   5.946   8.440
14334TIP3    H242946   1.933   6.058   8.411
14335TIP3   OH242947   1.198   6.279   7.922
14335TIP3    H142948   1.107   6.315   7.918
14335TIP3    H242949   1.242   6.319   7.845
14336TIP3   OH242950   1.188   6.152   7.668
14336TIP3    H142951   1.245   6.174   7.742
14336TIP3    H242952   1.250   6.098   7.614
14337TIP3   OH242953   1.596   6.422   7.941
14337TIP3    H142954   1.580   6.490   8.011
14337TIP3    H242955   1.681   6.387   7.973
14338TIP3   OH242956   1.414   6.317   7.766
14338TIP3    H142957   1.485   6.367   7.811
14338TIP3    H242958   1.435   6.337   7.671
14339TIP3   OH242959   1.924   5.560   7.828
14339TIP3    H142960   1.842   5.580   7.878
14339TIP3    H242961   1.935   5.644   7.779
14340TIP3   OH242962   1.745   6.927   7.346
14340TIP3    H142963   1.763   7.021   7.328
14340TIP3    H242964   1.836   6.891   7.353
14341TIP3   OH242965   1.492   6.349   7.513
14341TIP3    H142966   1.456   6.331   7.425
14341TIP3    H242967   1.568   6.406   7.492
14342TIP3   OH242968   1.186   5.753   7.802
14342TIP3    H142969   1.171   5.748   7.899
14342TIP3    H242970   1.159   5.662   7.777
14343TIP3   OH242971   1.352   6.175   8.114
14343TIP3    H142972   1.299   6.204   8.036
14343TIP3    H242973   1.428   6.135   8.068
14344TIP3   OH242974   1.445   5.843   7.798
14344TIP3    H142975   1.348   5.826   7.799
14344TIP3    H242976   1.452   5.937   7.823
14345TIP3   OH242977   1.519   6.093   7.900
14345TIP3    H142978   1.615   6.101   7.910
14345TIP3    H242979   1.497   6.171   7.845
14346TIP3   OH242980   1.953   6.188   7.734
14346TIP3    H142981   1.897   6.143   7.665
14346TIP3    H242982   1.952   6.278   7.693
14347TIP3   OH242983   1.409   6.736   7.516
14347TIP3    H142984   1.459   6.687   7.585
14347TIP3    H242985   1.319   6.709   7.541
14348TIP3   OH242986   1.810   7.235   7.325
14348TIP3    H142987   1.803   7.282   7.239
14348TIP3    H242988   1.718   7.243   7.354
14349TIP3   OH242989   1.553   6.592   7.704
14349TIP3    H142990   1.561   6.549   7.791
14349TIP3    H242991   1.642   6.630   7.694
14350TIP3   OH242992   1.508   5.785   8.072
14350TIP3    H142993   1.486   5.810   7.980
14350TIP3    H242994   1.549   5.866   8.108
14351TIP3   OH242995   1.194   5.968   8.201
14351TIP3    H142996   1.257   6.034   8.166
14351TIP3    H242997   1.181   5.997   8.291
14352TIP3   OH242998   1.344   5.685   8.270
14352TIP3    H142999   1.340   5.751   8.340
14352TIP3    H243000   1.396   5.732   8.201
14353TIP3   OH243001   1.368   6.956   7.346
14353TIP3    H143002   1.407   6.896   7.413
14353TIP3    H243003   1.429   6.946   7.270
14354TIP3   OH243004   1.119   6.646   7.497
14354TIP3    H143005   1.143   6.645   7.593
14354TIP3    H243006   1.114   6.550   7.479
14355TIP3   OH243007   0.939   6.170   7.792
14355TIP3    H143008   0.909   6.158   7.699
14355TIP3    H243009   1.034   6.150   7.778
14356TIP3   OH243010   1.724   6.458   7.404
14356TIP3    H143011   1.702   6.415   7.318
14356TIP3    H243012   1.693   6.549   7.383
14357TIP3   OH243013   1.865   6.644   7.732
14357TIP3    H143014   1.933   6.703   7.693
14357TIP3    H243015   1.917   6.597   7.802
14358TIP3   OH243016   1.981   6.500   7.931
14358TIP3    H143017   1.931   6.463   8.006
14358TIP3    H243018   2.060   6.538   7.976
14359TIP3   OH243019   1.924   6.418   7.583
14359TIP3    H143020   1.854   6.418   7.514
14359TIP3    H243021   1.894   6.495   7.636
14360TIP3   OH243022   1.803   6.096   7.527
14360TIP3    H143023   1.736   6.132   7.467
14360TIP3    H243024   1.777   6.001   7.527
14361TIP3   OH243025   1.811   6.344   8.107
14361TIP3    H143026   1.821   6.252   8.074
14361TIP3    H243027   1.762   6.331   8.189
14362TIP3   OH243028   1.731   5.835   7.532
14362TIP3    H143029   1.806   5.795   7.580
14362TIP3    H243030   1.660   5.769   7.541
14363TIP3   OH243031   1.801   6.100   7.971
14363TIP3    H143032   1.833   6.006   7.983
14363TIP3    H243033   1.858   6.126   7.896
14364TIP3   OH243034   1.892   5.845   7.999
14364TIP3    H143035   1.948   5.828   8.078
14364TIP3    H243036   1.832   5.768   8.002
14365TIP3   OH243037   1.982   5.769   7.655
14365TIP3    H143038   2.029   5.699   7.605
14365TIP3    H243039   2.046   5.843   7.653
14366TIP3   OH243040   1.991   5.693   8.418
14366TIP3    H143041   2.030   5.739   8.340
14366TIP3    H243042   1.896   5.690   8.392
14367TIP3   OH243043   2.077   5.811   8.193
14367TIP3    H143044   2.151   5.756   8.159
14367TIP3    H243045   2.115   5.901   8.183
14368TIP3   OH243046   1.730   5.662   8.384
14368TIP3    H143047   1.657   5.670   8.322
14368TIP3    H243048   1.701   5.589   8.441
14369TIP3   OH243049   1.722   5.626   8.007
14369TIP3    H143050   1.637   5.672   8.025
14369TIP3    H243051   1.704   5.539   8.050
14370TIP3   OH243052   1.157   5.732   8.068
14370TIP3    H143053   1.197   5.685   8.143
14370TIP3    H243054   1.149   5.821   8.108
14371TIP3   OH243055   3.193   6.788   7.631
14371TIP3    H143056   3.158   6.877   7.608
14371TIP3    H243057   3.117   6.734   7.604
14372TIP3   OH243058   3.195   6.762   8.007
14372TIP3    H143059   3.218   6.750   8.101
14372TIP3    H243060   3.148   6.679   7.988
14373TIP3   OH243061   3.446   7.072   7.703
14373TIP3    H143062   3.397   7.031   7.776
14373TIP3    H243063   3.475   7.157   7.743
14374TIP3   OH243064   2.169   6.277   7.886
14374TIP3    H143065   2.138   6.367   7.906
14374TIP3    H243066   2.090   6.240   7.842
14375TIP3   OH243067   2.226   6.573   8.028
14375TIP3    H143068   2.281   6.518   8.087
14375TIP3    H243069   2.280   6.655   8.028
14376TIP3   OH243070   3.085   7.528   7.725
14376TIP3    H143071   3.129   7.473   7.657
14376TIP3    H243072   3.108   7.479   7.805
14377TIP3   OH243073   3.022   6.970   8.037
14377TIP3    H143074   3.070   6.896   7.996
14377TIP3    H243075   3.097   7.016   8.080
14378TIP3   OH243076   3.992   6.338   8.052
14378TIP3    H143077   4.027   6.416   8.100
14378TIP3    H243078   4.044   6.339   7.970
14379TIP3   OH243079   3.410   6.521   8.088
14379TIP3    H143080   3.448   6.434   8.108
14379TIP3    H243081   3.374   6.505   7.998
14380TIP3   OH243082   2.741   6.169   8.060
14380TIP3    H143083   2.721   6.241   7.997
14380TIP3    H243084   2.693   6.095   8.016
14381TIP3   OH243085   3.433   6.270   7.682
14381TIP3    H143086   3.503   6.257   7.749
14381TIP3    H243087   3.486   6.300   7.606
14382TIP3   OH243088   2.387   6.390   8.168
14382TIP3    H143089   2.468   6.356   8.209
14382TIP3    H243090   2.390   6.340   8.084
14383TIP3   OH243091   2.810   6.561   7.973
14383TIP3    H143092   2.905   6.539   7.978
14383TIP3    H243093   2.772   6.479   7.935
14384TIP3   OH243094   4.080   6.542   8.236
14384TIP3    H143095   3.996   6.587   8.248
14384TIP3    H243096   4.124   6.563   8.321
14385TIP3   OH243097   2.748   6.145   8.491
14385TIP3    H143098   2.681   6.186   8.432
14385TIP3    H243099   2.703   6.141   8.576
14386TIP3   OH243100   3.073   7.000   7.505
14386TIP3    H143101   3.037   6.991   7.416
14386TIP3    H243102   3.031   7.085   7.533
14387TIP3   OH243103   3.638   6.262   7.859
14387TIP3    H143104   3.618   6.205   7.935
14387TIP3    H243105   3.735   6.268   7.863
14388TIP3   OH243106   2.609   6.263   8.281
14388TIP3    H143107   2.671   6.337   8.301
14388TIP3    H243108   2.656   6.222   8.204
14389TIP3   OH243109   2.055   6.811   7.623
14389TIP3    H143110   2.028   6.837   7.533
14389TIP3    H243111   2.110   6.886   7.653
14390TIP3   OH243112   3.522   7.317   7.843
14390TIP3    H143113   3.435   7.303   7.887
14390TIP3    H243114   3.507   7.406   7.805
14391TIP3   OH243115   3.790   6.239   8.233
14391TIP3    H143116   3.701   6.253   8.197
14391TIP3    H243117   3.848   6.267   8.159
14392TIP3   OH243118   3.088   5.867   8.211
14392TIP3    H143119   3.074   5.772   8.231
14392TIP3    H243120   3.010   5.906   8.256
14393TIP3   OH243121   3.208   7.380   7.532
14393TIP3    H143122   3.253   7.294   7.514
14393TIP3    H243123   3.276   7.441   7.493
14394TIP3   OH243124   3.343   7.154   7.458
14394TIP3    H143125   3.321   7.080   7.401
14394TIP3    H243126   3.383   7.110   7.536
14395TIP3   OH243127   3.731   7.230   8.161
14395TIP3    H143128   3.725   7.139   8.129
14395TIP3    H243129   3.738   7.282   8.078
14396TIP3   OH243130   3.021   6.637   7.471
14396TIP3    H143131   2.940   6.690   7.453
14396TIP3    H243132   3.062   6.635   7.383
14397TIP3   OH243133   2.976   6.424   7.180
14397TIP3    H143134   3.043   6.478   7.227
14397TIP3    H243135   3.034   6.361   7.133
14398TIP3   OH243136   3.368   6.719   7.433
14398TIP3    H143137   3.310   6.745   7.509
14398TIP3    H243138   3.452   6.701   7.479
14399TIP3   OH243139   3.587   6.721   8.336
14399TIP3    H143140   3.609   6.804   8.384
14399TIP3    H243141   3.509   6.749   8.285
14400TIP3   OH243142   2.603   6.709   7.853
14400TIP3    H143143   2.558   6.654   7.785
14400TIP3    H243144   2.676   6.650   7.883
14401TIP3   OH243145   2.778   7.084   8.040
14401TIP3    H143146   2.726   7.034   7.976
14401TIP3    H243147   2.868   7.044   8.027
14402TIP3   OH243148   2.749   6.692   8.203
14402TIP3    H143149   2.772   6.653   8.115
14402TIP3    H243150   2.834   6.735   8.227
14403TIP3   OH243151   3.284   7.282   7.961
14403TIP3    H143152   3.273   7.348   8.032
14403TIP3    H243153   3.256   7.200   8.005
14404TIP3   OH243154   3.203   6.576   7.263
14404TIP3    H143155   3.261   6.639   7.312
14404TIP3    H243156   3.229   6.596   7.170
14405TIP3   OH243157   2.957   7.248   7.538
14405TIP3    H143158   3.033   7.307   7.551
14405TIP3    H243159   2.890   7.306   7.502
14406TIP3   OH243160   3.722   5.815   7.316
14406TIP3    H143161   3.640   5.838   7.364
14406TIP3    H243162   3.736   5.897   7.263
14407TIP3   OH243163   2.470   6.557   7.654
14407TIP3    H143164   2.401   6.605   7.604
14407TIP3    H243165   2.425   6.475   7.675
14408TIP3   OH243166   3.521   7.181   6.874
14408TIP3    H143167   3.525   7.279   6.855
14408TIP3    H243168   3.615   7.156   6.860
14409TIP3   OH243169   2.840   7.501   7.332
14409TIP3    H143170   2.797   7.470   7.250
14409TIP3    H243171   2.796   7.585   7.349
14410TIP3   OH243172   3.030   7.401   6.982
14410TIP3    H143173   3.089   7.332   6.943
14410TIP3    H243174   3.073   7.414   7.069
14411TIP3   OH243175   3.092   7.446   7.253
14411TIP3    H143176   3.004   7.459   7.291
14411TIP3    H243177   3.137   7.398   7.323
14412TIP3   OH243178   3.874   6.715   8.505
14412TIP3    H143179   3.783   6.747   8.499
14412TIP3    H243180   3.865   6.619   8.495
14413TIP3   OH243181   2.851   5.944   8.333
14413TIP3    H143182   2.761   5.920   8.303
14413TIP3    H243183   2.829   6.026   8.381
14414TIP3   OH243184   3.384   6.076   8.526
14414TIP3    H143185   3.458   6.036   8.578
14414TIP3    H243186   3.305   6.044   8.574
14415TIP3   OH243187   3.618   6.487   8.468
14415TIP3    H143188   3.569   6.506   8.551
14415TIP3    H243189   3.602   6.569   8.415
14416TIP3   OH243190   3.283   6.615   7.010
14416TIP3    H143191   3.246   6.597   6.921
14416TIP3    H243192   3.365   6.663   6.985
14417TIP3   OH243193   2.994   5.995   7.314
14417TIP3    H143194   2.957   5.992   7.404
14417TIP3    H243195   2.953   5.914   7.277
14418TIP3   OH243196   2.780   6.465   8.357
14418TIP3    H143197   2.783   6.499   8.447
14418TIP3    H243198   2.765   6.547   8.304
14419TIP3   OH243199   2.666   6.350   7.874
14419TIP3    H143200   2.572   6.328   7.892
14419TIP3    H243201   2.676   6.311   7.784
14420TIP3   OH243202   3.155   6.437   7.604
14420TIP3    H143203   3.105   6.509   7.559
14420TIP3    H243204   3.210   6.403   7.531
14421TIP3   OH243205   3.294   6.455   7.845
14421TIP3    H143206   3.236   6.483   7.770
14421TIP3    H243207   3.340   6.382   7.800
14422TIP3   OH243208   2.652   5.974   7.279
14422TIP3    H143209   2.640   5.972   7.376
14422TIP3    H243210   2.573   6.025   7.253
14423TIP3   OH243211   2.207   6.039   8.141
14423TIP3    H143212   2.283   6.062   8.197
14423TIP3    H243213   2.247   6.010   8.058
14424TIP3   OH243214   2.155   5.994   7.669
14424TIP3    H143215   2.203   6.029   7.591
14424TIP3    H243216   2.098   6.071   7.688
14425TIP3   OH243217   3.306   6.706   8.258
14425TIP3    H143218   3.350   6.642   8.197
14425TIP3    H243219   3.280   6.645   8.330
14426TIP3   OH243220   3.001   6.172   7.935
14426TIP3    H143221   2.919   6.170   7.989
14426TIP3    H243222   3.071   6.164   8.002
14427TIP3   OH243223   2.428   6.231   7.946
14427TIP3    H143224   2.334   6.237   7.916
14427TIP3    H243225   2.454   6.141   7.918
14428TIP3   OH243226   2.690   6.224   7.633
14428TIP3    H143227   2.783   6.240   7.610
14428TIP3    H243228   2.642   6.246   7.550
14429TIP3   OH243229   3.482   6.253   8.146
14429TIP3    H143230   3.444   6.268   8.234
14429TIP3    H243231   3.416   6.192   8.108
14430TIP3   OH243232   2.543   6.257   7.407
14430TIP3    H143233   2.475   6.211   7.355
14430TIP3    H243234   2.596   6.298   7.335
14431TIP3   OH243235   3.076   6.502   8.032
14431TIP3    H143236   3.150   6.464   7.980
14431TIP3    H243237   3.082   6.452   8.116
14432TIP3   OH243238   2.593   5.988   7.916
14432TIP3    H143239   2.557   5.910   7.964
14432TIP3    H243240   2.636   5.946   7.840
14433TIP3   OH243241   3.054   6.401   8.308
14433TIP3    H143242   2.964   6.434   8.323
14433TIP3    H243243   3.109   6.459   8.364
14434TIP3   OH243244   2.791   6.783   7.413
14434TIP3    H143245   2.714   6.723   7.402
14434TIP3    H243246   2.779   6.811   7.508
14435TIP3   OH243247   3.698   6.986   8.019
14435TIP3    H143248   3.716   7.061   7.957
14435TIP3    H243249   3.600   6.976   8.012
14436TIP3   OH243250   3.245   6.096   7.292
14436TIP3    H143251   3.149   6.076   7.295
14436TIP3    H243252   3.249   6.192   7.310
14437TIP3   OH243253   3.313   6.352   7.387
14437TIP3    H143254   3.409   6.361   7.395
14437TIP3    H243255   3.288   6.430   7.333
14438TIP3   OH243256   2.467   6.741   8.087
14438TIP3    H143257   2.502   6.760   7.998
14438TIP3    H243258   2.543   6.696   8.127
14439TIP3   OH243259   2.936   6.939   7.243
14439TIP3    H143260   2.886   7.024   7.246
14439TIP3    H243261   2.881   6.883   7.302
14440TIP3   OH243262   3.752   6.445   7.220
14440TIP3    H143263   3.692   6.401   7.156
14440TIP3    H243264   3.749   6.535   7.179
14441TIP3   OH243265   3.979   7.252   8.275
14441TIP3    H143266   3.887   7.262   8.241
14441TIP3    H243267   4.027   7.239   8.190
14442TIP3   OH243268   3.431   7.256   7.136
14442TIP3    H143269   3.434   7.174   7.186
14442TIP3    H243270   3.468   7.232   7.050
14443TIP3   OH243271   3.444   6.879   7.962
14443TIP3    H143272   3.351   6.887   7.989
14443TIP3    H243273   3.438   6.792   7.920
14444TIP3   OH243274   2.577   7.060   7.668
14444TIP3    H143275   2.614   7.139   7.713
14444TIP3    H243276   2.485   7.064   7.696
14445TIP3   OH243277   2.151   6.420   7.425
14445TIP3    H143278   2.195   6.505   7.447
14445TIP3    H243279   2.073   6.424   7.486
14446TIP3   OH243280   2.743   6.850   7.667
14446TIP3    H143281   2.691   6.933   7.662
14446TIP3    H243282   2.699   6.807   7.742
14447TIP3   OH243283   3.264   7.069   8.136
14447TIP3    H143284   3.248   7.135   8.208
14447TIP3    H243285   3.353   7.040   8.160
14448TIP3   OH243286   3.215   6.982   7.031
14448TIP3    H143287   3.268   6.964   7.112
14448TIP3    H243288   3.126   6.960   7.061
14449TIP3   OH243289   3.548   7.451   6.848
14449TIP3    H143290   3.614   7.501   6.901
14449TIP3    H243291   3.467   7.504   6.867
14450TIP3   OH243292   3.378   6.928   7.250
14450TIP3    H143293   3.367   6.855   7.314
14450TIP3    H243294   3.474   6.920   7.231
14451TIP3   OH243295   2.577   6.969   7.031
14451TIP3    H143296   2.590   6.875   7.005
14451TIP3    H243297   2.559   6.960   7.127
14452TIP3   OH243298   2.520   6.978   7.304
14452TIP3    H143299   2.588   6.953   7.367
14452TIP3    H243300   2.522   7.076   7.313
14453TIP3   OH243301   2.259   6.661   7.506
14453TIP3    H143302   2.192   6.705   7.562
14453TIP3    H243303   2.274   6.730   7.438
14454TIP3   OH243304   3.404   6.320   8.406
14454TIP3    H143305   3.495   6.347   8.430
14454TIP3    H243306   3.396   6.233   8.453
14455TIP3   OH243307   3.292   6.048   7.568
14455TIP3    H143308   3.276   6.067   7.474
14455TIP3    H243309   3.329   6.133   7.600
14456TIP3   OH243310   2.790   7.167   7.249
14456TIP3    H143311   2.703   7.192   7.286
14456TIP3    H243312   2.805   7.239   7.187
14457TIP3   OH243313   2.976   6.235   7.666
14457TIP3    H143314   3.039   6.308   7.647
14457TIP3    H243315   2.983   6.227   7.763
14458TIP3   OH243316   3.232   6.547   8.468
14458TIP3    H143317   3.268   6.609   8.535
14458TIP3    H243318   3.296   6.472   8.471
14459TIP3   OH243319   3.118   5.952   7.764
14459TIP3    H143320   3.107   6.032   7.819
14459TIP3    H243321   3.182   5.985   7.696
14460TIP3   OH243322   2.537   7.252   7.320
14460TIP3    H143323   2.507   7.315   7.251
14460TIP3    H243324   2.535   7.311   7.398
14461TIP3   OH243325   2.633   5.960   7.556
14461TIP3    H143326   2.632   6.051   7.592
14461TIP3    H243327   2.730   5.942   7.562
14462TIP3   OH243328   3.881   6.435   8.446
14462TIP3    H143329   3.783   6.442   8.457
14462TIP3    H243330   3.884   6.365   8.378
14463TIP3   OH243331   2.260   6.869   7.312
14463TIP3    H143332   2.332   6.935   7.318
14463TIP3    H243333   2.299   6.810   7.244
14464TIP3   OH243334   2.193   6.149   7.449
14464TIP3    H143335   2.206   6.245   7.443
14464TIP3    H243336   2.109   6.138   7.404
14465TIP3   OH243337   3.520   7.581   7.772
14465TIP3    H143338   3.462   7.637   7.718
14465TIP3    H243339   3.605   7.626   7.758
14466TIP3   OH243340   2.576   5.883   8.310
14466TIP3    H143341   2.551   5.848   8.222
14466TIP3    H243342   2.570   5.801   8.365
14467TIP3   OH243343   2.741   7.169   6.937
14467TIP3    H143344   2.688   7.095   6.975
14467TIP3    H243345   2.818   7.120   6.901
14468TIP3   OH243346   3.177   7.207   6.851
14468TIP3    H143347   3.227   7.155   6.916
14468TIP3    H243348   3.237   7.209   6.774
14469TIP3   OH243349   2.390   6.682   7.167
14469TIP3    H143350   2.449   6.656   7.239
14469TIP3    H243351   2.454   6.688   7.093
14470TIP3   OH243352   2.904   6.887   6.973
14470TIP3    H143353   2.906   6.898   7.070
14470TIP3    H243354   2.904   6.789   6.967
14471TIP3   OH243355   3.508   7.093   8.288
14471TIP3    H143356   3.585   7.151   8.272
14471TIP3    H243357   3.448   7.154   8.335
14472TIP3   OH243358   2.588   6.594   7.380
14472TIP3    H143359   2.565   6.555   7.465
14472TIP3    H243360   2.629   6.519   7.332
14473TIP3   OH243361   2.699   6.389   7.224
14473TIP3    H143362   2.673   6.397   7.129
14473TIP3    H243363   2.797   6.391   7.216
14474TIP3   OH243364   3.516   6.713   6.893
14474TIP3    H143365   3.496   6.671   6.807
14474TIP3    H243366   3.484   6.804   6.873
14475TIP3   OH243367   2.931   6.440   8.682
14475TIP3    H143368   2.959   6.347   8.676
14475TIP3    H243369   3.012   6.485   8.654
14476TIP3   OH243370   3.011   6.212   8.525
14476TIP3    H143371   3.037   6.258   8.443
14476TIP3    H243372   2.916   6.195   8.509
14477TIP3   OH243373   2.994   6.769   8.359
14477TIP3    H143374   3.089   6.748   8.356
14477TIP3    H243375   2.995   6.865   8.372
14478TIP3   OH243376   3.652   6.930   8.491
14478TIP3    H143377   3.601   7.009   8.467
14478TIP3    H243378   3.742   6.964   8.475
14479TIP3   OH243379   3.143   5.984   8.614
14479TIP3    H143380   3.094   6.067   8.596
14479TIP3    H243381   3.070   5.919   8.614
14480TIP3   OH243382   3.493   6.446   8.722
14480TIP3    H143383   3.415   6.416   8.773
14480TIP3    H243384   3.550   6.369   8.734
14481TIP3   OH243385   2.512   7.458   7.136
14481TIP3    H143386   2.604   7.442   7.109
14481TIP3    H243387   2.478   7.502   7.056
14482TIP3   OH243388   1.996   6.822   7.351
14482TIP3    H143389   2.089   6.845   7.328
14482TIP3    H243390   1.985   6.737   7.303
14483TIP3   OH243391   3.753   7.725   7.753
14483TIP3    H143392   3.817   7.766   7.815
14483TIP3    H243393   3.806   7.729   7.672
14484TIP3   OH243394   3.654   6.901   7.220
14484TIP3    H143395   3.717   6.970   7.187
14484TIP3    H243396   3.703   6.866   7.297
14485TIP3   OH243397   3.783   6.764   7.425
14485TIP3    H143398   3.718   6.726   7.487
14485TIP3    H243399   3.850   6.804   7.485
14486TIP3   OH243400   3.837   7.156   7.862
14486TIP3    H143401   3.888   7.096   7.805
14486TIP3    H243402   3.838   7.238   7.808
14487TIP3   OH243403   3.727   7.446   7.977
14487TIP3    H143404   3.701   7.538   7.962
14487TIP3    H243405   3.664   7.399   7.916
14488TIP3   OH243406   3.719   6.677   7.072
14488TIP3    H143407   3.648   6.678   7.004
14488TIP3    H243408   3.691   6.755   7.124
14489TIP3   OH243409   3.590   6.349   7.027
14489TIP3    H143410   3.545   6.386   6.950
14489TIP3    H243411   3.567   6.254   7.017
14490TIP3   OH243412   3.593   6.616   7.578
14490TIP3    H143413   3.603   6.526   7.539
14490TIP3    H243414   3.550   6.595   7.663
14491TIP3   OH243415   3.892   7.006   8.367
14491TIP3    H143416   3.962   6.975   8.426
14491TIP3    H243417   3.917   7.099   8.352
14492TIP3   OH243418   4.101   6.863   8.481
14492TIP3    H143419   4.016   6.818   8.504
14492TIP3    H243420   4.157   6.784   8.471
14493TIP3   OH243421   3.532   6.084   7.009
14493TIP3    H143422   3.603   6.048   7.067
14493TIP3    H243423   3.456   6.025   7.026
14494TIP3   OH243424   3.600   6.352   7.462
14494TIP3    H143425   3.636   6.261   7.478
14494TIP3    H243426   3.653   6.377   7.385
14495TIP3   OH243427   3.695   6.097   7.505
14495TIP3    H143428   3.745   6.075   7.586
14495TIP3    H243429   3.634   6.020   7.500
14496TIP3   OH243430   2.395   6.092   8.340
14496TIP3    H143431   2.448   6.010   8.341
14496TIP3    H243432   2.464   6.157   8.317
14497TIP3   OH243433   2.217   6.380   8.389
14497TIP3    H143434   2.196   6.297   8.342
14497TIP3    H243435   2.286   6.415   8.327
14498TIP3   OH243436   4.127   6.392   8.560
14498TIP3    H143437   4.035   6.417   8.536
14498TIP3    H243438   4.133   6.305   8.516
14499TIP3   OH243439   3.778   6.022   7.142
14499TIP3    H143440   3.815   5.954   7.081
14499TIP3    H243441   3.843   6.095   7.134
14500TIP3   OH243442   2.186   5.858   7.899
14500TIP3    H143443   2.092   5.850   7.921
14500TIP3    H243444   2.182   5.916   7.820
14501TIP3   OH243445   3.376   7.547   7.395
14501TIP3    H143446   3.392   7.509   7.308
14501TIP3    H243447   3.423   7.631   7.389
14502TIP3   OH243448   4.042   6.146   8.424
14502TIP3    H143449   3.952   6.122   8.395
14502TIP3    H243450   4.086   6.058   8.417
14503TIP3   OH243451   3.249   6.067   8.058
14503TIP3    H143452   3.207   5.994   8.106
14503TIP3    H243453   3.320   6.021   8.009
14504TIP3   OH243454   3.763   5.972   7.960
14504TIP3    H143455   3.798   6.006   7.875
14504TIP3    H243456   3.667   5.968   7.942
14505TIP3   OH243457   3.863   6.049   7.719
14505TIP3    H143458   3.934   5.991   7.683
14505TIP3    H243459   3.903   6.137   7.701
14506TIP3   OH243460   2.496   5.777   8.066
14506TIP3    H143461   2.404   5.743   8.069
14506TIP3    H243462   2.545   5.692   8.062
14507TIP3   OH243463   2.273   5.650   7.712
14507TIP3    H143464   2.313   5.705   7.642
14507TIP3    H243465   2.254   5.717   7.781
14508TIP3   OH243466   2.944   5.808   7.951
14508TIP3    H143467   2.998   5.854   7.885
14508TIP3    H243468   2.979   5.844   8.034
14509TIP3   OH243469   3.484   5.954   7.928
14509TIP3    H143470   3.484   5.907   7.844
14509TIP3    H243471   3.475   5.878   7.991
14510TIP3   OH243472   3.517   5.882   7.496
14510TIP3    H143473   3.430   5.924   7.512
14510TIP3    H243474   3.503   5.795   7.540
14511TIP3   OH243475   2.398   5.804   7.492
14511TIP3    H143476   2.441   5.744   7.427
14511TIP3    H243477   2.475   5.860   7.518
14512TIP3   OH243478   2.910   5.985   7.577
14512TIP3    H143479   2.970   5.937   7.636
14512TIP3    H243480   2.932   6.077   7.602
14513TIP3   OH243481   2.774   7.400   7.077
14513TIP3    H143482   2.863   7.421   7.041
14513TIP3    H243483   2.751   7.326   7.016
14514TIP3   OH243484   2.078   7.233   7.118
14514TIP3    H143485   2.085   7.292   7.194
14514TIP3    H243486   2.169   7.196   7.109
14515TIP3   OH243487   4.982   7.044   7.120
14515TIP3    H143488   4.950   7.134   7.097
14515TIP3    H243489   4.909   6.990   7.085
14516TIP3   OH243490   4.955   7.035   7.514
14516TIP3    H143491   5.000   7.009   7.597
14516TIP3    H243492   4.920   6.949   7.485
14517TIP3   OH243493   4.271   6.932   7.879
14517TIP3    H143494   4.308   6.863   7.938
14517TIP3    H243495   4.351   6.981   7.857
14518TIP3   OH243496   5.233   7.331   7.194
14518TIP3    H143497   5.215   7.256   7.253
14518TIP3    H243498   5.238   7.402   7.259
14519TIP3   OH243499   4.254   7.346   7.597
14519TIP3    H143500   4.242   7.248   7.593
14519TIP3    H243501   4.351   7.351   7.601
14520TIP3   OH243502   3.959   6.544   7.376
14520TIP3    H143503   3.911   6.627   7.390
14520TIP3    H243504   3.891   6.494   7.328
14521TIP3   OH243505   4.017   6.835   7.557
14521TIP3    H143506   4.069   6.757   7.586
14521TIP3    H243507   4.075   6.873   7.489
14522TIP3   OH243508   4.853   7.799   7.199
14522TIP3    H143509   4.897   7.728   7.147
14522TIP3    H243510   4.901   7.791   7.284
14523TIP3   OH243511   4.776   7.268   7.548
14523TIP3    H143512   4.814   7.186   7.512
14523TIP3    H243513   4.859   7.317   7.565
14524TIP3   OH243514   5.729   6.555   7.497
14524TIP3    H143515   5.806   6.579   7.553
14524TIP3    H243516   5.764   6.573   7.409
14525TIP3   OH243517   5.191   6.770   7.583
14525TIP3    H143518   5.239   6.688   7.602
14525TIP3    H243519   5.160   6.752   7.492
14526TIP3   OH243520   4.538   6.428   7.547
14526TIP3    H143521   4.517   6.500   7.485
14526TIP3    H243522   4.489   6.354   7.505
14527TIP3   OH243523   5.231   6.522   7.171
14527TIP3    H143524   5.302   6.509   7.237
14527TIP3    H243525   5.284   6.557   7.096
14528TIP3   OH243526   4.161   6.627   7.662
14528TIP3    H143527   4.245   6.607   7.709
14528TIP3    H243528   4.174   6.572   7.582
14529TIP3   OH243529   4.604   6.826   7.458
14529TIP3    H143530   4.699   6.802   7.466
14529TIP3    H243531   4.566   6.743   7.422
14530TIP3   OH243532   4.531   6.412   7.983
14530TIP3    H143533   4.471   6.448   7.915
14530TIP3    H243534   4.479   6.429   8.064
14531TIP3   OH243535   4.870   7.263   6.991
14531TIP3    H143536   4.832   7.249   6.903
14531TIP3    H243537   4.825   7.346   7.017
14532TIP3   OH243538   4.636   7.187   7.774
14532TIP3    H143539   4.574   7.254   7.813
14532TIP3    H243540   4.674   7.237   7.699
14533TIP3   OH243541   5.435   6.525   7.350
14533TIP3    H143542   5.420   6.480   7.434
14533TIP3    H243543   5.496   6.596   7.375
14534TIP3   OH243544   4.400   6.524   7.766
14534TIP3    H143545   4.461   6.598   7.790
14534TIP3    H243546   4.450   6.485   7.691
14535TIP3   OH243547   4.450   7.374   7.861
14535TIP3    H143548   4.460   7.471   7.864
14535TIP3    H243549   4.377   7.361   7.924
14536TIP3   OH243550   3.848   7.072   7.111
14536TIP3    H143551   3.810   7.096   7.024
14536TIP3    H243552   3.871   7.163   7.144
14537TIP3   OH243553   5.559   6.466   7.700
14537TIP3    H143554   5.470   6.492   7.669
14537TIP3    H243555   5.616   6.501   7.627
14538TIP3   OH243556   4.881   6.124   7.703
14538TIP3    H143557   4.864   6.029   7.721
14538TIP3    H243558   4.803   6.164   7.748
14539TIP3   OH243559   4.996   7.629   7.039
14539TIP3    H143560   5.044   7.546   7.015
14539TIP3    H243561   5.055   7.693   6.991
14540TIP3   OH243562   5.141   7.417   6.946
14540TIP3    H143563   5.105   7.341   6.898
14540TIP3    H243564   5.176   7.374   7.027
14541TIP3   OH243565   4.815   6.894   6.957
14541TIP3    H143566   4.735   6.947   6.938
14541TIP3    H243567   4.858   6.892   6.870
14542TIP3   OH243568   4.772   6.682   6.666
14542TIP3    H143569   4.839   6.734   6.714
14542TIP3    H243570   4.830   6.619   6.619
14543TIP3   OH243571   5.162   6.978   6.924
14543TIP3    H143572   5.108   7.002   7.003
14543TIP3    H243573   5.247   6.953   6.967
14544TIP3   OH243574   4.393   6.972   7.345
14544TIP3    H143575   4.351   6.915   7.277
14544TIP3    H243576   4.469   6.918   7.374
14545TIP3   OH243577   4.527   7.397   7.489
14545TIP3    H143578   4.498   7.363   7.402
14545TIP3    H243579   4.612   7.351   7.502
14546TIP3   OH243580   4.519   6.947   7.697
14546TIP3    H143581   4.557   6.918   7.611
14546TIP3    H243582   4.569   7.030   7.715
14547TIP3   OH243583   5.000   6.835   6.753
14547TIP3    H143584   5.059   6.896   6.802
14547TIP3    H243585   5.027   6.855   6.659
14548TIP3   OH243586   4.423   7.051   8.125
14548TIP3    H143587   4.419   7.142   8.159
14548TIP3    H243588   4.329   7.026   8.127
14549TIP3   OH243589   4.743   7.507   7.028
14549TIP3    H143590   4.819   7.566   7.044
14549TIP3    H243591   4.682   7.565   6.980
14550TIP3   OH243592   5.518   6.072   6.804
14550TIP3    H143593   5.436   6.094   6.852
14550TIP3    H243594   5.533   6.154   6.752
14551TIP3   OH243595   4.259   6.818   7.148
14551TIP3    H143596   4.191   6.865   7.095
14551TIP3    H243597   4.222   6.729   7.152
14552TIP3   OH243598   5.317   7.441   6.353
14552TIP3    H143599   5.325   7.537   6.336
14552TIP3    H243600   5.409   7.411   6.339
14553TIP3   OH243601   4.070   7.190   8.023
14553TIP3    H143602   3.993   7.176   7.963
14553TIP3    H243603   4.099   7.099   8.043
14554TIP3   OH243604   3.902   7.375   7.715
14554TIP3    H143605   3.970   7.394   7.649
14554TIP3    H243606   3.880   7.462   7.751
14555TIP3   OH243607   4.631   7.754   6.832
14555TIP3    H143608   4.582   7.739   6.750
14555TIP3    H243609   4.599   7.842   6.861
14556TIP3   OH243610   4.073   7.612   7.213
14556TIP3    H143611   4.081   7.580   7.305
14556TIP3    H243612   3.980   7.587   7.192
14557TIP3   OH243613   4.828   7.661   6.465
14557TIP3    H143614   4.886   7.591   6.430
14557TIP3    H243615   4.861   7.671   6.556
14558TIP3   OH243616   4.880   7.709   6.732
14558TIP3    H143617   4.793   7.721   6.776
14558TIP3    H243618   4.933   7.673   6.805
14559TIP3   OH243619   4.245   7.397   8.043
14559TIP3    H143620   4.285   7.374   8.130
14559TIP3    H243621   4.177   7.327   8.035
14560TIP3   OH243622   4.643   6.205   7.830
14560TIP3    H143623   4.555   6.175   7.800
14560TIP3    H243624   4.616   6.285   7.880
14561TIP3   OH243625   5.174   6.322   8.028
14561TIP3    H143626   5.236   6.286   8.094
14561TIP3    H243627   5.087   6.304   8.071
14562TIP3   OH243628   5.080   6.873   6.498
14562TIP3    H143629   5.042   6.854   6.410
14562TIP3    H243630   5.163   6.918   6.472
14563TIP3   OH243631   4.791   6.251   6.801
14563TIP3    H143632   4.754   6.249   6.892
14563TIP3    H243633   4.749   6.171   6.765
14564TIP3   OH243634   4.575   6.722   7.843
14564TIP3    H143635   4.535   6.746   7.929
14564TIP3    H243636   4.559   6.804   7.792
14565TIP3   OH243637   4.460   6.609   7.362
14565TIP3    H143638   4.367   6.584   7.380
14565TIP3    H243639   4.472   6.569   7.273
14566TIP3   OH243640   4.951   6.694   7.092
14566TIP3    H143641   4.901   6.765   7.046
14566TIP3    H243642   5.006   6.659   7.018
14567TIP3   OH243643   5.101   6.716   7.327
14567TIP3    H143644   5.040   6.743   7.255
14567TIP3    H243645   5.141   6.639   7.283
14568TIP3   OH243646   4.394   6.749   8.056
14568TIP3    H143647   4.442   6.810   8.115
14568TIP3    H243648   4.388   6.668   8.111
14569TIP3   OH243649   4.449   6.231   6.766
14569TIP3    H143650   4.436   6.229   6.863
14569TIP3    H243651   4.371   6.282   6.738
14570TIP3   OH243652   3.988   6.275   7.645
14570TIP3    H143653   4.070   6.304   7.690
14570TIP3    H243654   4.019   6.245   7.558
14571TIP3   OH243655   3.952   6.251   7.156
14571TIP3    H143656   3.997   6.287   7.076
14571TIP3    H243657   3.890   6.325   7.173
14572TIP3   OH243658   5.087   6.960   7.749
14572TIP3    H143659   5.135   6.896   7.692
14572TIP3    H243660   5.064   6.901   7.824
14573TIP3   OH243661   4.796   6.427   7.421
14573TIP3    H143662   4.714   6.427   7.475
14573TIP3    H243663   4.865   6.423   7.490
14574TIP3   OH243664   4.221   6.487   7.433
14574TIP3    H143665   4.127   6.494   7.402
14574TIP3    H243666   4.246   6.397   7.408
14575TIP3   OH243667   4.486   6.482   7.121
14575TIP3    H143668   4.580   6.496   7.098
14575TIP3    H243669   4.438   6.503   7.037
14576TIP3   OH243670   5.278   6.506   7.626
14576TIP3    H143671   5.246   6.522   7.717
14576TIP3    H243672   5.208   6.448   7.592
14577TIP3   OH243673   4.340   6.517   6.895
14577TIP3    H143674   4.270   6.471   6.846
14577TIP3    H243675   4.392   6.555   6.822
14578TIP3   OH243676   4.384   7.295   8.269
14578TIP3    H143677   4.472   7.320   8.300
14578TIP3    H243678   4.350   7.240   8.342
14579TIP3   OH243679   4.870   6.758   7.517
14579TIP3    H143680   4.945   6.720   7.468
14579TIP3    H243681   4.875   6.711   7.603
14580TIP3   OH243682   4.388   6.245   7.405
14580TIP3    H143683   4.352   6.168   7.453
14580TIP3    H243684   4.429   6.202   7.329
14581TIP3   OH243685   4.841   6.654   7.801
14581TIP3    H143686   4.752   6.689   7.818
14581TIP3    H243687   4.898   6.713   7.855
14582TIP3   OH243688   4.585   7.044   6.906
14582TIP3    H143689   4.511   6.981   6.892
14582TIP3    H243690   4.562   7.080   6.995
14583TIP3   OH243691   5.042   6.353   6.776
14583TIP3    H143692   4.945   6.333   6.782
14583TIP3    H243693   5.046   6.449   6.797
14584TIP3   OH243694   5.108   6.607   6.875
14584TIP3    H143695   5.204   6.614   6.888
14584TIP3    H243696   5.087   6.687   6.822
14585TIP3   OH243697   4.276   7.067   7.578
14585TIP3    H143698   4.311   7.043   7.490
14585TIP3    H243699   4.332   7.012   7.635
14586TIP3   OH243700   4.731   7.196   6.731
14586TIP3    H143701   4.681   7.282   6.732
14586TIP3    H243702   4.675   7.142   6.791
14587TIP3   OH243703   4.157   6.982   8.200
14587TIP3    H143704   4.192   7.009   8.286
14587TIP3    H243705   4.081   6.930   8.228
14588TIP3   OH243706   5.550   6.701   6.705
14588TIP3    H143707   5.489   6.657   6.641
14588TIP3    H243708   5.546   6.791   6.665
14589TIP3   OH243709   5.260   7.527   6.615
14589TIP3    H143710   5.228   7.458   6.675
14589TIP3    H243711   5.269   7.479   6.530
14590TIP3   OH243712   5.186   7.172   7.422
14590TIP3    H143713   5.108   7.113   7.423
14590TIP3    H243714   5.259   7.109   7.412
14591TIP3   OH243715   4.379   7.380   7.215
14591TIP3    H143716   4.378   7.459   7.157
14591TIP3    H243717   4.285   7.357   7.215
14592TIP3   OH243718   3.946   6.677   6.914
14592TIP3    H143719   3.987   6.764   6.934
14592TIP3    H243720   3.867   6.681   6.972
14593TIP3   OH243721   4.506   7.139   7.147
14593TIP3    H143722   4.476   7.229   7.168
14593TIP3    H243723   4.470   7.088   7.223
14594TIP3   OH243724   4.301   7.607   7.059
14594TIP3    H143725   4.214   7.615   7.105
14594TIP3    H243726   4.329   7.702   7.059
14595TIP3   OH243727   5.046   7.326   7.628
14595TIP3    H143728   5.045   7.255   7.697
14595TIP3    H243729   5.102   7.282   7.559
14596TIP3   OH243730   5.014   7.246   6.517
14596TIP3    H143731   5.065   7.221   6.597
14596TIP3    H243732   4.925   7.217   6.541
14597TIP3   OH243733   5.345   7.716   6.331
14597TIP3    H143734   5.381   7.791   6.279
14597TIP3    H243735   5.262   7.757   6.362
14598TIP3   OH243736   4.375   6.491   8.201
14598TIP3    H143737   4.278   6.489   8.208
14598TIP3    H243738   4.401   6.427   8.269
14599TIP3   OH243739   5.173   7.180   6.734
14599TIP3    H143740   5.163   7.112   6.803
14599TIP3    H243741   5.270   7.175   6.719
14600TIP3   OH243742   4.113   7.585   7.862
14600TIP3    H143743   4.115   7.494   7.829
14600TIP3    H243744   4.173   7.574   7.938
14601TIP3   OH243745   4.377   7.223   6.515
14601TIP3    H143746   4.386   7.129   6.490
14601TIP3    H243747   4.354   7.215   6.610
14602TIP3   OH243748   4.320   7.229   6.786
14602TIP3    H143749   4.394   7.205   6.843
14602TIP3    H243750   4.320   7.328   6.794
14603TIP3   OH243751   4.051   6.924   6.996
14603TIP3    H143752   3.984   6.970   7.050
14603TIP3    H243753   4.063   6.990   6.925
14604TIP3   OH243754   5.213   6.559   7.888
14604TIP3    H143755   5.299   6.580   7.931
14604TIP3    H243756   5.190   6.477   7.937
14605TIP3   OH243757   5.091   6.304   7.055
14605TIP3    H143758   5.075   6.326   6.961
14605TIP3    H243759   5.129   6.388   7.089
14606TIP3   OH243760   4.588   7.426   6.737
14606TIP3    H143761   4.500   7.449   6.772
14606TIP3    H243762   4.603   7.502   6.679
14607TIP3   OH243763   4.772   6.491   7.152
14607TIP3    H143764   4.835   6.564   7.135
14607TIP3    H243765   4.779   6.483   7.250
14608TIP3   OH243766   5.027   6.790   7.956
14608TIP3    H143767   5.021   6.799   8.054
14608TIP3    H243768   5.099   6.724   7.950
14609TIP3   OH243769   4.915   6.210   7.251
14609TIP3    H143770   4.902   6.290   7.305
14609TIP3    H243771   4.979   6.243   7.184
14610TIP3   OH243772   4.334   7.500   6.806
14610TIP3    H143773   4.303   7.571   6.745
14610TIP3    H243774   4.317   7.543   6.893
14611TIP3   OH243775   4.429   6.217   7.042
14611TIP3    H143776   4.427   6.307   7.080
14611TIP3    H243777   4.526   6.199   7.049
14612TIP3   OH243778   5.324   6.907   7.315
14612TIP3    H143779   5.251   6.847   7.336
14612TIP3    H243780   5.397   6.870   7.369
14613TIP3   OH243781   4.050   7.123   6.796
14613TIP3    H143782   4.118   7.193   6.803
14613TIP3    H243783   4.093   7.066   6.728
14614TIP3   OH243784   3.987   6.405   6.933
14614TIP3    H143785   3.991   6.503   6.931
14614TIP3    H243786   3.913   6.387   6.875
14615TIP3   OH243787   4.374   6.130   7.802
14615TIP3    H143788   4.347   6.092   7.715
14615TIP3    H243789   4.367   6.051   7.860
14616TIP3   OH243790   3.894   7.334   7.166
14616TIP3    H143791   3.831   7.388   7.218
14616TIP3    H243792   3.904   7.399   7.093
14617TIP3   OH243793   4.538   7.426   6.424
14617TIP3    H143794   4.483   7.353   6.463
14617TIP3    H243795   4.613   7.375   6.389
14618TIP3   OH243796   4.974   7.463   6.340
14618TIP3    H143797   5.014   7.398   6.400
14618TIP3    H243798   5.031   7.459   6.261
14619TIP3   OH243799   4.186   6.939   6.651
14619TIP3    H143800   4.244   6.913   6.724
14619TIP3    H243801   4.252   6.945   6.578
14620TIP3   OH243802   4.707   7.144   6.460
14620TIP3    H143803   4.703   7.156   6.557
14620TIP3    H243804   4.704   7.046   6.453
14621TIP3   OH243805   4.363   7.053   8.443
14621TIP3    H143806   4.423   6.983   8.414
14621TIP3    H243807   4.316   7.009   8.516
14622TIP3   OH243808   4.390   6.850   6.868
14622TIP3    H143809   4.361   6.808   6.951
14622TIP3    H243810   4.428   6.775   6.818
14623TIP3   OH243811   4.650   6.896   8.091
14623TIP3    H143812   4.582   6.967   8.096
14623TIP3    H243813   4.716   6.939   8.030
14624TIP3   OH243814   4.495   6.645   6.710
14624TIP3    H143815   4.469   6.654   6.616
14624TIP3    H243816   4.593   6.648   6.702
14625TIP3   OH243817   5.312   6.970   6.380
14625TIP3    H143818   5.292   6.927   6.294
14625TIP3    H243819   5.280   7.061   6.359
14626TIP3   OH243820   4.772   6.697   8.227
14626TIP3    H143821   4.775   6.619   8.167
14626TIP3    H243822   4.729   6.764   8.169
14627TIP3   OH243823   4.788   6.490   8.034
14627TIP3    H143824   4.816   6.530   7.949
14627TIP3    H243825   4.695   6.465   8.014
14628TIP3   OH243826   4.805   7.015   7.904
14628TIP3    H143827   4.887   7.020   7.854
14628TIP3    H243828   4.749   7.083   7.861
14629TIP3   OH243829   4.646   6.822   8.443
14629TIP3    H143830   4.590   6.746   8.468
14629TIP3    H243831   4.692   6.784   8.365
14630TIP3   OH243832   4.921   6.257   8.119
14630TIP3    H143833   4.870   6.335   8.091
14630TIP3    H243834   4.856   6.185   8.103
14631TIP3   OH243835   5.041   6.765   8.231
14631TIP3    H143836   5.077   6.758   8.320
14631TIP3    H243837   4.948   6.736   8.244
14632TIP3   OH243838   4.502   6.592   8.508
14632TIP3    H143839   4.501   6.504   8.463
14632TIP3    H243840   4.537   6.567   8.594
14633TIP3   OH243841   5.002   6.249   8.390
14633TIP3    H143842   5.074   6.185   8.375
14633TIP3    H243843   4.969   6.259   8.299
14634TIP3   OH243844   4.304   7.703   6.619
14634TIP3    H143845   4.399   7.695   6.597
14634TIP3    H243846   4.274   7.755   6.543
14635TIP3   OH243847   3.781   7.082   6.834
14635TIP3    H143848   3.875   7.105   6.818
14635TIP3    H243849   3.773   6.995   6.789
14636TIP3   OH243850   3.874   7.526   7.429
14636TIP3    H143851   3.801   7.479   7.468
14636TIP3    H243852   3.887   7.602   7.487
14637TIP3   OH243853   5.450   7.156   6.709
14637TIP3    H143854   5.515   7.222   6.676
14637TIP3    H243855   5.498   7.121   6.788
14638TIP3   OH243856   5.581   7.028   6.915
14638TIP3    H143857   5.511   6.984   6.969
14638TIP3    H243858   5.639   7.066   6.984
14639TIP3   OH243859   5.515   6.934   6.558
14639TIP3    H143860   5.444   6.935   6.491
14639TIP3    H243861   5.487   7.011   6.613
14640TIP3   OH243862   5.389   6.605   6.510
14640TIP3    H143863   5.339   6.642   6.436
14640TIP3    H243864   5.366   6.509   6.501
14641TIP3   OH243865   5.391   6.885   7.052
14641TIP3    H143866   5.397   6.788   7.047
14641TIP3    H243867   5.372   6.898   7.148
14642TIP3   OH243868   4.004   6.941   7.811
14642TIP3    H143869   4.009   6.919   7.715
14642TIP3    H243870   4.101   6.953   7.829
14643TIP3   OH243871   5.329   6.339   6.493
14643TIP3    H143872   5.398   6.305   6.554
14643TIP3    H243873   5.252   6.283   6.513
14644TIP3   OH243874   5.389   6.601   6.949
14644TIP3    H143875   5.430   6.512   6.964
14644TIP3    H243876   5.446   6.634   6.878
14645TIP3   OH243877   5.539   6.797   7.446
14645TIP3    H143878   5.628   6.810   7.408
14645TIP3    H243879   5.557   6.827   7.537
14646TIP3   OH243880   4.231   6.624   8.460
14646TIP3    H143881   4.328   6.623   8.473
14646TIP3    H243882   4.205   6.546   8.514
14647TIP3   OH243883   5.498   6.350   6.989
14647TIP3    H143884   5.543   6.334   7.074
14647TIP3    H243885   5.435   6.275   6.987
14648TIP3   OH243886   4.193   6.340   7.832
14648TIP3    H143887   4.251   6.261   7.832
14648TIP3    H243888   4.258   6.410   7.811
14649TIP3   OH243889   3.988   6.667   7.886
14649TIP3    H143890   4.002   6.599   7.817
14649TIP3    H243891   4.069   6.719   7.871
14650TIP3   OH243892   5.574   6.279   6.628
14650TIP3    H143893   5.612   6.211   6.568
14650TIP3    H243894   5.639   6.351   6.621
14651TIP3   OH243895   3.981   6.126   7.394
14651TIP3    H143896   3.888   6.108   7.411
14651TIP3    H243897   3.977   6.177   7.310
14652TIP3   OH243898   5.146   7.786   6.878
14652TIP3    H143899   5.187   7.799   6.789
14652TIP3    H243900   5.082   7.863   6.884
14653TIP3   OH243901   4.205   6.207   8.202
14653TIP3    H143902   4.151   6.191   8.281
14653TIP3    H243903   4.137   6.221   8.135
14654TIP3   OH243904   4.454   7.653   7.793
14654TIP3    H143905   4.392   7.729   7.779
14654TIP3    H243906   4.434   7.599   7.716
14655TIP3   OH243907   5.855   6.393   7.878
14655TIP3    H143908   5.760   6.409   7.875
14655TIP3    H243909   5.862   6.299   7.859
14656TIP3   OH243910   4.302   7.868   7.711
14656TIP3    H143911   4.208   7.891   7.713
14656TIP3    H243912   4.329   7.918   7.631
14657TIP3   OH243913   4.004   7.699   7.610
14657TIP3    H143914   4.046   7.683   7.696
14657TIP3    H243915   4.071   7.658   7.550
14658TIP3   OH243916   4.195   7.578   7.466
14658TIP3    H143917   4.217   7.489   7.501
14658TIP3    H243918   4.281   7.609   7.433
14659TIP3   OH243919   4.463   7.667   7.437
14659TIP3    H143920   4.497   7.576   7.426
14659TIP3    H243921   4.511   7.696   7.516
14660TIP3   OH243922   5.047   6.325   7.546
14660TIP3    H143923   5.003   6.251   7.592
14660TIP3    H243924   5.118   6.280   7.498
14661TIP3   OH243925   5.563   6.201   7.440
14661TIP3    H143926   5.600   6.257   7.368
14661TIP3    H243927   5.468   6.225   7.437
14662TIP3   OH243928   5.661   6.303   7.207
14662TIP3    H143929   5.735   6.253   7.167
14662TIP3    H243930   5.692   6.395   7.192
14663TIP3   OH243931   4.290   6.030   7.555
14663TIP3    H143932   4.198   5.998   7.558
14663TIP3    H243933   4.339   5.945   7.550
14664TIP3   OH243934   4.084   5.906   7.205
14664TIP3    H143935   4.113   5.959   7.129
14664TIP3    H243936   4.058   5.974   7.270
14665TIP3   OH243937   4.740   6.064   7.436
14665TIP3    H143938   4.795   6.112   7.372
14665TIP3    H243939   4.768   6.103   7.520
14666TIP3   OH243940   5.279   6.214   7.420
14666TIP3    H143941   5.279   6.174   7.331
14666TIP3    H243942   5.269   6.134   7.477
14667TIP3   OH243943   5.314   6.140   6.984
14667TIP3    H143944   5.228   6.183   7.001
14667TIP3    H243945   5.298   6.052   7.026
14668TIP3   OH243946   4.200   6.060   6.967
14668TIP3    H143947   4.246   5.997   6.908
14668TIP3    H243948   4.274   6.114   7.000
14669TIP3   OH243949   4.706   6.241   7.064
14669TIP3    H143950   4.766   6.193   7.124
14669TIP3    H243951   4.729   6.334   7.090
14670TIP3   OH243952   4.570   7.657   6.565
14670TIP3    H143953   4.657   7.682   6.527
14670TIP3    H243954   4.548   7.583   6.505
14671TIP3   OH243955   5.294   7.800   6.648
14671TIP3    H143956   5.295   7.702   6.640
14671TIP3    H243957   5.252   7.824   6.563
14672TIP3   OH243958   4.492   6.320   8.446
14672TIP3    H143959   4.453   6.247   8.498
14672TIP3    H243960   4.587   6.308   8.468
14673TIP3   OH243961   4.754   6.292   8.533
14673TIP3    H143962   4.834   6.290   8.478
14673TIP3    H243963   4.782   6.241   8.610
14674TIP3   OH243964   3.872   7.497   6.618
14674TIP3    H143965   3.871   7.520   6.713
14674TIP3    H243966   3.961   7.456   6.607
14675TIP3   OH243967   5.749   6.806   6.863
14675TIP3    H143968   5.699   6.887   6.882
14675TIP3    H243969   5.681   6.754   6.816
14676TIP3   OH243970   5.812   7.098   7.049
14676TIP3    H143971   5.867   7.033   7.098
14676TIP3    H243972   5.854   7.098   6.963
14677TIP3   OH243973   6.293   6.708   7.065
14677TIP3    H143974   6.289   6.770   6.990
14677TIP3    H243975   6.262   6.627   7.021
14678TIP3   OH243976   5.973   6.891   7.145
14678TIP3    H143977   6.066   6.868   7.155
14678TIP3    H243978   5.951   6.831   7.071
14679TIP3   OH243979   5.645   7.320   6.595
14679TIP3    H143980   5.603   7.349   6.512
14679TIP3    H243981   5.675   7.408   6.631
14680TIP3   OH243982   6.582   6.944   6.165
14680TIP3    H143983   6.659   6.992   6.200
14680TIP3    H243984   6.628   6.874   6.114
14681TIP3   OH243985   7.275   6.314   6.230
14681TIP3    H143986   7.209   6.293   6.298
14681TIP3    H243987   7.270   6.412   6.228
14682TIP3   OH243988   6.056   7.066   6.614
14682TIP3    H143989   5.983   7.114   6.569
14682TIP3    H243990   6.013   6.983   6.636
14683TIP3   OH243991   6.867   7.130   5.942
14683TIP3    H143992   6.830   7.104   5.855
14683TIP3    H243993   6.963   7.125   5.923
14684TIP3   OH243994   6.597   6.503   6.283
14684TIP3    H143995   6.559   6.502   6.374
14684TIP3    H243996   6.550   6.425   6.247
14685TIP3   OH243997   6.243   6.854   6.837
14685TIP3    H143998   6.152   6.831   6.864
14685TIP3    H243999   6.246   6.811   6.748
14686TIP3   OH244000   6.249   6.491   6.252
14686TIP3    H144001   6.232   6.486   6.349
14686TIP3    H244002   6.168   6.539   6.223
14687TIP3   OH244003   5.778   6.527   7.118
14687TIP3    H144004   5.855   6.565   7.166
14687TIP3    H244005   5.817   6.494   7.036
14688TIP3   OH244006   5.749   6.509   6.642
14688TIP3    H144007   5.794   6.546   6.563
14688TIP3    H244008   5.687   6.582   6.661
14689TIP3   OH244009   6.008   6.739   6.914
14689TIP3    H144010   5.913   6.743   6.885
14689TIP3    H244011   6.032   6.646   6.898
14690TIP3   OH244012   6.280   6.731   6.598
14690TIP3    H144013   6.371   6.747   6.568
14690TIP3    H244014   6.227   6.755   6.519
14691TIP3   OH244015   6.131   6.776   6.380
14691TIP3    H144016   6.061   6.727   6.334
14691TIP3    H244017   6.183   6.809   6.304
14692TIP3   OH244018   6.187   6.505   6.895
14692TIP3    H144019   6.150   6.429   6.945
14692TIP3    H244020   6.222   6.461   6.816
14693TIP3   OH244021   6.350   7.322   6.402
14693TIP3    H144022   6.292   7.243   6.391
14693TIP3    H244023   6.321   7.356   6.489
14694TIP3   OH244024   6.826   6.639   6.258
14694TIP3    H144025   6.735   6.601   6.258
14694TIP3    H244026   6.812   6.725   6.217
14695TIP3   OH244027   5.742   6.933   6.402
14695TIP3    H144028   5.782   7.020   6.421
14695TIP3    H244029   5.662   6.936   6.460
14696TIP3   OH244030   6.167   7.470   5.985
14696TIP3    H144031   6.181   7.381   5.950
14696TIP3    H244032   6.140   7.450   6.076
14697TIP3   OH244033   6.161   7.478   6.260
14697TIP3    H144034   6.238   7.426   6.296
14697TIP3    H244035   6.205   7.562   6.235
14698TIP3   OH244036   5.845   7.178   6.478
14698TIP3    H144037   5.778   7.222   6.535
14698TIP3    H244038   5.854   7.248   6.409
14699TIP3   OH244039   6.840   6.563   6.521
14699TIP3    H144040   6.825   6.594   6.430
14699TIP3    H244041   6.926   6.604   6.541
14700TIP3   OH244042   6.572   6.741   6.643
14700TIP3    H144043   6.641   6.811   6.633
14700TIP3    H244044   6.536   6.770   6.729
14701TIP3   OH244045   6.710   6.474   6.744
14701TIP3    H144046   6.719   6.556   6.794
14701TIP3    H244047   6.749   6.504   6.658
14702TIP3   OH244048   6.224   6.469   6.528
14702TIP3    H144049   6.223   6.559   6.566
14702TIP3    H244050   6.321   6.452   6.532
14703TIP3   OH244051   5.840   7.381   6.287
14703TIP3    H144052   5.888   7.464   6.296
14703TIP3    H244053   5.893   7.335   6.217
14704TIP3   OH244054   5.787   6.662   6.418
14704TIP3    H144055   5.787   6.760   6.417
14704TIP3    H244056   5.707   6.643   6.367
14705TIP3   OH244057   6.132   6.377   7.300
14705TIP3    H144058   6.131   6.349   7.206
14705TIP3    H244059   6.155   6.294   7.346
14706TIP3   OH244060   5.694   7.579   6.652
14706TIP3    H144061   5.636   7.626   6.713
14706TIP3    H244062   5.690   7.635   6.572
14707TIP3   OH244063   6.330   7.680   5.917
14707TIP3    H144064   6.274   7.603   5.942
14707TIP3    H244065   6.410   7.634   5.886
14708TIP3   OH244066   5.982   7.204   6.132
14708TIP3    H144067   6.034   7.167   6.206
14708TIP3    H244068   6.049   7.203   6.060
14709TIP3   OH244069   6.484   7.394   5.959
14709TIP3    H144070   6.474   7.400   6.055
14709TIP3    H244071   6.489   7.297   5.947
14710TIP3   OH244072   6.199   7.099   6.371
14710TIP3    H144073   6.150   7.063   6.447
14710TIP3    H244074   6.223   7.019   6.320
14711TIP3   OH244075   6.291   6.900   6.195
14711TIP3    H144076   6.263   6.909   6.101
14711TIP3    H244077   6.389   6.904   6.186
14712TIP3   OH244078   5.572   7.341   6.314
14712TIP3    H144079   5.667   7.361   6.304
14712TIP3    H244080   5.566   7.252   6.273
14713TIP3   OH244081   7.265   6.841   5.979
14713TIP3    H144082   7.196   6.909   5.955
14713TIP3    H244083   7.214   6.758   5.958
14714TIP3   OH244084   7.137   6.571   5.980
14714TIP3    H144085   7.168   6.572   6.073
14714TIP3    H244086   7.047   6.536   5.990
14715TIP3   OH244087   5.982   6.602   7.282
14715TIP3    H144088   6.035   6.519   7.289
14715TIP3    H244089   6.032   6.664   7.335
14716TIP3   OH244090   5.796   6.887   7.384
14716TIP3    H144091   5.857   6.881   7.308
14716TIP3    H244092   5.773   6.983   7.383
14717TIP3   OH244093   7.475   6.624   6.047
14717TIP3    H144094   7.459   6.536   6.006
14717TIP3    H244095   7.461   6.598   6.143
14718TIP3   OH244096   5.779   6.370   6.871
14718TIP3    H144097   5.686   6.361   6.899
14718TIP3    H244098   5.772   6.427   6.792
14719TIP3   OH244099   6.090   6.289   7.035
14719TIP3    H144100   5.996   6.259   7.038
14719TIP3    H244101   6.136   6.203   7.029
14720TIP3   OH244102   5.884   6.162   6.695
14720TIP3    H144103   5.908   6.217   6.619
14720TIP3    H244104   5.853   6.229   6.760
14721TIP3   OH244105   6.538   6.313   6.923
14721TIP3    H144106   6.597   6.371   6.873
14721TIP3    H244107   6.518   6.365   7.002
14722TIP3   OH244108   7.072   6.365   6.452
14722TIP3    H144109   6.981   6.393   6.430
14722TIP3    H244110   7.055   6.276   6.491
14723TIP3   OH244111   5.607   7.733   6.433
14723TIP3    H144112   5.516   7.705   6.412
14723TIP3    H244113   5.594   7.829   6.442
14724TIP3   OH244114   5.995   6.316   6.452
14724TIP3    H144115   6.042   6.253   6.394
14724TIP3    H244116   6.069   6.369   6.487
14725TIP3   OH244117   6.502   6.495   6.545
14725TIP3    H144118   6.549   6.438   6.608
14725TIP3    H244119   6.530   6.584   6.576
14726TIP3   OH244120   5.670   7.749   6.106
14726TIP3    H144121   5.659   7.753   6.203
14726TIP3    H244122   5.759   7.706   6.097
14727TIP3   OH244123   2.633   8.234   6.788
14727TIP3    H144124   2.686   8.295   6.840
14727TIP3    H244125   2.699   8.193   6.728
14728TIP3   OH244126   3.342   7.621   6.920
14728TIP3    H144127   3.283   7.636   6.998
14728TIP3    H244128   3.365   7.712   6.894
14729TIP3   OH244129   2.909   8.400   6.641
14729TIP3    H144130   2.881   8.381   6.548
14729TIP3    H244131   2.975   8.470   6.627
14730TIP3   OH244132   2.614   7.828   6.945
14730TIP3    H144133   2.595   7.809   7.038
14730TIP3    H244134   2.576   7.748   6.904
14731TIP3   OH244135   2.280   7.805   6.935
14731TIP3    H144136   2.246   7.809   7.027
14731TIP3    H244137   2.207   7.853   6.893
14732TIP3   OH244138   2.887   7.896   6.922
14732TIP3    H144139   2.785   7.894   6.923
14732TIP3    H244140   2.908   7.986   6.910
14733TIP3   OH244141   3.003   8.156   6.875
14733TIP3    H144142   3.073   8.181   6.807
14733TIP3    H244143   2.943   8.231   6.870
14734TIP3   OH244144   3.396   8.243   6.827
14734TIP3    H144145   3.332   8.198   6.768
14734TIP3    H244146   3.384   8.335   6.796
14735TIP3   OH244147   2.982   7.863   7.171
14735TIP3    H144148   2.961   7.861   7.078
14735TIP3    H244149   2.919   7.925   7.206
14736TIP3   OH244150   3.149   8.537   6.522
14736TIP3    H144151   3.123   8.484   6.443
14736TIP3    H244152   3.152   8.626   6.486
14737TIP3   OH244153   3.353   8.500   6.702
14737TIP3    H144154   3.278   8.487   6.639
14737TIP3    H244155   3.358   8.596   6.703
14738TIP3   OH244156   3.204   8.163   6.648
14738TIP3    H144157   3.157   8.183   6.566
14738TIP3    H244158   3.203   8.065   6.644
14739TIP3   OH244159   3.177   7.894   6.641
14739TIP3    H144160   3.252   7.867   6.698
14739TIP3    H244161   3.105   7.835   6.671
14740TIP3   OH244162   3.269   8.160   7.082
14740TIP3    H144163   3.289   8.063   7.103
14740TIP3    H244164   3.301   8.160   6.985
14741TIP3   OH244165   3.350   7.896   7.130
14741TIP3    H144166   3.385   7.890   7.222
14741TIP3    H244167   3.291   7.820   7.128
14742TIP3   OH244168   3.416   7.846   6.771
14742TIP3    H144169   3.450   7.769   6.720
14742TIP3    H244170   3.493   7.906   6.771
14743TIP3   OH244171   3.429   7.792   7.602
14743TIP3    H144172   3.466   7.813   7.513
14743TIP3    H244173   3.335   7.772   7.579
14744TIP3   OH244174   3.522   7.855   7.352
14744TIP3    H144175   3.585   7.820   7.287
14744TIP3    H244176   3.542   7.952   7.346
14745TIP3   OH244177   3.164   7.748   7.577
14745TIP3    H144178   3.108   7.758   7.499
14745TIP3    H244179   3.121   7.674   7.624
14746TIP3   OH244180   3.179   7.686   7.138
14746TIP3    H144181   3.108   7.740   7.160
14746TIP3    H244182   3.150   7.596   7.181
14747TIP3   OH244183   2.040   7.561   7.157
14747TIP3    H144184   2.090   7.546   7.075
14747TIP3    H244185   2.036   7.659   7.160
14748TIP3   OH244186   3.600   8.328   7.009
14748TIP3    H144187   3.577   8.420   6.986
14748TIP3    H244188   3.525   8.278   6.971
14749TIP3   OH244189   4.175   8.239   7.178
14749TIP3    H144190   4.149   8.310   7.115
14749TIP3    H244191   4.130   8.163   7.134
14750TIP3   OH244192   4.867   8.296   6.801
14750TIP3    H144193   4.922   8.316   6.878
14750TIP3    H244194   4.867   8.382   6.755
14751TIP3   OH244195   4.253   8.625   7.107
14751TIP3    H144196   4.339   8.595   7.075
14751TIP3    H244197   4.194   8.554   7.072
14752TIP3   OH244198   4.060   8.350   7.404
14752TIP3    H144199   4.069   8.441   7.372
14752TIP3    H244200   4.103   8.301   7.330
14753TIP3   OH244201   4.492   7.930   7.316
14753TIP3    H144202   4.491   7.836   7.341
14753TIP3    H244203   4.427   7.966   7.381
14754TIP3   OH244204   4.446   8.686   6.582
14754TIP3    H144205   4.371   8.748   6.570
14754TIP3    H244206   4.503   8.706   6.505
14755TIP3   OH244207   4.406   8.495   6.301
14755TIP3    H144208   4.462   8.537   6.369
14755TIP3    H244209   4.470   8.435   6.257
14756TIP3   OH244210   4.048   8.772   6.926
14756TIP3    H144211   4.050   8.680   6.893
14756TIP3    H244212   4.114   8.771   6.997
14757TIP3   OH244213   4.649   8.668   6.391
14757TIP3    H144214   4.714   8.734   6.417
14757TIP3    H244215   4.663   8.667   6.293
14758TIP3   OH244216   5.147   7.886   6.431
14758TIP3    H144217   5.067   7.908   6.483
14758TIP3    H244218   5.159   7.968   6.379
14759TIP3   OH244219   3.920   8.586   6.753
14759TIP3    H144220   3.861   8.662   6.768
14759TIP3    H244221   3.864   8.511   6.775
14760TIP3   OH244222   4.290   8.018   7.480
14760TIP3    H144223   4.200   7.992   7.451
14760TIP3    H244224   4.281   8.113   7.493
14761TIP3   OH244225   4.712   8.668   6.131
14761TIP3    H144226   4.684   8.646   6.040
14761TIP3    H244227   4.762   8.750   6.116
14762TIP3   OH244228   4.426   8.065   6.436
14762TIP3    H144229   4.392   8.063   6.527
14762TIP3    H244230   4.384   7.984   6.401
14763TIP3   OH244231   4.101   8.427   6.992
14763TIP3    H144232   4.010   8.391   7.005
14763TIP3    H244233   4.118   8.389   6.902
14764TIP3   OH244234   4.582   8.499   6.724
14764TIP3    H144235   4.532   8.574   6.684
14764TIP3    H244236   4.629   8.466   6.645
14765TIP3   OH244237   4.084   8.044   6.405
14765TIP3    H144238   4.072   8.039   6.502
14765TIP3    H244239   4.004   8.095   6.380
14766TIP3   OH244240   3.623   8.108   7.296
14766TIP3    H144241   3.715   8.121   7.325
14766TIP3    H244242   3.630   8.080   7.202
14767TIP3   OH244243   3.604   8.051   6.785
14767TIP3    H144244   3.650   8.087   6.706
14767TIP3    H244245   3.545   8.126   6.806
14768TIP3   OH244246   4.428   8.259   7.057
14768TIP3    H144247   4.343   8.248   7.106
14768TIP3    H244248   4.492   8.219   7.120
14769TIP3   OH244249   3.869   8.302   7.037
14769TIP3    H144250   3.771   8.310   7.036
14769TIP3    H244251   3.881   8.206   7.030
14770TIP3   OH244252   4.128   8.298   6.754
14770TIP3    H144253   4.219   8.310   6.724
14770TIP3    H244254   4.074   8.318   6.674
14771TIP3   OH244255   3.975   8.326   6.533
14771TIP3    H144256   3.903   8.282   6.485
14771TIP3    H244257   4.026   8.364   6.458
14772TIP3   OH244258   4.039   8.050   7.036
14772TIP3    H144259   3.997   7.977   7.088
14772TIP3    H244260   4.057   8.005   6.952
14773TIP3   OH244261   4.220   8.842   6.548
14773TIP3    H144262   4.144   8.784   6.531
14773TIP3    H244263   4.197   8.883   6.633
14774TIP3   OH244264   4.674   8.163   6.404
14774TIP3    H144265   4.579   8.140   6.413
14774TIP3    H244266   4.676   8.259   6.426
14775TIP3   OH244267   4.709   8.419   6.492
14775TIP3    H144268   4.806   8.416   6.511
14775TIP3    H244269   4.700   8.507   6.451
14776TIP3   OH244270   4.319   9.017   6.357
14776TIP3    H144271   4.290   9.092   6.412
14776TIP3    H244272   4.295   8.944   6.419
14777TIP3   OH244273   5.204   8.455   6.289
14777TIP3    H144274   5.116   8.433   6.250
14777TIP3    H244275   5.210   8.547   6.254
14778TIP3   OH244276   3.582   8.489   6.540
14778TIP3    H144277   3.625   8.575   6.563
14778TIP3    H244278   3.509   8.489   6.604
14779TIP3   OH244279   4.701   8.983   6.154
14779TIP3    H144280   4.750   9.055   6.197
14779TIP3    H244281   4.611   9.023   6.146
14780TIP3   OH244282   3.990   8.987   6.204
14780TIP3    H144283   4.034   8.902   6.182
14780TIP3    H244284   4.033   9.013   6.286
14781TIP3   OH244285   3.676   8.737   6.627
14781TIP3    H144286   3.719   8.781   6.704
14781TIP3    H244287   3.689   8.805   6.558
14782TIP3   OH244288   4.719   8.100   6.681
14782TIP3    H144289   4.704   8.131   6.590
14782TIP3    H244290   4.769   8.175   6.720
14783TIP3   OH244291   4.413   8.299   6.788
14783TIP3    H144292   4.475   8.373   6.767
14783TIP3    H244293   4.413   8.302   6.886
14784TIP3   OH244294   4.553   8.029   6.891
14784TIP3    H144295   4.527   8.118   6.922
14784TIP3    H244296   4.617   8.052   6.820
14785TIP3   OH244297   4.072   8.032   6.685
14785TIP3    H144298   4.068   8.123   6.719
14785TIP3    H244299   4.169   8.016   6.690
14786TIP3   OH244300   3.694   8.953   6.441
14786TIP3    H144301   3.732   9.042   6.433
14786TIP3    H244302   3.747   8.903   6.376
14787TIP3   OH244303   3.632   8.219   6.564
14787TIP3    H144304   3.632   8.316   6.557
14787TIP3    H244305   3.547   8.195   6.525
14788TIP3   OH244306   4.032   7.928   7.435
14788TIP3    H144307   3.998   7.899   7.347
14788TIP3    H244308   4.011   7.851   7.490
14789TIP3   OH244309   3.815   8.748   6.298
14789TIP3    H144310   3.867   8.713   6.373
14789TIP3    H244311   3.887   8.753   6.231
14790TIP3   OH244312   4.253   8.919   6.097
14790TIP3    H144313   4.280   8.942   6.188
14790TIP3    H244314   4.293   8.830   6.087
14791TIP3   OH244315   4.013   8.661   6.502
14791TIP3    H144316   3.985   8.621   6.588
14791TIP3    H244317   4.055   8.585   6.458
14792TIP3   OH244318   4.131   8.458   6.350
14792TIP3    H144319   4.106   8.460   6.255
14792TIP3    H244320   4.229   8.462   6.342
14793TIP3   OH244321   4.953   8.797   6.020
14793TIP3    H144322   4.926   8.747   5.940
14793TIP3    H244323   4.941   8.888   5.987
14794TIP3   OH244324   3.431   8.879   6.482
14794TIP3    H144325   3.521   8.909   6.462
14794TIP3    H244326   3.424   8.799   6.425
14795TIP3   OH244327   5.179   8.684   6.150
14795TIP3    H144328   5.095   8.700   6.103
14795TIP3    H244329   5.224   8.770   6.132
14796TIP3   OH244330   4.984   8.417   6.133
14796TIP3    H144331   4.940   8.445   6.051
14796TIP3    H244332   4.967   8.320   6.128
14797TIP3   OH244333   4.950   8.149   6.113
14797TIP3    H144334   5.026   8.119   6.168
14797TIP3    H244335   4.878   8.090   6.140
14798TIP3   OH244336   4.970   8.407   6.561
14798TIP3    H144337   5.010   8.327   6.602
14798TIP3    H244338   5.034   8.477   6.584
14799TIP3   OH244339   5.115   8.174   6.645
14799TIP3    H144340   5.129   8.168   6.741
14799TIP3    H244341   5.052   8.099   6.633
14800TIP3   OH244342   3.866   8.148   7.440
14800TIP3    H144343   3.928   8.072   7.435
14800TIP3    H244344   3.922   8.222   7.410
14801TIP3   OH244345   5.187   8.087   6.239
14801TIP3    H144346   5.226   8.013   6.188
14801TIP3    H244347   5.260   8.152   6.237
14802TIP3   OH244348   3.615   7.980   7.055
14802TIP3    H144349   3.529   7.934   7.056
14802TIP3    H244350   3.630   7.990   6.959
14803TIP3   OH244351   4.631   8.123   7.183
14803TIP3    H144352   4.592   8.042   7.223
14803TIP3    H244353   4.685   8.086   7.111
14804TIP3   OH244354   3.935   7.849   7.190
14804TIP3    H144355   3.855   7.809   7.149
14804TIP3    H244356   3.993   7.771   7.182
14805TIP3   OH244357   4.378   7.874   7.067
14805TIP3    H144358   4.436   7.924   7.008
14805TIP3    H244359   4.406   7.908   7.155
14806TIP3   OH244360   4.959   7.952   6.992
14806TIP3    H144361   4.953   8.044   7.026
14806TIP3    H244362   4.913   7.904   7.063
14807TIP3   OH244363   4.947   7.954   6.620
14807TIP3    H144364   4.860   7.996   6.637
14807TIP3    H244365   4.930   7.866   6.660
14808TIP3   OH244366   3.845   7.902   6.569
14808TIP3    H144367   3.890   7.823   6.535
14808TIP3    H244368   3.911   7.939   6.631
14809TIP3   OH244369   4.347   8.052   6.698
14809TIP3    H144370   4.404   8.003   6.759
14809TIP3    H244371   4.369   8.145   6.725
14810TIP3   OH244372   5.865   8.312   5.907
14810TIP3    H144373   5.836   8.303   5.998
14810TIP3    H244374   5.786   8.354   5.865
14811TIP3   OH244375   5.400   8.271   6.260
14811TIP3    H144376   5.464   8.307   6.197
14811TIP3    H244377   5.339   8.348   6.271
14812TIP3   OH244378   5.369   8.451   6.007
14812TIP3    H144379   5.429   8.518   6.047
14812TIP3    H244380   5.288   8.463   6.059
14813TIP3   OH244381   5.353   8.116   6.477
14813TIP3    H144382   5.267   8.143   6.515
14813TIP3    H244383   5.372   8.190   6.416
14814TIP3   OH244384   5.492   7.965   6.289
14814TIP3    H144385   5.511   8.034   6.223
14814TIP3    H244386   5.442   8.016   6.357
14815TIP3   OH244387   5.626   8.135   6.086
14815TIP3    H144388   5.667   8.068   6.027
14815TIP3    H244389   5.701   8.157   6.143
   8.50000   8.01388   6.94022   0.00000   0.00000  -2.83333   0.00000  -2.83333  -4.00694
